 Entering Gaussian System, Link 0=/uufs/chpc.utah.edu/sys/installdir/gaussian16/C01/AVX2/g16/g16
 Input=Ac1_clust-29.com
 Output=Ac1_clust-29.log
 Initial command:
 /uufs/chpc.utah.edu/sys/installdir/gaussian16/C01/AVX2/g16/l1.exe "/scratch/general/lustre/u6032257/3857485/notchpeak.peaks/Gau-271668.inp" -scrdir="/scratch/general/lustre/u6032257/3857485/notchpeak.peaks/"
 Entering Link 1 = /uufs/chpc.utah.edu/sys/installdir/gaussian16/C01/AVX2/g16/l1.exe PID=    271670.
  
 Copyright (c) 1988-2019, Gaussian, Inc.  All Rights Reserved.
  
 This is part of the Gaussian(R) 16 program.  It is based on
 the Gaussian(R) 09 system (copyright 2009, Gaussian, Inc.),
 the Gaussian(R) 03 system (copyright 2003, Gaussian, Inc.),
 the Gaussian(R) 98 system (copyright 1998, Gaussian, Inc.),
 the Gaussian(R) 94 system (copyright 1995, Gaussian, Inc.),
 the Gaussian 92(TM) system (copyright 1992, Gaussian, Inc.),
 the Gaussian 90(TM) system (copyright 1990, Gaussian, Inc.),
 the Gaussian 88(TM) system (copyright 1988, Gaussian, Inc.),
 the Gaussian 86(TM) system (copyright 1986, Carnegie Mellon
 University), and the Gaussian 82(TM) system (copyright 1983,
 Carnegie Mellon University). Gaussian is a federally registered
 trademark of Gaussian, Inc.
  
 This software contains proprietary and confidential information,
 including trade secrets, belonging to Gaussian, Inc.
  
 This software is provided under written license and may be
 used, copied, transmitted, or stored only in accord with that
 written license.
  
 The following legend is applicable only to US Government
 contracts under FAR:
  
                    RESTRICTED RIGHTS LEGEND
  
 Use, reproduction and disclosure by the US Government is
 subject to restrictions as set forth in subparagraphs (a)
 and (c) of the Commercial Computer Software - Restricted
 Rights clause in FAR 52.227-19.
  
 Gaussian, Inc.
 340 Quinnipiac St., Bldg. 40, Wallingford CT 06492
  
  
 ---------------------------------------------------------------
 Warning -- This program may not be used in any manner that
 competes with the business of Gaussian, Inc. or will provide
 assistance to any competitor of Gaussian, Inc.  The licensee
 of this program is prohibited from giving any competitor of
 Gaussian, Inc. access to this program.  By using this program,
 the user acknowledges that Gaussian, Inc. is engaged in the
 business of creating and licensing software in the field of
 computational chemistry and represents and warrants to the
 licensee that it is not a competitor of Gaussian, Inc. and that
 it will not use this program in any manner prohibited above.
 ---------------------------------------------------------------
  

 Cite this work as:
 Gaussian 16, Revision C.01,
 M. J. Frisch, G. W. Trucks, H. B. Schlegel, G. E. Scuseria, 
 M. A. Robb, J. R. Cheeseman, G. Scalmani, V. Barone, 
 G. A. Petersson, H. Nakatsuji, X. Li, M. Caricato, A. V. Marenich, 
 J. Bloino, B. G. Janesko, R. Gomperts, B. Mennucci, H. P. Hratchian, 
 J. V. Ortiz, A. F. Izmaylov, J. L. Sonnenberg, D. Williams-Young, 
 F. Ding, F. Lipparini, F. Egidi, J. Goings, B. Peng, A. Petrone, 
 T. Henderson, D. Ranasinghe, V. G. Zakrzewski, J. Gao, N. Rega, 
 G. Zheng, W. Liang, M. Hada, M. Ehara, K. Toyota, R. Fukuda, 
 J. Hasegawa, M. Ishida, T. Nakajima, Y. Honda, O. Kitao, H. Nakai, 
 T. Vreven, K. Throssell, J. A. Montgomery, Jr., J. E. Peralta, 
 F. Ogliaro, M. J. Bearpark, J. J. Heyd, E. N. Brothers, K. N. Kudin, 
 V. N. Staroverov, T. A. Keith, R. Kobayashi, J. Normand, 
 K. Raghavachari, A. P. Rendell, J. C. Burant, S. S. Iyengar, 
 J. Tomasi, M. Cossi, J. M. Millam, M. Klene, C. Adamo, R. Cammi, 
 J. W. Ochterski, R. L. Martin, K. Morokuma, O. Farkas, 
 J. B. Foresman, and D. J. Fox, Gaussian, Inc., Wallingford CT, 2019.
 
 ******************************************
 Gaussian 16:  ES64L-G16RevC.01  3-Jul-2019
                 3-Feb-2022 
 ******************************************
 %NProcShared=32
 Will use up to   32 processors via shared memory.
 %mem=16GB
 %chk=Ac1_clust-29.chk
 ----------------------------------------------------------------------
 # B3LYP/6-31G(d,p) empiricaldispersion=GD3BJ int=(grid=ultrafine) opt 
 freq=noraman
 ----------------------------------------------------------------------
 1/18=20,19=15,26=4,38=1/1,3;
 2/9=110,12=2,17=6,18=5,40=1/2;
 3/5=1,6=6,7=101,11=2,25=1,30=1,71=1,74=-5,75=-5,124=41/1,2,3;
 4//1;
 5/5=2,38=5/2;
 6/7=2,8=2,9=2,10=2,28=1/1;
 7//1,2,3,16;
 1/18=20,19=15,26=4/3(2);
 2/9=110/2;
 99//99;
 2/9=110/2;
 3/5=1,6=6,7=101,11=2,25=1,30=1,71=1,74=-5,75=-5,124=41/1,2,3;
 4/5=5,16=3,69=1/1;
 5/5=2,38=5/2;
 7//1,2,3,16;
 1/18=20,19=15,26=4/3(-5);
 2/9=110/2;
 6/7=2,8=2,9=2,10=2,19=2,28=1/1;
 99/9=1/99;
 -------
 Ac1.xyz
 -------
 Symbolic Z-matrix:
 Charge =  0 Multiplicity = 1
 O                     5.3537   -0.4149    0.817 
 C                     4.8739    0.0554   -0.3546 
 C                     3.3908   -0.2502   -0.5468 
 C                     3.034    -1.7567   -0.5975 
 C                     3.6287   -2.5071   -1.8098 
 C                     3.2797   -4.0109   -1.8533 
 C                     1.8056   -4.35     -2.1782 
 C                     1.4896   -4.5794   -3.6719 
 C                     1.6978   -3.3527   -4.5786 
 C                     1.1882   -3.5783   -6.0124 
 C                     1.4096   -2.3581   -6.9173 
 O                     5.5549    0.6729   -1.1599 
 H                     6.2762   -0.1587    0.8115 
 H                     3.054     0.2478   -1.4561 
 H                     2.8612    0.2322    0.2741 
 H                     3.3466   -2.2434    0.3292 
 H                     1.9473   -1.845    -0.6154 
 H                     3.3158   -2.0146   -2.7297 
 H                     4.7158   -2.4141   -1.7886 
 H                     3.9312   -4.5127   -2.5711 
 H                     3.54     -4.4492   -0.8881 
 H                     1.5477   -5.2686   -1.6482 
 H                     1.1317   -3.5962   -1.7712 
 H                     0.4508   -4.9048   -3.7518 
 H                     2.087    -5.4126   -4.0463 
 H                     1.1937   -2.4871   -4.1449 
 H                     2.7596   -3.1069   -4.6178 
 H                     1.6891   -4.4445   -6.4484 
 H                     0.1243   -3.821    -5.9916 
 H                     1.0394   -2.5469   -7.9255 
 H                     0.8886   -1.4798   -6.5341 
 H                     2.4686   -2.1095   -6.9965 
 

 GradGradGradGradGradGradGradGradGradGradGradGradGradGradGradGradGradGrad
 Berny optimization.
 Initialization pass.
                           ----------------------------
                           !    Initial Parameters    !
                           ! (Angstroms and Degrees)  !
 --------------------------                            --------------------------
 ! Name  Definition              Value          Derivative Info.                !
 --------------------------------------------------------------------------------
 ! R1    R(1,2)                  1.3506         estimate D2E/DX2                !
 ! R2    R(1,13)                 0.9574         estimate D2E/DX2                !
 ! R3    R(2,3)                  1.5264         estimate D2E/DX2                !
 ! R4    R(2,12)                 1.2221         estimate D2E/DX2                !
 ! R5    R(3,4)                  1.549          estimate D2E/DX2                !
 ! R6    R(3,14)                 1.0901         estimate D2E/DX2                !
 ! R7    R(3,15)                 1.0895         estimate D2E/DX2                !
 ! R8    R(4,5)                  1.5448         estimate D2E/DX2                !
 ! R9    R(4,16)                 1.0924         estimate D2E/DX2                !
 ! R10   R(4,17)                 1.0904         estimate D2E/DX2                !
 ! R11   R(5,6)                  1.5444         estimate D2E/DX2                !
 ! R12   R(5,18)                 1.0893         estimate D2E/DX2                !
 ! R13   R(5,19)                 1.0913         estimate D2E/DX2                !
 ! R14   R(6,7)                  1.5471         estimate D2E/DX2                !
 ! R15   R(6,20)                 1.0916         estimate D2E/DX2                !
 ! R16   R(6,21)                 1.0915         estimate D2E/DX2                !
 ! R17   R(7,8)                  1.5439         estimate D2E/DX2                !
 ! R18   R(7,22)                 1.0914         estimate D2E/DX2                !
 ! R19   R(7,23)                 1.09           estimate D2E/DX2                !
 ! R20   R(8,9)                  1.5396         estimate D2E/DX2                !
 ! R21   R(8,24)                 1.0915         estimate D2E/DX2                !
 ! R22   R(8,25)                 1.0915         estimate D2E/DX2                !
 ! R23   R(9,10)                 1.5383         estimate D2E/DX2                !
 ! R24   R(9,26)                 1.0915         estimate D2E/DX2                !
 ! R25   R(9,27)                 1.0906         estimate D2E/DX2                !
 ! R26   R(10,11)                1.5352         estimate D2E/DX2                !
 ! R27   R(10,28)                1.0915         estimate D2E/DX2                !
 ! R28   R(10,29)                1.0914         estimate D2E/DX2                !
 ! R29   R(11,30)                1.0905         estimate D2E/DX2                !
 ! R30   R(11,31)                1.0907         estimate D2E/DX2                !
 ! R31   R(11,32)                1.0907         estimate D2E/DX2                !
 ! A1    A(2,1,13)             104.1305         estimate D2E/DX2                !
 ! A2    A(1,2,3)              112.6246         estimate D2E/DX2                !
 ! A3    A(1,2,12)             123.34           estimate D2E/DX2                !
 ! A4    A(3,2,12)             124.0287         estimate D2E/DX2                !
 ! A5    A(2,3,4)              115.0015         estimate D2E/DX2                !
 ! A6    A(2,3,14)             108.2868         estimate D2E/DX2                !
 ! A7    A(2,3,15)             106.7847         estimate D2E/DX2                !
 ! A8    A(4,3,14)             110.2332         estimate D2E/DX2                !
 ! A9    A(4,3,15)             110.0786         estimate D2E/DX2                !
 ! A10   A(14,3,15)            106.0239         estimate D2E/DX2                !
 ! A11   A(3,4,5)              114.1695         estimate D2E/DX2                !
 ! A12   A(3,4,16)             109.8539         estimate D2E/DX2                !
 ! A13   A(3,4,17)             107.9897         estimate D2E/DX2                !
 ! A14   A(5,4,16)             109.8242         estimate D2E/DX2                !
 ! A15   A(5,4,17)             109.3558         estimate D2E/DX2                !
 ! A16   A(16,4,17)            105.2496         estimate D2E/DX2                !
 ! A17   A(4,5,6)              114.0856         estimate D2E/DX2                !
 ! A18   A(4,5,18)             109.4205         estimate D2E/DX2                !
 ! A19   A(4,5,19)             109.0777         estimate D2E/DX2                !
 ! A20   A(6,5,18)             110.581          estimate D2E/DX2                !
 ! A21   A(6,5,19)             107.9776         estimate D2E/DX2                !
 ! A22   A(18,5,19)            105.3083         estimate D2E/DX2                !
 ! A23   A(5,6,7)              115.7635         estimate D2E/DX2                !
 ! A24   A(5,6,20)             109.3463         estimate D2E/DX2                !
 ! A25   A(5,6,21)             108.1915         estimate D2E/DX2                !
 ! A26   A(7,6,20)             109.2586         estimate D2E/DX2                !
 ! A27   A(7,6,21)             108.9597         estimate D2E/DX2                !
 ! A28   A(20,6,21)            104.7471         estimate D2E/DX2                !
 ! A29   A(6,7,8)              115.5161         estimate D2E/DX2                !
 ! A30   A(6,7,22)             107.9171         estimate D2E/DX2                !
 ! A31   A(6,7,23)             111.0452         estimate D2E/DX2                !
 ! A32   A(8,7,22)             107.2409         estimate D2E/DX2                !
 ! A33   A(8,7,23)             109.7234         estimate D2E/DX2                !
 ! A34   A(22,7,23)            104.7526         estimate D2E/DX2                !
 ! A35   A(7,8,9)              115.0695         estimate D2E/DX2                !
 ! A36   A(7,8,24)             108.054          estimate D2E/DX2                !
 ! A37   A(7,8,25)             109.4676         estimate D2E/DX2                !
 ! A38   A(9,8,24)             108.8524         estimate D2E/DX2                !
 ! A39   A(9,8,25)             109.4031         estimate D2E/DX2                !
 ! A40   A(24,8,25)            105.5585         estimate D2E/DX2                !
 ! A41   A(8,9,10)             112.785          estimate D2E/DX2                !
 ! A42   A(8,9,26)             109.5969         estimate D2E/DX2                !
 ! A43   A(8,9,27)             109.4155         estimate D2E/DX2                !
 ! A44   A(10,9,26)            109.49           estimate D2E/DX2                !
 ! A45   A(10,9,27)            108.7889         estimate D2E/DX2                !
 ! A46   A(26,9,27)            106.5698         estimate D2E/DX2                !
 ! A47   A(9,10,11)            112.6475         estimate D2E/DX2                !
 ! A48   A(9,10,28)            109.6749         estimate D2E/DX2                !
 ! A49   A(9,10,29)            109.7409         estimate D2E/DX2                !
 ! A50   A(11,10,28)           109.2165         estimate D2E/DX2                !
 ! A51   A(11,10,29)           109.1814         estimate D2E/DX2                !
 ! A52   A(28,10,29)           106.1699         estimate D2E/DX2                !
 ! A53   A(10,11,30)           111.0017         estimate D2E/DX2                !
 ! A54   A(10,11,31)           111.3494         estimate D2E/DX2                !
 ! A55   A(10,11,32)           111.3462         estimate D2E/DX2                !
 ! A56   A(30,11,31)           107.582          estimate D2E/DX2                !
 ! A57   A(30,11,32)           107.5748         estimate D2E/DX2                !
 ! A58   A(31,11,32)           107.8041         estimate D2E/DX2                !
 ! D1    D(13,1,2,3)          -179.8954         estimate D2E/DX2                !
 ! D2    D(13,1,2,12)           -0.8057         estimate D2E/DX2                !
 ! D3    D(1,2,3,4)            -62.1323         estimate D2E/DX2                !
 ! D4    D(1,2,3,14)           174.0879         estimate D2E/DX2                !
 ! D5    D(1,2,3,15)            60.3012         estimate D2E/DX2                !
 ! D6    D(12,2,3,4)           118.7853         estimate D2E/DX2                !
 ! D7    D(12,2,3,14)           -4.9945         estimate D2E/DX2                !
 ! D8    D(12,2,3,15)         -118.7812         estimate D2E/DX2                !
 ! D9    D(2,3,4,5)            -64.879          estimate D2E/DX2                !
 ! D10   D(2,3,4,16)            58.9875         estimate D2E/DX2                !
 ! D11   D(2,3,4,17)           173.2723         estimate D2E/DX2                !
 ! D12   D(14,3,4,5)            57.8639         estimate D2E/DX2                !
 ! D13   D(14,3,4,16)         -178.2696         estimate D2E/DX2                !
 ! D14   D(14,3,4,17)          -63.9849         estimate D2E/DX2                !
 ! D15   D(15,3,4,5)           174.4765         estimate D2E/DX2                !
 ! D16   D(15,3,4,16)          -61.6571         estimate D2E/DX2                !
 ! D17   D(15,3,4,17)           52.6277         estimate D2E/DX2                !
 ! D18   D(3,4,5,6)            179.6077         estimate D2E/DX2                !
 ! D19   D(3,4,5,18)           -55.9285         estimate D2E/DX2                !
 ! D20   D(3,4,5,19)            58.7887         estimate D2E/DX2                !
 ! D21   D(16,4,5,6)            55.7253         estimate D2E/DX2                !
 ! D22   D(16,4,5,18)         -179.8109         estimate D2E/DX2                !
 ! D23   D(16,4,5,19)          -65.0937         estimate D2E/DX2                !
 ! D24   D(17,4,5,6)           -59.2978         estimate D2E/DX2                !
 ! D25   D(17,4,5,18)           65.166          estimate D2E/DX2                !
 ! D26   D(17,4,5,19)          179.8832         estimate D2E/DX2                !
 ! D27   D(4,5,6,7)             70.6137         estimate D2E/DX2                !
 ! D28   D(4,5,6,20)          -165.4956         estimate D2E/DX2                !
 ! D29   D(4,5,6,21)           -51.9575         estimate D2E/DX2                !
 ! D30   D(18,5,6,7)           -53.2274         estimate D2E/DX2                !
 ! D31   D(18,5,6,20)           70.6632         estimate D2E/DX2                !
 ! D32   D(18,5,6,21)         -175.7986         estimate D2E/DX2                !
 ! D33   D(19,5,6,7)          -167.9567         estimate D2E/DX2                !
 ! D34   D(19,5,6,20)          -44.066          estimate D2E/DX2                !
 ! D35   D(19,5,6,21)           69.4721         estimate D2E/DX2                !
 ! D36   D(5,6,7,8)             92.1823         estimate D2E/DX2                !
 ! D37   D(5,6,7,22)          -147.8514         estimate D2E/DX2                !
 ! D38   D(5,6,7,23)           -33.574          estimate D2E/DX2                !
 ! D39   D(20,6,7,8)           -31.754          estimate D2E/DX2                !
 ! D40   D(20,6,7,22)           88.2123         estimate D2E/DX2                !
 ! D41   D(20,6,7,23)         -157.5102         estimate D2E/DX2                !
 ! D42   D(21,6,7,8)          -145.6538         estimate D2E/DX2                !
 ! D43   D(21,6,7,22)          -25.6875         estimate D2E/DX2                !
 ! D44   D(21,6,7,23)           88.5899         estimate D2E/DX2                !
 ! D45   D(6,7,8,9)            -63.6883         estimate D2E/DX2                !
 ! D46   D(6,7,8,24)           174.4621         estimate D2E/DX2                !
 ! D47   D(6,7,8,25)            59.9781         estimate D2E/DX2                !
 ! D48   D(22,7,8,9)           175.9767         estimate D2E/DX2                !
 ! D49   D(22,7,8,24)           54.1271         estimate D2E/DX2                !
 ! D50   D(22,7,8,25)          -60.357          estimate D2E/DX2                !
 ! D51   D(23,7,8,9)            62.7418         estimate D2E/DX2                !
 ! D52   D(23,7,8,24)          -59.1079         estimate D2E/DX2                !
 ! D53   D(23,7,8,25)         -173.5919         estimate D2E/DX2                !
 ! D54   D(7,8,9,10)          -172.1389         estimate D2E/DX2                !
 ! D55   D(7,8,9,26)           -49.8844         estimate D2E/DX2                !
 ! D56   D(7,8,9,27)            66.6321         estimate D2E/DX2                !
 ! D57   D(24,8,9,10)          -50.7218         estimate D2E/DX2                !
 ! D58   D(24,8,9,26)           71.5327         estimate D2E/DX2                !
 ! D59   D(24,8,9,27)         -171.9508         estimate D2E/DX2                !
 ! D60   D(25,8,9,10)           64.1606         estimate D2E/DX2                !
 ! D61   D(25,8,9,26)         -173.5848         estimate D2E/DX2                !
 ! D62   D(25,8,9,27)          -57.0683         estimate D2E/DX2                !
 ! D63   D(8,9,10,11)         -179.4477         estimate D2E/DX2                !
 ! D64   D(8,9,10,28)          -57.5815         estimate D2E/DX2                !
 ! D65   D(8,9,10,29)           58.684          estimate D2E/DX2                !
 ! D66   D(26,9,10,11)          58.2377         estimate D2E/DX2                !
 ! D67   D(26,9,10,28)        -179.8962         estimate D2E/DX2                !
 ! D68   D(26,9,10,29)         -63.6306         estimate D2E/DX2                !
 ! D69   D(27,9,10,11)         -57.8634         estimate D2E/DX2                !
 ! D70   D(27,9,10,28)          64.0028         estimate D2E/DX2                !
 ! D71   D(27,9,10,29)        -179.7316         estimate D2E/DX2                !
 ! D72   D(9,10,11,30)         179.9922         estimate D2E/DX2                !
 ! D73   D(9,10,11,31)         -60.1756         estimate D2E/DX2                !
 ! D74   D(9,10,11,32)          60.1711         estimate D2E/DX2                !
 ! D75   D(28,10,11,30)         57.867          estimate D2E/DX2                !
 ! D76   D(28,10,11,31)        177.6992         estimate D2E/DX2                !
 ! D77   D(28,10,11,32)        -61.9541         estimate D2E/DX2                !
 ! D78   D(29,10,11,30)        -57.8235         estimate D2E/DX2                !
 ! D79   D(29,10,11,31)         62.0087         estimate D2E/DX2                !
 ! D80   D(29,10,11,32)       -177.6445         estimate D2E/DX2                !
 --------------------------------------------------------------------------------
 Trust Radius=3.00D-01 FncErr=1.00D-07 GrdErr=1.00D-06 EigMax=2.50D+02 EigMin=1.00D-04
 Number of steps in this run=    179 maximum allowed number of steps=    192.
 GradGradGradGradGradGradGradGradGradGradGradGradGradGradGradGradGradGrad

                          Input orientation:                          
 ---------------------------------------------------------------------
 Center     Atomic      Atomic             Coordinates (Angstroms)
 Number     Number       Type             X           Y           Z
 ---------------------------------------------------------------------
      1          8           0        5.353700   -0.414900    0.817000
      2          6           0        4.873900    0.055400   -0.354600
      3          6           0        3.390800   -0.250200   -0.546800
      4          6           0        3.034000   -1.756700   -0.597500
      5          6           0        3.628700   -2.507100   -1.809800
      6          6           0        3.279700   -4.010900   -1.853300
      7          6           0        1.805600   -4.350000   -2.178200
      8          6           0        1.489600   -4.579400   -3.671900
      9          6           0        1.697800   -3.352700   -4.578600
     10          6           0        1.188200   -3.578300   -6.012400
     11          6           0        1.409600   -2.358100   -6.917300
     12          8           0        5.554900    0.672900   -1.159900
     13          1           0        6.276200   -0.158700    0.811500
     14          1           0        3.054000    0.247800   -1.456100
     15          1           0        2.861200    0.232200    0.274100
     16          1           0        3.346600   -2.243400    0.329200
     17          1           0        1.947300   -1.845000   -0.615400
     18          1           0        3.315800   -2.014600   -2.729700
     19          1           0        4.715800   -2.414100   -1.788600
     20          1           0        3.931200   -4.512700   -2.571100
     21          1           0        3.540000   -4.449200   -0.888100
     22          1           0        1.547700   -5.268600   -1.648200
     23          1           0        1.131700   -3.596200   -1.771200
     24          1           0        0.450800   -4.904800   -3.751800
     25          1           0        2.087000   -5.412600   -4.046300
     26          1           0        1.193700   -2.487100   -4.144900
     27          1           0        2.759600   -3.106900   -4.617800
     28          1           0        1.689100   -4.444500   -6.448400
     29          1           0        0.124300   -3.821000   -5.991600
     30          1           0        1.039400   -2.546900   -7.925500
     31          1           0        0.888600   -1.479800   -6.534100
     32          1           0        2.468600   -2.109500   -6.996500
 ---------------------------------------------------------------------
                    Distance matrix (angstroms):
                    1          2          3          4          5
     1  O    0.000000
     2  C    1.350569   0.000000
     3  C    2.395841   1.526407   0.000000
     4  C    3.030222   2.593827   1.549006   0.000000
     5  C    3.775315   3.199146   2.597184   1.544811   0.000000
     6  C    4.935909   4.617615   3.982731   2.592069   1.544379
     7  C    6.086481   5.669879   4.688570   3.276093   2.618338
     8  C    7.240480   6.628675   5.667697   4.450252   3.512491
     9  C    7.149040   6.288476   5.361638   4.492416   3.479895
    10  C    8.602278   7.668042   6.767605   6.003861   4.976480
    11  C    8.896704   7.803550   6.996547   6.552879   5.570742
    12  O    2.265375   1.222119   2.431324   3.546010   3.774257
    13  H    0.957431   1.836321   3.190436   3.879529   4.404027
    14  H    3.300723   2.135967   1.090076   2.180737   2.836346
    15  H    2.631736   2.116006   1.089524   2.178364   3.526395
    16  H    2.758589   2.843362   2.177654   1.092414   2.173577
    17  H    3.962388   3.499218   2.152158   1.090428   2.166120
    18  H    4.392170   3.514780   2.807808   2.166149   1.089348
    19  H    3.345574   2.860032   2.824917   2.163179   1.091277
    20  H    5.504061   5.164213   4.749603   3.506508   2.166452
    21  H    4.740512   4.728143   4.215489   2.755003   2.151546
    22  H    6.642383   6.409523   5.458428   3.955566   3.461583
    23  H    5.885978   5.417102   4.218815   2.894836   2.724452
    24  H    8.066695   7.463804   6.370316   5.151026   4.429377
    25  H    7.700651   7.162017   6.371559   5.114356   3.977525
    26  H    6.798534   5.862982   4.772556   4.062540   3.373769
    27  H    6.596459   5.713605   5.013202   4.249841   2.999993
    28  H    9.080364   8.217448   7.437528   6.577694   5.388152
    29  H    9.236080   8.328322   7.284674   6.467148   5.612005
    30  H    9.979475   8.876592   8.077693   7.635603   6.641374
    31  H    8.666591   7.511703   6.604596   6.318436   5.557203
    32  H    8.499780   7.388308   6.775403   6.433611   5.329707
                    6          7          8          9         10
     6  C    0.000000
     7  C    1.547100   0.000000
     8  C    2.614375   1.543898   0.000000
     9  C    3.219145   2.601567   1.539560   0.000000
    10  C    4.675428   3.959519   2.563393   1.538301   0.000000
    11  C    5.645628   5.155924   3.933598   2.557695   1.535171
    12  O    5.253125   6.350095   7.100948   6.539892   7.790220
    13  H    5.560541   6.818472   7.909172   7.759933   9.173168
    14  H    4.283134   4.818682   5.537055   4.955087   6.235393
    15  H    4.764963   5.303265   6.372103   6.144404   7.539159
    16  H    2.809242   3.619323   4.991407   5.294864   6.830559
    17  H    2.828217   2.955917   4.126575   4.247630   5.719106
    18  H    2.180503   2.835304   3.286479   2.797654   4.212833
    19  H    2.148567   3.516925   4.317836   4.215850   5.624928
    20  H    1.091555   2.167722   2.679108   3.219275   4.498855
    21  H    1.091547   2.163872   3.459860   4.267998   5.705075
    22  H    2.150279   1.091439   2.138629   3.504347   4.693889
    23  H    2.189205   1.089956   2.169662   2.874240   4.241614
    24  H    3.522220   2.149303   1.091501   2.155834   2.722806
    25  H    2.862961   2.167511   1.091460   2.162870   2.835145
    26  H    3.453229   2.777180   2.165411   1.091547   2.162939
    27  H    2.954688   2.899493   2.162379   1.090584   2.153236
    28  H    4.881901   4.272834   2.786925   2.165238   1.091467
    29  H    5.207508   4.201027   2.796466   2.166051   1.091430
    30  H    6.635801   6.072042   4.735699   3.504931   2.178504
    31  H    5.833842   5.296490   4.261562   2.826047   2.183033
    32  H    5.543078   5.354944   4.255797   2.825937   2.182945
                   11         12         13         14         15
    11  C    0.000000
    12  O    7.714799   0.000000
    13  H    9.394440   2.257931   0.000000
    14  H    6.270524   2.554006   3.961038   0.000000
    15  H    7.780298   3.083276   3.479055   1.740979   0.000000
    16  H    7.501792   3.949533   3.627829   3.078797   2.523340
    17  H    6.345576   4.432954   4.859941   2.512245   2.437454
    18  H    4.613847   3.834123   4.974779   2.609416   3.778569
    19  H    6.102267   3.260203   3.779179   3.155606   3.833690
    20  H    5.467195   5.614119   5.991521   4.967400   5.635081
    21  H    6.727745   5.510863   5.365056   4.756115   4.871035
    22  H    6.021088   7.183141   7.383760   5.721583   5.973217
    23  H    5.300233   6.177670   6.704672   4.309392   4.672373
    24  H    4.174370   7.992529   8.791158   6.212582   6.957490
    25  H    4.246349   7.575681   8.291627   6.299552   7.150455
    26  H    2.783784   6.157588   7.471222   4.262633   5.450019
    27  H    2.769639   5.835894   7.108844   4.619202   5.923732
    28  H    2.156630   8.312667   9.597693   6.985964   8.272687
    29  H    2.156152   8.545869   9.876259   6.760846   7.948462
    30  H    1.090486   8.748154  10.462444   7.329536   8.847361
    31  H    1.090731   7.435758   9.204856   5.784431   7.292029
    32  H    1.090668   7.164698   8.903275   6.049429   7.648485
                   16         17         18         19         20
    16  H    0.000000
    17  H    1.734656   0.000000
    18  H    3.067600   2.524247   0.000000
    19  H    2.527632   3.060207   1.733571   0.000000
    20  H    3.728702   3.857103   2.577668   2.373189   0.000000
    21  H    2.526812   3.064786   3.060888   2.516950   1.729034
    22  H    4.037077   3.598249   3.858022   4.266701   2.665371
    23  H    3.338792   2.251173   2.861900   3.774048   3.052378
    24  H    5.667739   4.630215   4.195971   5.314882   3.696076
    25  H    5.547560   4.951602   3.845749   4.582445   2.527273
    26  H    4.971110   3.665730   2.594100   4.238239   3.751507
    27  H    5.055988   4.274509   2.251088   3.508712   2.745524
    28  H    7.316284   6.391241   4.730676   5.915841   4.479411
    29  H    7.268050   6.010943   4.908029   6.381728   5.164374
    30  H    8.576442   7.399629   5.697515   7.155075   6.395035
    31  H    7.330057   6.023722   4.544312   6.167669   5.844764
    32  H    7.379342   6.407820   4.351130   5.680221   5.243924
                   21         22         23         24         25
    21  H    0.000000
    22  H    2.284388   0.000000
    23  H    2.703217   1.727746   0.000000
    24  H    4.236922   2.400140   2.469582   0.000000
    25  H    3.607433   2.462207   3.063982   1.738316   0.000000
    26  H    4.467853   3.754407   2.620763   2.559629   3.060434
    27  H    4.039982   3.867838   3.315510   3.051714   2.468857
    28  H    5.860272   4.872479   4.786074   3.002818   2.620234
    29  H    6.173115   4.794449   4.344786   2.509567   3.188977
    30  H    7.706928   6.860796   6.243794   4.829691   4.935372
    31  H    6.908297   6.217832   5.217611   4.434353   4.805437
    32  H    6.628321   6.279513   5.594760   4.734268   4.445196
                   26         27         28         29         30
    26  H    0.000000
    27  H    1.749237   0.000000
    28  H    3.063160   2.507238   0.000000
    29  H    2.516586   3.056480   1.745284   0.000000
    30  H    3.784220   3.770089   2.490948   2.490122   0.000000
    31  H    2.610750   3.133736   3.072066   2.521840   1.759954
    32  H    3.146359   2.595708   2.521955   3.071612   1.759822
                   31         32
    31  H    0.000000
    32  H    1.762594   0.000000
 Stoichiometry    C10H20O2
 Framework group  C1[X(C10H20O2)]
 Deg. of freedom    90
 Full point group                 C1      NOp   1
 Largest Abelian subgroup         C1      NOp   1
 Largest concise Abelian subgroup C1      NOp   1
                         Standard orientation:                         
 ---------------------------------------------------------------------
 Center     Atomic      Atomic             Coordinates (Angstroms)
 Number     Number       Type             X           Y           Z
 ---------------------------------------------------------------------
      1          8           0        4.401880   -0.181298   -0.269069
      2          6           0        3.526498    0.813450   -0.007881
      3          6           0        2.523871    0.442315    1.081576
      4          6           0        1.604960   -0.758180    0.744188
      5          6           0        0.644448   -0.506494   -0.439244
      6          6           0       -0.264108   -1.707939   -0.780071
      7          6           0       -1.376099   -2.023173    0.248336
      8          6           0       -2.739352   -1.349498   -0.018729
      9          6           0       -2.730637    0.188687    0.045724
     10          6           0       -4.141474    0.796370   -0.035697
     11          6           0       -4.128108    2.330637    0.015238
     12          8           0        3.551901    1.896344   -0.573806
     13          1           0        4.964335    0.176732   -0.956188
     14          1           0        1.924262    1.323736    1.309239
     15          1           0        3.100820    0.230491    1.981200
     16          1           0        2.211032   -1.645444    0.547188
     17          1           0        1.024877   -0.999199    1.635506
     18          1           0        0.045980    0.381106   -0.237550
     19          1           0        1.229372   -0.263754   -1.327966
     20          1           0       -0.715160   -1.553127   -1.761946
     21          1           0        0.367879   -2.589731   -0.900530
     22          1           0       -1.541888   -3.101935    0.243526
     23          1           0       -1.046683   -1.797507    1.262518
     24          1           0       -3.453631   -1.729172    0.714093
     25          1           0       -3.119053   -1.669541   -0.990678
     26          1           0       -2.246814    0.513707    0.968629
     27          1           0       -2.130613    0.582545   -0.775386
     28          1           0       -4.628823    0.471738   -0.956785
     29          1           0       -4.754636    0.415719    0.783057
     30          1           0       -5.140095    2.732489   -0.044413
     31          1           0       -3.683754    2.693286    0.942993
     32          1           0       -3.557645    2.750442   -0.814154
 ---------------------------------------------------------------------
 Rotational constants (GHZ):           1.3477665           0.3111777           0.2691466
 Standard basis: 6-31G(d,p) (6D, 7F)
 There are   280 symmetry adapted cartesian basis functions of A   symmetry.
 There are   280 symmetry adapted basis functions of A   symmetry.
   280 basis functions,   476 primitive gaussians,   280 cartesian basis functions
    48 alpha electrons       48 beta electrons
       nuclear repulsion energy       707.6133013017 Hartrees.
 NAtoms=   32 NActive=   32 NUniq=   32 SFac= 1.00D+00 NAtFMM=   60 NAOKFM=F Big=F
 Integral buffers will be    131072 words long.
 Raffenetti 2 integral format.
 Two-electron integral symmetry is turned on.
 Nuclear repulsion after empirical dispersion term =      707.5657224930 Hartrees.
 One-electron integrals computed using PRISM.
 NBasis=   280 RedAO= T EigKep=  3.25D-03  NBF=   280
 NBsUse=   280 1.00D-06 EigRej= -1.00D+00 NBFU=   280
 ExpMin= 1.61D-01 ExpMax= 5.48D+03 ExpMxC= 8.25D+02 IAcc=3 IRadAn=         5 AccDes= 0.00D+00
 Harris functional with IExCor=  402 and IRadAn=       5 diagonalized for initial guess.
 HarFok:  IExCor=  402 AccDes= 0.00D+00 IRadAn=         5 IDoV= 1 UseB2=F ITyADJ=14
 ICtDFT=  3500011 ScaDFX=  1.000000  1.000000  1.000000  1.000000
 FoFCou: FMM=F IPFlag=           0 FMFlag=      100000 FMFlg1=           0
         NFxFlg=           0 DoJE=T BraDBF=F KetDBF=T FulRan=T
         wScrn=  0.000000 ICntrl=       500 IOpCl=  0 I1Cent=   200000004 NGrid=           0
         NMat0=    1 NMatS0=      1 NMatT0=    0 NMatD0=    1 NMtDS0=    0 NMtDT0=    0
 Petite list used in FoFCou.
 Requested convergence on RMS density matrix=1.00D-08 within 128 cycles.
 Requested convergence on MAX density matrix=1.00D-06.
 Requested convergence on             energy=1.00D-06.
 No special actions if energy rises.
 Integral accuracy reduced to 1.0D-05 until final iterations.
 Initial convergence to 1.0D-05 achieved.  Increase integral accuracy.
 SCF Done:  E(RB3LYP) =  -543.661760846     A.U. after   13 cycles
            NFock= 13  Conv=0.79D-08     -V/T= 2.0096

 **********************************************************************

            Population analysis using the SCF Density.

 **********************************************************************

 Orbital symmetries:
       Occupied  (A) (A) (A) (A) (A) (A) (A) (A) (A) (A) (A) (A)
                 (A) (A) (A) (A) (A) (A) (A) (A) (A) (A) (A) (A)
                 (A) (A) (A) (A) (A) (A) (A) (A) (A) (A) (A) (A)
                 (A) (A) (A) (A) (A) (A) (A) (A) (A) (A) (A) (A)
       Virtual   (A) (A) (A) (A) (A) (A) (A) (A) (A) (A) (A) (A)
                 (A) (A) (A) (A) (A) (A) (A) (A) (A) (A) (A) (A)
                 (A) (A) (A) (A) (A) (A) (A) (A) (A) (A) (A) (A)
                 (A) (A) (A) (A) (A) (A) (A) (A) (A) (A) (A) (A)
                 (A) (A) (A) (A) (A) (A) (A) (A) (A) (A) (A) (A)
                 (A) (A) (A) (A) (A) (A) (A) (A) (A) (A) (A) (A)
                 (A) (A) (A) (A) (A) (A) (A) (A) (A) (A) (A) (A)
                 (A) (A) (A) (A) (A) (A) (A) (A) (A) (A) (A) (A)
                 (A) (A) (A) (A) (A) (A) (A) (A) (A) (A) (A) (A)
                 (A) (A) (A) (A) (A) (A) (A) (A) (A) (A) (A) (A)
                 (A) (A) (A) (A) (A) (A) (A) (A) (A) (A) (A) (A)
                 (A) (A) (A) (A) (A) (A) (A) (A) (A) (A) (A) (A)
                 (A) (A) (A) (A) (A) (A) (A) (A) (A) (A) (A) (A)
                 (A) (A) (A) (A) (A) (A) (A) (A) (A) (A) (A) (A)
                 (A) (A) (A) (A) (A) (A) (A) (A) (A) (A) (A) (A)
                 (A) (A) (A) (A) (A) (A) (A) (A) (A) (A) (A) (A)
                 (A) (A) (A) (A) (A) (A) (A) (A) (A) (A) (A) (A)
                 (A) (A) (A) (A) (A) (A) (A) (A) (A) (A) (A) (A)
                 (A) (A) (A) (A) (A) (A) (A) (A) (A) (A) (A) (A)
                 (A) (A) (A) (A)
 The electronic state is 1-A.
 Alpha  occ. eigenvalues --  -19.19866 -19.13560 -10.31936 -10.19886 -10.19041
 Alpha  occ. eigenvalues --  -10.17965 -10.17872 -10.17685 -10.17610 -10.17551
 Alpha  occ. eigenvalues --  -10.17410 -10.16897  -1.10693  -1.00966  -0.81241
 Alpha  occ. eigenvalues --   -0.79450  -0.76633  -0.72868  -0.68535  -0.64860
 Alpha  occ. eigenvalues --   -0.61127  -0.59346  -0.57568  -0.55985  -0.48449
 Alpha  occ. eigenvalues --   -0.48246  -0.47203  -0.45972  -0.45155  -0.43939
 Alpha  occ. eigenvalues --   -0.43326  -0.41365  -0.40835  -0.39703  -0.39212
 Alpha  occ. eigenvalues --   -0.38469  -0.37313  -0.36547  -0.34896  -0.34411
 Alpha  occ. eigenvalues --   -0.33441  -0.33195  -0.32396  -0.31793  -0.31340
 Alpha  occ. eigenvalues --   -0.30569  -0.29952  -0.26763
 Alpha virt. eigenvalues --    0.00840   0.07627   0.08936   0.10189   0.10606
 Alpha virt. eigenvalues --    0.11994   0.12602   0.13408   0.14008   0.15072
 Alpha virt. eigenvalues --    0.15426   0.16041   0.16481   0.17621   0.18369
 Alpha virt. eigenvalues --    0.18868   0.19691   0.19967   0.20553   0.21246
 Alpha virt. eigenvalues --    0.21343   0.22807   0.22842   0.23945   0.25475
 Alpha virt. eigenvalues --    0.25791   0.26778   0.27825   0.28683   0.30678
 Alpha virt. eigenvalues --    0.31700   0.36098   0.48979   0.49273   0.50601
 Alpha virt. eigenvalues --    0.50958   0.52547   0.53148   0.54305   0.54762
 Alpha virt. eigenvalues --    0.56344   0.57079   0.60123   0.60821   0.62686
 Alpha virt. eigenvalues --    0.63153   0.64930   0.65657   0.65867   0.66605
 Alpha virt. eigenvalues --    0.68939   0.69705   0.70970   0.72211   0.73435
 Alpha virt. eigenvalues --    0.75823   0.76787   0.77502   0.79422   0.81779
 Alpha virt. eigenvalues --    0.82817   0.84470   0.85116   0.85960   0.87076
 Alpha virt. eigenvalues --    0.87304   0.87813   0.88348   0.89675   0.91008
 Alpha virt. eigenvalues --    0.91210   0.91642   0.92301   0.92921   0.93437
 Alpha virt. eigenvalues --    0.94440   0.94996   0.96201   0.96680   0.97040
 Alpha virt. eigenvalues --    0.98295   0.99755   1.01836   1.02688   1.04755
 Alpha virt. eigenvalues --    1.06136   1.08001   1.09060   1.11158   1.12945
 Alpha virt. eigenvalues --    1.19823   1.26934   1.29385   1.31961   1.34954
 Alpha virt. eigenvalues --    1.37278   1.38196   1.41622   1.44517   1.46223
 Alpha virt. eigenvalues --    1.47639   1.50528   1.53152   1.56034   1.58435
 Alpha virt. eigenvalues --    1.60369   1.62485   1.64004   1.65491   1.68697
 Alpha virt. eigenvalues --    1.69333   1.69639   1.70219   1.73391   1.75401
 Alpha virt. eigenvalues --    1.77761   1.78297   1.81002   1.81396   1.82549
 Alpha virt. eigenvalues --    1.84643   1.84768   1.86215   1.87214   1.88359
 Alpha virt. eigenvalues --    1.90128   1.91213   1.92296   1.93672   1.97844
 Alpha virt. eigenvalues --    1.98964   1.99907   2.04979   2.05691   2.07821
 Alpha virt. eigenvalues --    2.08513   2.10224   2.11683   2.13376   2.13546
 Alpha virt. eigenvalues --    2.15002   2.16416   2.17144   2.18195   2.21531
 Alpha virt. eigenvalues --    2.23096   2.24368   2.24948   2.26900   2.27562
 Alpha virt. eigenvalues --    2.27909   2.28600   2.30067   2.31585   2.32217
 Alpha virt. eigenvalues --    2.33259   2.35690   2.36724   2.39983   2.42073
 Alpha virt. eigenvalues --    2.43285   2.44156   2.46186   2.47006   2.48974
 Alpha virt. eigenvalues --    2.51748   2.53283   2.54548   2.56159   2.57621
 Alpha virt. eigenvalues --    2.60624   2.62133   2.62756   2.63077   2.67540
 Alpha virt. eigenvalues --    2.69633   2.70055   2.71662   2.72950   2.74283
 Alpha virt. eigenvalues --    2.77244   2.78157   2.78639   2.80220   2.81749
 Alpha virt. eigenvalues --    2.83915   2.85943   2.87407   2.88699   2.89687
 Alpha virt. eigenvalues --    2.90044   2.91153   2.91682   2.92642   2.93314
 Alpha virt. eigenvalues --    2.93650   2.95469   2.96954   3.02451   3.11361
 Alpha virt. eigenvalues --    3.19635   3.25453   3.27890   3.30893   3.31684
 Alpha virt. eigenvalues --    3.32780   3.34817   3.36037   3.37102   3.38155
 Alpha virt. eigenvalues --    3.41458   3.44548   3.46164   3.48836   3.49165
 Alpha virt. eigenvalues --    3.52072   3.55662   3.58099   3.59794   3.60914
 Alpha virt. eigenvalues --    3.91804   4.13988   4.24272   4.28393   4.34984
 Alpha virt. eigenvalues --    4.41614   4.50807   4.58964   4.65496   4.66860
 Alpha virt. eigenvalues --    4.71519   4.78415
          Condensed to atoms (all electrons):
               1          2          3          4          5          6
     1  O    8.122410   0.245059  -0.099591   0.003646  -0.000753  -0.000008
     2  C    0.245059   4.382441   0.348048  -0.030194  -0.001073   0.000108
     3  C   -0.099591   0.348048   5.096422   0.338838  -0.043707   0.003598
     4  C    0.003646  -0.030194   0.338838   4.915549   0.377289  -0.035620
     5  C   -0.000753  -0.001073  -0.043707   0.377289   4.914780   0.373700
     6  C   -0.000008   0.000108   0.003598  -0.035620   0.373700   4.910721
     7  C   -0.000000  -0.000001   0.000121  -0.006476  -0.037260   0.369352
     8  C    0.000000   0.000000  -0.000004   0.000047  -0.001168  -0.038228
     9  C   -0.000000   0.000000  -0.000000   0.000077  -0.000952  -0.002805
    10  C   -0.000000  -0.000000   0.000000  -0.000003   0.000100  -0.000006
    11  C    0.000000   0.000000  -0.000000   0.000000   0.000002   0.000003
    12  O   -0.083542   0.570336  -0.072656  -0.000070   0.000858   0.000006
    13  H    0.268440  -0.009358   0.010826  -0.000299  -0.000064   0.000000
    14  H    0.003360  -0.032701   0.376731  -0.031902  -0.005828   0.000075
    15  H    0.001874  -0.026199   0.354915  -0.023039   0.004567  -0.000118
    16  H    0.005151  -0.008603  -0.034666   0.382390  -0.039058  -0.003795
    17  H    0.000014   0.003630  -0.029985   0.379460  -0.042950  -0.003246
    18  H    0.000022  -0.000855  -0.002427  -0.040224   0.383677  -0.040178
    19  H    0.000254   0.006227  -0.005717  -0.039559   0.377347  -0.032214
    20  H    0.000000  -0.000006  -0.000153   0.004286  -0.032476   0.379785
    21  H   -0.000003  -0.000011   0.000151  -0.008148  -0.040889   0.379132
    22  H    0.000000   0.000000   0.000002   0.000324   0.004379  -0.034019
    23  H   -0.000000  -0.000002  -0.000202   0.000385  -0.007952  -0.044498
    24  H    0.000000  -0.000000  -0.000000   0.000004  -0.000126   0.004959
    25  H   -0.000000  -0.000000   0.000000  -0.000003  -0.000147  -0.007325
    26  H    0.000000   0.000000  -0.000007   0.000014  -0.000414  -0.001322
    27  H   -0.000000   0.000000  -0.000003   0.000047  -0.002888   0.004117
    28  H   -0.000000   0.000000  -0.000000   0.000000  -0.000002  -0.000009
    29  H    0.000000   0.000000   0.000000   0.000000  -0.000004   0.000006
    30  H   -0.000000  -0.000000   0.000000  -0.000000  -0.000000  -0.000000
    31  H   -0.000000   0.000000  -0.000000   0.000000  -0.000001   0.000000
    32  H    0.000000   0.000000   0.000000   0.000000  -0.000003  -0.000001
               7          8          9         10         11         12
     1  O   -0.000000   0.000000  -0.000000  -0.000000   0.000000  -0.083542
     2  C   -0.000001   0.000000   0.000000  -0.000000   0.000000   0.570336
     3  C    0.000121  -0.000004  -0.000000   0.000000  -0.000000  -0.072656
     4  C   -0.006476   0.000047   0.000077  -0.000003   0.000000  -0.000070
     5  C   -0.037260  -0.001168  -0.000952   0.000100   0.000002   0.000858
     6  C    0.369352  -0.038228  -0.002805  -0.000006   0.000003   0.000006
     7  C    4.920705   0.372753  -0.040645   0.003728  -0.000142  -0.000000
     8  C    0.372753   4.896105   0.375943  -0.033495   0.003686  -0.000000
     9  C   -0.040645   0.375943   4.890558   0.380195  -0.042650   0.000000
    10  C    0.003728  -0.033495   0.380195   4.875043   0.367446   0.000000
    11  C   -0.000142   0.003686  -0.042650   0.367446   4.921198  -0.000000
    12  O   -0.000000  -0.000000   0.000000   0.000000  -0.000000   8.039901
    13  H    0.000000   0.000000   0.000000   0.000000  -0.000000   0.011427
    14  H    0.000000  -0.000000  -0.000006   0.000000  -0.000000   0.001630
    15  H   -0.000001   0.000000  -0.000000  -0.000000  -0.000000   0.002085
    16  H   -0.000295   0.000005  -0.000003   0.000000  -0.000000   0.000009
    17  H    0.002085   0.000035  -0.000030  -0.000001   0.000000  -0.000084
    18  H   -0.005362   0.000316   0.001470  -0.000013  -0.000008   0.000019
    19  H    0.004551  -0.000005  -0.000071  -0.000002  -0.000000   0.000051
    20  H   -0.043855  -0.007501  -0.000887  -0.000074   0.000001   0.000000
    21  H   -0.034084   0.003986   0.000031   0.000001  -0.000000   0.000000
    22  H    0.372483  -0.032658   0.004915  -0.000140   0.000002   0.000000
    23  H    0.383640  -0.036853  -0.007053   0.000032  -0.000002   0.000000
    24  H   -0.034532   0.379339  -0.042170  -0.005879   0.000119  -0.000000
    25  H   -0.036890   0.380711  -0.038889  -0.003580  -0.000010   0.000000
    26  H   -0.003061  -0.041298   0.384514  -0.040491  -0.003178  -0.000000
    27  H   -0.003846  -0.036109   0.384596  -0.039660  -0.003069  -0.000000
    28  H    0.000060  -0.003369  -0.038530   0.385453  -0.038511  -0.000000
    29  H   -0.000013  -0.004358  -0.038481   0.385264  -0.038562  -0.000000
    30  H    0.000002  -0.000149   0.004146  -0.026853   0.378340   0.000000
    31  H    0.000002   0.000058  -0.004905  -0.034676   0.387386  -0.000000
    32  H    0.000001   0.000050  -0.004880  -0.034632   0.387666   0.000000
              13         14         15         16         17         18
     1  O    0.268440   0.003360   0.001874   0.005151   0.000014   0.000022
     2  C   -0.009358  -0.032701  -0.026199  -0.008603   0.003630  -0.000855
     3  C    0.010826   0.376731   0.354915  -0.034666  -0.029985  -0.002427
     4  C   -0.000299  -0.031902  -0.023039   0.382390   0.379460  -0.040224
     5  C   -0.000064  -0.005828   0.004567  -0.039058  -0.042950   0.383677
     6  C    0.000000   0.000075  -0.000118  -0.003795  -0.003246  -0.040178
     7  C    0.000000   0.000000  -0.000001  -0.000295   0.002085  -0.005362
     8  C    0.000000  -0.000000   0.000000   0.000005   0.000035   0.000316
     9  C    0.000000  -0.000006  -0.000000  -0.000003  -0.000030   0.001470
    10  C    0.000000   0.000000  -0.000000   0.000000  -0.000001  -0.000013
    11  C   -0.000000  -0.000000  -0.000000  -0.000000   0.000000  -0.000008
    12  O    0.011427   0.001630   0.002085   0.000009  -0.000084   0.000019
    13  H    0.401197  -0.000323  -0.000489  -0.000196   0.000016  -0.000000
    14  H   -0.000323   0.587167  -0.032529   0.005184  -0.003604   0.004692
    15  H   -0.000489  -0.032529   0.603007  -0.002738  -0.005729  -0.000012
    16  H   -0.000196   0.005184  -0.002738   0.616531  -0.037767   0.005729
    17  H    0.000016  -0.003604  -0.005729  -0.037767   0.632235  -0.005518
    18  H   -0.000000   0.004692  -0.000012   0.005729  -0.005518   0.626524
    19  H    0.000059  -0.000303   0.000020  -0.005282   0.006137  -0.038864
    20  H   -0.000000   0.000000   0.000002   0.000031  -0.000039  -0.001963
    21  H    0.000000   0.000009  -0.000000   0.005827  -0.000283   0.006022
    22  H    0.000000  -0.000000  -0.000000  -0.000046  -0.000298   0.000000
    23  H    0.000000   0.000008   0.000013   0.000187   0.004756   0.000659
    24  H   -0.000000  -0.000000   0.000000  -0.000000   0.000007  -0.000064
    25  H   -0.000000   0.000000   0.000000   0.000001   0.000002   0.000118
    26  H   -0.000000   0.000019  -0.000000   0.000001   0.000121   0.001954
    27  H    0.000000  -0.000006   0.000000  -0.000001   0.000017   0.002613
    28  H   -0.000000   0.000000  -0.000000   0.000000   0.000000   0.000006
    29  H   -0.000000  -0.000000   0.000000  -0.000000   0.000000   0.000003
    30  H    0.000000   0.000000  -0.000000   0.000000  -0.000000   0.000000
    31  H    0.000000   0.000000  -0.000000  -0.000000   0.000000   0.000004
    32  H   -0.000000  -0.000000   0.000000  -0.000000   0.000000   0.000007
              19         20         21         22         23         24
     1  O    0.000254   0.000000  -0.000003   0.000000  -0.000000   0.000000
     2  C    0.006227  -0.000006  -0.000011   0.000000  -0.000002  -0.000000
     3  C   -0.005717  -0.000153   0.000151   0.000002  -0.000202  -0.000000
     4  C   -0.039559   0.004286  -0.008148   0.000324   0.000385   0.000004
     5  C    0.377347  -0.032476  -0.040889   0.004379  -0.007952  -0.000126
     6  C   -0.032214   0.379785   0.379132  -0.034019  -0.044498   0.004959
     7  C    0.004551  -0.043855  -0.034084   0.372483   0.383640  -0.034532
     8  C   -0.000005  -0.007501   0.003986  -0.032658  -0.036853   0.379339
     9  C   -0.000071  -0.000887   0.000031   0.004915  -0.007053  -0.042170
    10  C   -0.000002  -0.000074   0.000001  -0.000140   0.000032  -0.005879
    11  C   -0.000000   0.000001  -0.000000   0.000002  -0.000002   0.000119
    12  O    0.000051   0.000000   0.000000   0.000000   0.000000  -0.000000
    13  H    0.000059  -0.000000   0.000000   0.000000   0.000000  -0.000000
    14  H   -0.000303   0.000000   0.000009  -0.000000   0.000008  -0.000000
    15  H    0.000020   0.000002  -0.000000  -0.000000   0.000013   0.000000
    16  H   -0.005282   0.000031   0.005827  -0.000046   0.000187  -0.000000
    17  H    0.006137  -0.000039  -0.000283  -0.000298   0.004756   0.000007
    18  H   -0.038864  -0.001963   0.006022   0.000000   0.000659  -0.000064
    19  H    0.637889  -0.005186  -0.002542  -0.000199   0.000174   0.000004
    20  H   -0.005186   0.642052  -0.038947   0.001134   0.005495   0.000196
    21  H   -0.002542  -0.038947   0.648321  -0.009860   0.001266  -0.000220
    22  H   -0.000199   0.001134  -0.009860   0.653131  -0.039517  -0.004085
    23  H    0.000174   0.005495   0.001266  -0.039517   0.642538  -0.004003
    24  H    0.000004   0.000196  -0.000220  -0.004085  -0.004003   0.653097
    25  H    0.000002   0.005098   0.000114  -0.004160   0.005884  -0.040679
    26  H    0.000015   0.000173  -0.000012   0.000026   0.005078  -0.004606
    27  H    0.000252   0.001059  -0.000059  -0.000074  -0.000251   0.006252
    28  H    0.000000   0.000003  -0.000000   0.000004   0.000006  -0.000560
    29  H    0.000000   0.000001   0.000000  -0.000005   0.000001   0.005938
    30  H    0.000000  -0.000000   0.000000  -0.000000   0.000000   0.000000
    31  H    0.000000  -0.000000  -0.000000   0.000000  -0.000001   0.000001
    32  H    0.000000   0.000000   0.000000  -0.000000   0.000000   0.000010
              25         26         27         28         29         30
     1  O   -0.000000   0.000000  -0.000000  -0.000000   0.000000  -0.000000
     2  C   -0.000000   0.000000   0.000000   0.000000   0.000000  -0.000000
     3  C    0.000000  -0.000007  -0.000003  -0.000000   0.000000   0.000000
     4  C   -0.000003   0.000014   0.000047   0.000000   0.000000  -0.000000
     5  C   -0.000147  -0.000414  -0.002888  -0.000002  -0.000004  -0.000000
     6  C   -0.007325  -0.001322   0.004117  -0.000009   0.000006  -0.000000
     7  C   -0.036890  -0.003061  -0.003846   0.000060  -0.000013   0.000002
     8  C    0.380711  -0.041298  -0.036109  -0.003369  -0.004358  -0.000149
     9  C   -0.038889   0.384514   0.384596  -0.038530  -0.038481   0.004146
    10  C   -0.003580  -0.040491  -0.039660   0.385453   0.385264  -0.026853
    11  C   -0.000010  -0.003178  -0.003069  -0.038511  -0.038562   0.378340
    12  O    0.000000  -0.000000  -0.000000  -0.000000  -0.000000   0.000000
    13  H   -0.000000  -0.000000   0.000000  -0.000000  -0.000000   0.000000
    14  H    0.000000   0.000019  -0.000006   0.000000  -0.000000   0.000000
    15  H    0.000000  -0.000000   0.000000  -0.000000   0.000000  -0.000000
    16  H    0.000001   0.000001  -0.000001   0.000000  -0.000000   0.000000
    17  H    0.000002   0.000121   0.000017   0.000000   0.000000  -0.000000
    18  H    0.000118   0.001954   0.002613   0.000006   0.000003   0.000000
    19  H    0.000002   0.000015   0.000252   0.000000   0.000000   0.000000
    20  H    0.005098   0.000173   0.001059   0.000003   0.000001  -0.000000
    21  H    0.000114  -0.000012  -0.000059  -0.000000   0.000000   0.000000
    22  H   -0.004160   0.000026  -0.000074   0.000004  -0.000005  -0.000000
    23  H    0.005884   0.005078  -0.000251   0.000006   0.000001   0.000000
    24  H   -0.040679  -0.004606   0.006252  -0.000560   0.005938   0.000000
    25  H    0.647095   0.006244  -0.007533   0.004576  -0.000494   0.000003
    26  H    0.006244   0.649967  -0.044526   0.006141  -0.006107  -0.000018
    27  H   -0.007533  -0.044526   0.637501  -0.006329   0.006042  -0.000016
    28  H    0.004576   0.006141  -0.006329   0.641988  -0.041002  -0.003102
    29  H   -0.000494  -0.006107   0.006042  -0.041002   0.642301  -0.003069
    30  H    0.000003  -0.000018  -0.000016  -0.003102  -0.003069   0.616639
    31  H    0.000005   0.004765  -0.000521   0.005495  -0.004974  -0.032575
    32  H    0.000002  -0.000479   0.004899  -0.004991   0.005488  -0.032358
              31         32
     1  O   -0.000000   0.000000
     2  C    0.000000   0.000000
     3  C   -0.000000   0.000000
     4  C    0.000000   0.000000
     5  C   -0.000001  -0.000003
     6  C    0.000000  -0.000001
     7  C    0.000002   0.000001
     8  C    0.000058   0.000050
     9  C   -0.004905  -0.004880
    10  C   -0.034676  -0.034632
    11  C    0.387386   0.387666
    12  O   -0.000000   0.000000
    13  H    0.000000  -0.000000
    14  H    0.000000  -0.000000
    15  H   -0.000000   0.000000
    16  H   -0.000000  -0.000000
    17  H    0.000000   0.000000
    18  H    0.000004   0.000007
    19  H    0.000000   0.000000
    20  H   -0.000000   0.000000
    21  H   -0.000000   0.000000
    22  H    0.000000  -0.000000
    23  H   -0.000001   0.000000
    24  H    0.000001   0.000010
    25  H    0.000005   0.000002
    26  H    0.004765  -0.000479
    27  H   -0.000521   0.004899
    28  H    0.005495  -0.004991
    29  H   -0.004974   0.005488
    30  H   -0.032575  -0.032358
    31  H    0.611580  -0.033652
    32  H   -0.033652   0.609280
 Mulliken charges:
               1
     1  O   -0.466331
     2  C    0.553153
     3  C   -0.240535
     4  C   -0.186823
     5  C   -0.178988
     6  C   -0.182169
     7  C   -0.183019
     8  C   -0.177839
     9  C   -0.163489
    10  C   -0.177758
    11  C   -0.319718
    12  O   -0.469970
    13  H    0.318763
    14  H    0.128324
    15  H    0.124370
    16  H    0.111406
    17  H    0.101018
    18  H    0.101655
    19  H    0.096962
    20  H    0.091772
    21  H    0.090198
    22  H    0.088664
    23  H    0.090211
    24  H    0.086998
    25  H    0.089857
    26  H    0.086487
    27  H    0.097493
    28  H    0.092673
    29  H    0.092024
    30  H    0.099010
    31  H    0.102008
    32  H    0.103593
 Sum of Mulliken charges =  -0.00000
 Mulliken charges with hydrogens summed into heavy atoms:
               1
     1  O   -0.147568
     2  C    0.553153
     3  C    0.012159
     4  C    0.025601
     5  C    0.019628
     6  C   -0.000200
     7  C   -0.004144
     8  C   -0.000984
     9  C    0.020491
    10  C    0.006939
    11  C   -0.015107
    12  O   -0.469970
 Electronic spatial extent (au):  <R**2>=           4092.3071
 Charge=             -0.0000 electrons
 Dipole moment (field-independent basis, Debye):
    X=             -0.2182    Y=             -1.6832    Z=              0.5102  Tot=              1.7723
 Quadrupole moment (field-independent basis, Debye-Ang):
   XX=            -72.9019   YY=            -82.7332   ZZ=            -73.6573
   XY=             -4.7219   XZ=             -0.3329   YZ=              2.3237
 Traceless Quadrupole moment (field-independent basis, Debye-Ang):
   XX=              3.5289   YY=             -6.3024   ZZ=              2.7735
   XY=             -4.7219   XZ=             -0.3329   YZ=              2.3237
 Octapole moment (field-independent basis, Debye-Ang**2):
  XXX=             73.6262  YYY=             -9.6858  ZZZ=             -3.1631  XYY=             -9.1441
  XXY=            -10.9698  XXZ=            -14.1917  XZZ=             19.4680  YZZ=              1.7904
  YYZ=              3.6681  XYZ=              7.4411
 Hexadecapole moment (field-independent basis, Debye-Ang**3):
 XXXX=          -3793.4937 YYYY=           -994.9515 ZZZZ=           -262.6758 XXXY=             -4.6839
 XXXZ=           -117.3514 YYYX=            -18.9945 YYYZ=              6.7393 ZZZX=            -15.6966
 ZZZY=             -2.4351 XXYY=           -929.7672 XXZZ=           -681.5341 YYZZ=           -207.9535
 XXYZ=             22.0629 YYXZ=             12.8318 ZZXY=              6.0955
 N-N= 7.075657224930D+02 E-N=-2.678382849726D+03  KE= 5.384909496811D+02
 Calling FoFJK, ICntrl=      2127 FMM=F ISym2X=0 I1Cent= 0 IOpClX= 0 NMat=1 NMatS=1 NMatT=0.
 ***** Axes restored to original set *****
 -------------------------------------------------------------------
 Center     Atomic                   Forces (Hartrees/Bohr)
 Number     Number              X              Y              Z
 -------------------------------------------------------------------
      1        8          -0.010878102   -0.002867502   -0.002266559
      2        6          -0.008827961    0.007372456   -0.021925119
      3        6           0.003637744   -0.004746416    0.000392589
      4        6           0.003701482   -0.000375558   -0.003405167
      5        6          -0.000388862   -0.000797423    0.005884618
      6        6          -0.005646009    0.006703942    0.000362617
      7        6           0.005088711   -0.006085080   -0.004833608
      8        6           0.000927714    0.009630704    0.004221109
      9        6          -0.002787315   -0.010304952   -0.002936160
     10        6           0.003737885    0.008357022    0.002065613
     11        6          -0.001405232   -0.004874878    0.001157644
     12        8          -0.004400454   -0.009614595    0.014683023
     13        1           0.015938595    0.002699776    0.003164003
     14        1           0.003694879    0.000370183   -0.002975926
     15        1          -0.002436173   -0.000786335    0.005491895
     16        1           0.003120019   -0.000313449    0.001855784
     17        1          -0.003828026    0.001363231   -0.000961297
     18        1          -0.002637914    0.001722012   -0.003071525
     19        1           0.004318382    0.001181141    0.001348739
     20        1           0.001308165   -0.000649806   -0.004105491
     21        1           0.000392384   -0.000162588    0.004370065
     22        1          -0.001032432   -0.003455274    0.001367172
     23        1          -0.001529969    0.005277452    0.000599101
     24        1          -0.004496733   -0.000533170   -0.000467068
     25        1           0.003667515   -0.002660382   -0.001132781
     26        1          -0.002376649    0.003465775    0.001590333
     27        1           0.003920234    0.001742213   -0.000237197
     28        1           0.002202227   -0.003537650   -0.000680919
     29        1          -0.003932599   -0.001138997    0.001211762
     30        1          -0.000907901   -0.000149010   -0.002823369
     31        1          -0.001235698    0.002421034    0.001671219
     32        1           0.003092093    0.000746125    0.000384900
 -------------------------------------------------------------------
 Cartesian Forces:  Max     0.021925119 RMS     0.004909698

 GradGradGradGradGradGradGradGradGradGradGradGradGradGradGradGradGradGrad
 Berny optimization.
 FormGI is forming the generalized inverse of G from B-inverse, IUseBI=4.
 Internal  Forces:  Max     0.016985617 RMS     0.002941100
 Search for a local minimum.
 Step number   1 out of a maximum of  179
 All quantities printed in internal units (Hartrees-Bohrs-Radians)
 Mixed Optimization -- RFO/linear search
 Second derivative matrix not updated -- first step.
 ITU=  0
     Eigenvalues ---    0.00230   0.00230   0.00230   0.00230   0.00230
     Eigenvalues ---    0.00243   0.00259   0.00301   0.00417   0.00894
     Eigenvalues ---    0.02346   0.03074   0.03084   0.03176   0.03233
     Eigenvalues ---    0.03238   0.03427   0.03447   0.03700   0.04634
     Eigenvalues ---    0.04666   0.04674   0.04677   0.04684   0.04750
     Eigenvalues ---    0.04760   0.05164   0.05411   0.05462   0.08302
     Eigenvalues ---    0.08311   0.08554   0.08571   0.08708   0.08812
     Eigenvalues ---    0.08853   0.09766   0.12194   0.12196   0.12384
     Eigenvalues ---    0.12393   0.12488   0.12581   0.12588   0.13072
     Eigenvalues ---    0.16000   0.16000   0.16000   0.16000   0.21890
     Eigenvalues ---    0.21890   0.21891   0.21905   0.21907   0.21910
     Eigenvalues ---    0.21923   0.21960   0.24998   0.25000   0.27736
     Eigenvalues ---    0.27899   0.28097   0.28134   0.28176   0.28558
     Eigenvalues ---    0.28670   0.28951   0.29758   0.34535   0.34634
     Eigenvalues ---    0.34634   0.34635   0.34640   0.34644   0.34644
     Eigenvalues ---    0.34647   0.34648   0.34666   0.34728   0.34736
     Eigenvalues ---    0.34745   0.34756   0.34763   0.34804   0.34818
     Eigenvalues ---    0.34868   0.34888   0.54900   0.56030   0.94450
 RFO step:  Lambda=-5.40112962D-03 EMin= 2.30000000D-03
 Linear search not attempted -- first point.
 Iteration  1 RMS(Cart)=  0.09603350 RMS(Int)=  0.00079871
 Iteration  2 RMS(Cart)=  0.00213995 RMS(Int)=  0.00017766
 Iteration  3 RMS(Cart)=  0.00000107 RMS(Int)=  0.00017766
 Iteration  4 RMS(Cart)=  0.00000000 RMS(Int)=  0.00017766
 Variable       Old X    -DE/DX   Delta X   Delta X   Delta X     New X
                                 (Linear)    (Quad)   (Total)
    R1        2.55221   0.00264   0.00000   0.00475   0.00475   2.55696
    R2        1.80928   0.01606   0.00000   0.02839   0.02839   1.83768
    R3        2.88449  -0.00922   0.00000  -0.03042  -0.03042   2.85407
    R4        2.30947  -0.01699   0.00000  -0.01788  -0.01788   2.29159
    R5        2.92720  -0.00823   0.00000  -0.02912  -0.02912   2.89808
    R6        2.05994   0.00151   0.00000   0.00427   0.00427   2.06421
    R7        2.05890   0.00497   0.00000   0.01405   0.01405   2.07295
    R8        2.91927  -0.00791   0.00000  -0.02762  -0.02762   2.89165
    R9        2.06436   0.00261   0.00000   0.00743   0.00743   2.07180
   R10        2.06061   0.00372   0.00000   0.01054   0.01054   2.07115
   R11        2.91845  -0.00449   0.00000  -0.01566  -0.01566   2.90279
   R12        2.05857   0.00413   0.00000   0.01166   0.01166   2.07023
   R13        2.06221   0.00443   0.00000   0.01258   0.01258   2.07479
   R14        2.92360  -0.00280   0.00000  -0.00983  -0.00983   2.91377
   R15        2.06274   0.00378   0.00000   0.01075   0.01075   2.07349
   R16        2.06272   0.00402   0.00000   0.01144   0.01144   2.07416
   R17        2.91754  -0.00445   0.00000  -0.01549  -0.01549   2.90206
   R18        2.06252   0.00382   0.00000   0.01084   0.01084   2.07336
   R19        2.05972   0.00482   0.00000   0.01363   0.01363   2.07335
   R20        2.90935  -0.00339   0.00000  -0.01165  -0.01165   2.89770
   R21        2.06264   0.00447   0.00000   0.01271   0.01271   2.07535
   R22        2.06256   0.00443   0.00000   0.01258   0.01258   2.07514
   R23        2.90697  -0.00357   0.00000  -0.01221  -0.01221   2.89476
   R24        2.06273   0.00448   0.00000   0.01273   0.01273   2.07546
   R25        2.06091   0.00422   0.00000   0.01195   0.01195   2.07286
   R26        2.90105  -0.00177   0.00000  -0.00600  -0.00600   2.89505
   R27        2.06257   0.00409   0.00000   0.01162   0.01162   2.07420
   R28        2.06250   0.00411   0.00000   0.01168   0.01168   2.07418
   R29        2.06072   0.00294   0.00000   0.00834   0.00834   2.06906
   R30        2.06118   0.00313   0.00000   0.00887   0.00887   2.07005
   R31        2.06106   0.00314   0.00000   0.00891   0.00891   2.06998
    A1        1.81742   0.00662   0.00000   0.04000   0.04000   1.85742
    A2        1.96567  -0.00185   0.00000  -0.00698  -0.00751   1.95816
    A3        2.15269  -0.00624   0.00000  -0.02416  -0.02467   2.12802
    A4        2.16471   0.00811   0.00000   0.03201   0.03145   2.19616
    A5        2.00716  -0.00534   0.00000  -0.03237  -0.03266   1.97449
    A6        1.88996  -0.00120   0.00000  -0.02475  -0.02488   1.86508
    A7        1.86374   0.00359   0.00000   0.02038   0.02029   1.88403
    A8        1.92393   0.00330   0.00000   0.01489   0.01422   1.93815
    A9        1.92123  -0.00112   0.00000  -0.00874  -0.00873   1.91251
   A10        1.85047   0.00127   0.00000   0.03607   0.03612   1.88659
   A11        1.99263  -0.00448   0.00000  -0.02635  -0.02654   1.96610
   A12        1.91731   0.00092   0.00000  -0.00665  -0.00697   1.91034
   A13        1.88478   0.00051   0.00000   0.00087   0.00104   1.88582
   A14        1.91679   0.00086   0.00000  -0.00403  -0.00446   1.91233
   A15        1.90862   0.00218   0.00000   0.01708   0.01706   1.92568
   A16        1.83695   0.00041   0.00000   0.02351   0.02347   1.86042
   A17        1.99117  -0.00305   0.00000  -0.01732  -0.01742   1.97375
   A18        1.90975   0.00058   0.00000  -0.00673  -0.00691   1.90284
   A19        1.90377   0.00010   0.00000  -0.00007   0.00005   1.90381
   A20        1.93000   0.00057   0.00000  -0.00365  -0.00390   1.92610
   A21        1.88456   0.00195   0.00000   0.01749   0.01750   1.90207
   A22        1.83798   0.00012   0.00000   0.01317   0.01315   1.85113
   A23        2.02045  -0.00018   0.00000  -0.00483  -0.00488   2.01557
   A24        1.90845  -0.00033   0.00000  -0.00816  -0.00824   1.90021
   A25        1.88830  -0.00038   0.00000  -0.00160  -0.00158   1.88672
   A26        1.90692  -0.00033   0.00000  -0.00684  -0.00694   1.89998
   A27        1.90171   0.00039   0.00000   0.00556   0.00556   1.90727
   A28        1.82818   0.00097   0.00000   0.01851   0.01853   1.84671
   A29        2.01614  -0.00165   0.00000  -0.01158  -0.01193   2.00420
   A30        1.88351   0.00123   0.00000   0.01935   0.01944   1.90295
   A31        1.93810  -0.00062   0.00000  -0.01960  -0.02004   1.91806
   A32        1.87171   0.00061   0.00000   0.01435   0.01440   1.88611
   A33        1.91504   0.00021   0.00000  -0.01364  -0.01417   1.90086
   A34        1.82828   0.00050   0.00000   0.01623   0.01644   1.84472
   A35        2.00834   0.00069   0.00000   0.00097   0.00092   2.00926
   A36        1.88590   0.00036   0.00000   0.00795   0.00796   1.89386
   A37        1.91057  -0.00084   0.00000  -0.01086  -0.01090   1.89967
   A38        1.89983  -0.00053   0.00000   0.00048   0.00046   1.90030
   A39        1.90944  -0.00034   0.00000  -0.00759  -0.00765   1.90180
   A40        1.84234   0.00068   0.00000   0.01027   0.01031   1.85265
   A41        1.96847   0.00060   0.00000   0.00332   0.00331   1.97178
   A42        1.91283  -0.00029   0.00000  -0.00300  -0.00299   1.90984
   A43        1.90966   0.00033   0.00000   0.00628   0.00627   1.91593
   A44        1.91096  -0.00028   0.00000  -0.00408  -0.00408   1.90688
   A45        1.89872  -0.00038   0.00000  -0.00053  -0.00056   1.89816
   A46        1.85999  -0.00001   0.00000  -0.00226  -0.00226   1.85773
   A47        1.96607   0.00103   0.00000   0.00459   0.00461   1.97068
   A48        1.91419  -0.00093   0.00000  -0.00858  -0.00860   1.90559
   A49        1.91534  -0.00103   0.00000  -0.00902  -0.00905   1.90629
   A50        1.90619   0.00022   0.00000   0.00490   0.00491   1.91109
   A51        1.90557   0.00038   0.00000   0.00652   0.00653   1.91211
   A52        1.85301   0.00030   0.00000   0.00151   0.00143   1.85445
   A53        1.93735   0.00091   0.00000   0.00786   0.00786   1.94521
   A54        1.94341  -0.00068   0.00000  -0.00539  -0.00541   1.93801
   A55        1.94336  -0.00059   0.00000  -0.00466  -0.00468   1.93868
   A56        1.87766   0.00012   0.00000   0.00277   0.00277   1.88043
   A57        1.87753   0.00011   0.00000   0.00298   0.00299   1.88052
   A58        1.88154   0.00016   0.00000  -0.00335  -0.00339   1.87814
    D1       -3.13977  -0.00052   0.00000  -0.03102  -0.03018   3.11324
    D2       -0.01406   0.00044   0.00000   0.02827   0.02743   0.01337
    D3       -1.08441   0.00124   0.00000   0.05022   0.05086  -1.03355
    D4        3.03841   0.00165   0.00000   0.07301   0.07291   3.11132
    D5        1.05245  -0.00102   0.00000   0.03302   0.03326   1.08572
    D6        2.07319   0.00043   0.00000  -0.00895  -0.00883   2.06437
    D7       -0.08717   0.00083   0.00000   0.01384   0.01322  -0.07395
    D8       -2.07312  -0.00184   0.00000  -0.02614  -0.02643  -2.09955
    D9       -1.13235   0.00174   0.00000   0.04919   0.04927  -1.08308
   D10        1.02953   0.00029   0.00000   0.01927   0.01948   1.04901
   D11        3.02417   0.00154   0.00000   0.04410   0.04419   3.06837
   D12        1.00992  -0.00120   0.00000   0.00423   0.00409   1.01401
   D13       -3.11139  -0.00264   0.00000  -0.02570  -0.02569  -3.13708
   D14       -1.11675  -0.00139   0.00000  -0.00086  -0.00098  -1.11773
   D15        3.04519   0.00164   0.00000   0.05187   0.05177   3.09696
   D16       -1.07612   0.00020   0.00000   0.02194   0.02199  -1.05413
   D17        0.91853   0.00144   0.00000   0.04678   0.04670   0.96522
   D18        3.13474   0.00037   0.00000   0.00892   0.00899  -3.13945
   D19       -0.97614  -0.00067   0.00000  -0.01389  -0.01374  -0.98988
   D20        1.02606  -0.00016   0.00000  -0.00189  -0.00181   1.02425
   D21        0.97259   0.00178   0.00000   0.04023   0.04017   1.01276
   D22       -3.13829   0.00074   0.00000   0.01742   0.01745  -3.12085
   D23       -1.13610   0.00124   0.00000   0.02942   0.02938  -1.10672
   D24       -1.03494  -0.00042   0.00000   0.00468   0.00457  -1.03037
   D25        1.13736  -0.00146   0.00000  -0.01813  -0.01816   1.11921
   D26        3.13955  -0.00095   0.00000  -0.00613  -0.00623   3.13333
   D27        1.23244  -0.00001   0.00000  -0.01591  -0.01587   1.21657
   D28       -2.88844  -0.00086   0.00000  -0.03534  -0.03526  -2.92370
   D29       -0.90683  -0.00009   0.00000  -0.01857  -0.01852  -0.92535
   D30       -0.92899   0.00107   0.00000   0.00894   0.00891  -0.92008
   D31        1.23331   0.00022   0.00000  -0.01049  -0.01048   1.22283
   D32       -3.06826   0.00099   0.00000   0.00628   0.00626  -3.06200
   D33       -2.93140  -0.00047   0.00000  -0.01468  -0.01474  -2.94614
   D34       -0.76910  -0.00132   0.00000  -0.03411  -0.03413  -0.80323
   D35        1.21252  -0.00055   0.00000  -0.01734  -0.01740   1.19512
   D36        1.60889  -0.00112   0.00000  -0.05598  -0.05586   1.55303
   D37       -2.58049  -0.00049   0.00000  -0.03080  -0.03075  -2.61124
   D38       -0.58598   0.00048   0.00000  -0.01078  -0.01091  -0.59688
   D39       -0.55421  -0.00027   0.00000  -0.03588  -0.03579  -0.59000
   D40        1.53959   0.00036   0.00000  -0.01070  -0.01068   1.52892
   D41       -2.74907   0.00133   0.00000   0.00932   0.00916  -2.73991
   D42       -2.54214  -0.00145   0.00000  -0.05715  -0.05705  -2.59919
   D43       -0.44833  -0.00082   0.00000  -0.03197  -0.03193  -0.48027
   D44        1.54619   0.00015   0.00000  -0.01195  -0.01209   1.53409
   D45       -1.11157   0.00121   0.00000   0.03406   0.03398  -1.07759
   D46        3.04494   0.00116   0.00000   0.02680   0.02671   3.07165
   D47        1.04682   0.00060   0.00000   0.01604   0.01599   1.06280
   D48        3.07137   0.00023   0.00000   0.00617   0.00615   3.07752
   D49        0.94470   0.00019   0.00000  -0.00110  -0.00113   0.94357
   D50       -1.05343  -0.00038   0.00000  -0.01186  -0.01185  -1.06528
   D51        1.09505  -0.00077   0.00000  -0.01363  -0.01355   1.08150
   D52       -1.03163  -0.00082   0.00000  -0.02090  -0.02083  -1.05245
   D53       -3.02975  -0.00138   0.00000  -0.03165  -0.03155  -3.06130
   D54       -3.00439  -0.00052   0.00000  -0.02525  -0.02523  -3.02962
   D55       -0.87065  -0.00067   0.00000  -0.03037  -0.03036  -0.90101
   D56        1.16295  -0.00066   0.00000  -0.03121  -0.03121   1.13174
   D57       -0.88526   0.00002   0.00000  -0.01388  -0.01388  -0.89914
   D58        1.24848  -0.00014   0.00000  -0.01901  -0.01900   1.22948
   D59       -3.00111  -0.00013   0.00000  -0.01984  -0.01985  -3.02096
   D60        1.11981   0.00036   0.00000  -0.00550  -0.00550   1.11431
   D61       -3.02963   0.00021   0.00000  -0.01062  -0.01063  -3.04026
   D62       -0.99603   0.00022   0.00000  -0.01146  -0.01148  -1.00751
   D63       -3.13195  -0.00017   0.00000  -0.00118  -0.00118  -3.13313
   D64       -1.00499   0.00015   0.00000   0.00209   0.00207  -1.00292
   D65        1.02423  -0.00062   0.00000  -0.00622  -0.00619   1.01804
   D66        1.01644  -0.00001   0.00000   0.00334   0.00334   1.01978
   D67       -3.13978   0.00032   0.00000   0.00661   0.00658  -3.13320
   D68       -1.11056  -0.00046   0.00000  -0.00170  -0.00168  -1.11224
   D69       -1.00991   0.00038   0.00000   0.00859   0.00859  -1.00132
   D70        1.11706   0.00070   0.00000   0.01186   0.01184   1.12890
   D71       -3.13691  -0.00007   0.00000   0.00355   0.00358  -3.13333
   D72        3.14146   0.00003   0.00000   0.00028   0.00028  -3.14145
   D73       -1.05026   0.00033   0.00000   0.00545   0.00544  -1.04482
   D74        1.05018  -0.00033   0.00000  -0.00565  -0.00564   1.04455
   D75        1.00997   0.00035   0.00000   0.00464   0.00465   1.01462
   D76        3.10144   0.00066   0.00000   0.00982   0.00981   3.11124
   D77       -1.08130   0.00000   0.00000  -0.00129  -0.00127  -1.08257
   D78       -1.00921  -0.00033   0.00000  -0.00349  -0.00349  -1.01270
   D79        1.08226  -0.00002   0.00000   0.00168   0.00167   1.08393
   D80       -3.10048  -0.00068   0.00000  -0.00942  -0.00941  -3.10989
         Item               Value     Threshold  Converged?
 Maximum Force            0.016986     0.000450     NO 
 RMS     Force            0.002941     0.000300     NO 
 Maximum Displacement     0.400840     0.001800     NO 
 RMS     Displacement     0.097018     0.001200     NO 
 Predicted change in Energy=-2.873575D-03
 GradGradGradGradGradGradGradGradGradGradGradGradGradGradGradGradGradGrad

                          Input orientation:                          
 ---------------------------------------------------------------------
 Center     Atomic      Atomic             Coordinates (Angstroms)
 Number     Number       Type             X           Y           Z
 ---------------------------------------------------------------------
      1          8           0        5.311824   -0.501478    0.618454
      2          6           0        4.786907    0.007262   -0.520179
      3          6           0        3.308687   -0.276756   -0.643580
      4          6           0        2.980540   -1.774825   -0.637913
      5          6           0        3.607504   -2.519855   -1.818310
      6          6           0        3.282631   -4.021187   -1.824132
      7          6           0        1.816425   -4.381469   -2.137010
      8          6           0        1.502505   -4.568797   -3.628568
      9          6           0        1.723537   -3.327483   -4.501257
     10          6           0        1.249648   -3.519663   -5.945222
     11          6           0        1.481951   -2.282769   -6.818799
     12          8           0        5.471140    0.578253   -1.342571
     13          1           0        6.261929   -0.295063    0.599384
     14          1           0        2.971567    0.195198   -1.569218
     15          1           0        2.799015    0.214364    0.194485
     16          1           0        3.325247   -2.220581    0.302543
     17          1           0        1.890082   -1.883663   -0.654710
     18          1           0        3.274174   -2.054173   -2.752220
     19          1           0        4.697317   -2.390438   -1.786415
     20          1           0        3.933953   -4.522471   -2.551066
     21          1           0        3.555777   -4.433005   -0.844071
     22          1           0        1.557356   -5.311302   -1.615385
     23          1           0        1.147709   -3.614629   -1.726457
     24          1           0        0.457206   -4.890901   -3.727089
     25          1           0        2.114172   -5.393013   -4.018946
     26          1           0        1.197438   -2.471182   -4.058316
     27          1           0        2.788755   -3.065914   -4.511481
     28          1           0        1.769796   -4.380926   -6.383897
     29          1           0        0.181802   -3.773541   -5.944349
     30          1           0        1.134977   -2.445956   -7.844365
     31          1           0        0.947637   -1.413634   -6.419966
     32          1           0        2.545891   -2.026001   -6.863172
 ---------------------------------------------------------------------
                    Distance matrix (angstroms):
                    1          2          3          4          5
     1  O    0.000000
     2  C    1.353084   0.000000
     3  C    2.378190   1.510307   0.000000
     4  C    2.938495   2.540208   1.533598   0.000000
     5  C    3.593936   3.076111   2.549662   1.530193   0.000000
     6  C    4.740486   4.493500   3.926213   2.558226   1.536090
     7  C    5.904636   5.540655   4.615826   3.224446   2.602909
     8  C    7.006511   6.433482   5.531190   4.351424   3.450538
     9  C    6.861016   6.029406   5.167331   4.349280   3.376358
[...]
 Alpha virt. eigenvalues --    4.08300   4.14000   4.14203   4.16712   4.18299
 Alpha virt. eigenvalues --    4.20127   4.24446   4.27029   4.30394   4.32149
 Alpha virt. eigenvalues --    4.35700   4.36649   4.38536   4.41540   4.44091
 Alpha virt. eigenvalues --    4.49178   4.50106   4.51122   4.52509   4.55352
 Alpha virt. eigenvalues --    4.56417   4.57467   4.59821   4.60660   4.61029
 Alpha virt. eigenvalues --    4.63929   4.65252   4.68215   4.73348   4.73938
 Alpha virt. eigenvalues --    4.76557   4.79782   4.82631   4.84813   4.91446
 Alpha virt. eigenvalues --    5.02813   5.03603   5.07134   5.17220   5.20577
 Alpha virt. eigenvalues --    5.22810   5.39562   5.40325   5.51094   5.59526
 Alpha virt. eigenvalues --    5.73581   5.85023   5.86995   6.15748   6.19282
 Alpha virt. eigenvalues --    6.33329   6.34102   6.46208   6.47574   6.64053
 Alpha virt. eigenvalues --    6.69202   6.74027   6.81253   6.88604   7.07171
 Alpha virt. eigenvalues --    7.07859   7.28222  22.40871  22.48711  22.53873
 Alpha virt. eigenvalues --   22.56779  22.58222  22.60626  22.61818  22.62787
 Alpha virt. eigenvalues --   22.67304  23.27067  43.95131  44.02032
          Condensed to atoms (all electrons):
               1          2          3          4          5          6
     1  O    7.974645   0.340002  -0.116326   0.006222  -0.000084  -0.001388
     2  C    0.340002   4.513196   0.266623  -0.033455   0.013558  -0.000112
     3  C   -0.116326   0.266623   5.300445   0.191542  -0.045867   0.009319
     4  C    0.006222  -0.033455   0.191542   5.289127   0.191462  -0.033803
     5  C   -0.000084   0.013558  -0.045867   0.191462   5.317138   0.182239
     6  C   -0.001388  -0.000112   0.009319  -0.033803   0.182239   5.308149
     7  C    0.000010   0.000156  -0.000371   0.002339  -0.022707   0.192022
     8  C    0.000002  -0.000004   0.000039  -0.000088   0.003753  -0.039076
     9  C   -0.000001  -0.000004   0.000265  -0.002069  -0.001625   0.020121
    10  C   -0.000000  -0.000005   0.000033  -0.000245   0.002157  -0.001892
    11  C    0.000000   0.000001  -0.000007   0.000017  -0.000171   0.000201
    12  O   -0.094089   0.676353  -0.096289   0.005717   0.000434   0.000289
    13  H    0.287033  -0.023088   0.017303  -0.002300   0.000252  -0.000019
    14  H    0.004627  -0.056014   0.435291  -0.028846  -0.005921   0.000273
    15  H    0.003743  -0.018303   0.399802  -0.048788   0.009471  -0.000505
    16  H    0.003711  -0.011752  -0.017004   0.421861  -0.055384   0.000784
    17  H   -0.000135   0.007379  -0.041311   0.422262  -0.039183  -0.005511
    18  H    0.000635  -0.003447   0.006683  -0.070289   0.445772  -0.037809
    19  H    0.000787   0.008495  -0.013757  -0.032911   0.426894  -0.042133
    20  H    0.000005  -0.000070  -0.000427   0.009616  -0.059740   0.432713
    21  H    0.000138   0.000012   0.000494  -0.013317  -0.030282   0.429917
    22  H   -0.000000  -0.000002  -0.000028   0.000928   0.003693  -0.041081
    23  H    0.000000  -0.000017   0.000779  -0.004066   0.001036  -0.067434
    24  H   -0.000000   0.000000  -0.000006  -0.000004  -0.001210   0.011791
    25  H   -0.000000   0.000000   0.000008  -0.000064   0.002923  -0.017775
    26  H   -0.000000   0.000017  -0.000018   0.000017   0.002416  -0.008771
    27  H    0.000000   0.000020  -0.000117   0.000606  -0.013196   0.017522
    28  H   -0.000000   0.000000  -0.000000   0.000003   0.000044  -0.000128
    29  H   -0.000000   0.000000  -0.000000   0.000005  -0.000100   0.000079
    30  H    0.000000  -0.000000   0.000000  -0.000000   0.000003  -0.000003
    31  H   -0.000000   0.000000  -0.000001   0.000000  -0.000000   0.000017
    32  H   -0.000000   0.000000   0.000000  -0.000002  -0.000006  -0.000038
               7          8          9         10         11         12
     1  O    0.000010   0.000002  -0.000001  -0.000000   0.000000  -0.094089
     2  C    0.000156  -0.000004  -0.000004  -0.000005   0.000001   0.676353
     3  C   -0.000371   0.000039   0.000265   0.000033  -0.000007  -0.096289
     4  C    0.002339  -0.000088  -0.002069  -0.000245   0.000017   0.005717
     5  C   -0.022707   0.003753  -0.001625   0.002157  -0.000171   0.000434
     6  C    0.192022  -0.039076   0.020121  -0.001892   0.000201   0.000289
     7  C    5.197898   0.252626  -0.046951   0.008635  -0.000950  -0.000002
     8  C    0.252626   5.209489   0.199369  -0.043186   0.012045   0.000000
     9  C   -0.046951   0.199369   5.354255   0.231061  -0.055798  -0.000006
    10  C    0.008635  -0.043186   0.231061   5.123171   0.266841  -0.000000
    11  C   -0.000950   0.012045  -0.055798   0.266841   5.037117   0.000000
    12  O   -0.000002   0.000000  -0.000006  -0.000000   0.000000   7.819626
    13  H   -0.000001  -0.000000   0.000000   0.000000  -0.000000   0.007066
    14  H    0.000117   0.000005  -0.000044  -0.000006   0.000002   0.006918
    15  H    0.000028   0.000004  -0.000009  -0.000000   0.000000   0.002753
    16  H   -0.001726   0.000060  -0.000021   0.000006  -0.000000   0.000088
    17  H    0.002663  -0.000407   0.000386  -0.000038   0.000002  -0.000389
    18  H   -0.011661   0.003423  -0.005504   0.001871  -0.000142   0.000383
    19  H    0.008566  -0.000856   0.000538  -0.000060   0.000003  -0.001410
    20  H   -0.047700   0.004324  -0.008071  -0.000211   0.000032   0.000007
    21  H   -0.054735   0.006832  -0.000200   0.000092  -0.000003  -0.000012
    22  H    0.442641  -0.058244   0.011615  -0.000547   0.000031   0.000000
    23  H    0.437641  -0.040297  -0.012108  -0.000593   0.000012   0.000002
    24  H   -0.050912   0.436994  -0.047698  -0.004962  -0.000040   0.000000
    25  H   -0.033751   0.441774  -0.061897  -0.004381  -0.000366  -0.000000
    26  H    0.010349  -0.049060   0.412159  -0.033322  -0.005199  -0.000001
    27  H   -0.015665  -0.039101   0.419052  -0.031581  -0.004495  -0.000004
    28  H    0.000305  -0.003936  -0.046538   0.425470  -0.040229  -0.000000
    29  H   -0.000608  -0.006316  -0.055273   0.436593  -0.038725   0.000000
    30  H    0.000033  -0.000780   0.013293  -0.051908   0.422224   0.000000
    31  H   -0.000043  -0.000189  -0.005208  -0.042375   0.414110  -0.000000
    32  H    0.000016  -0.000389  -0.007279  -0.040312   0.415989   0.000000
              13         14         15         16         17         18
     1  O    0.287033   0.004627   0.003743   0.003711  -0.000135   0.000635
     2  C   -0.023088  -0.056014  -0.018303  -0.011752   0.007379  -0.003447
     3  C    0.017303   0.435291   0.399802  -0.017004  -0.041311   0.006683
     4  C   -0.002300  -0.028846  -0.048788   0.421861   0.422262  -0.070289
     5  C    0.000252  -0.005921   0.009471  -0.055384  -0.039183   0.445772
     6  C   -0.000019   0.000273  -0.000505   0.000784  -0.005511  -0.037809
     7  C   -0.000001   0.000117   0.000028  -0.001726   0.002663  -0.011661
     8  C   -0.000000   0.000005   0.000004   0.000060  -0.000407   0.003423
     9  C    0.000000  -0.000044  -0.000009  -0.000021   0.000386  -0.005504
    10  C    0.000000  -0.000006  -0.000000   0.000006  -0.000038   0.001871
    11  C   -0.000000   0.000002   0.000000  -0.000000   0.000002  -0.000142
    12  O    0.007066   0.006918   0.002753   0.000088  -0.000389   0.000383
    13  H    0.379529  -0.000708  -0.000807  -0.000225   0.000073  -0.000016
    14  H   -0.000708   0.493097  -0.015409   0.004373  -0.004483  -0.000325
    15  H   -0.000807  -0.015409   0.511764  -0.003152  -0.006060   0.000266
    16  H   -0.000225   0.004373  -0.003152   0.506946  -0.019996   0.005739
    17  H    0.000073  -0.004483  -0.006060  -0.019996   0.540274  -0.000276
    18  H   -0.000016  -0.000325   0.000266   0.005739  -0.000276   0.515502
    19  H   -0.000107   0.000838  -0.000238  -0.001729   0.004707  -0.019778
    20  H   -0.000002   0.000024   0.000014   0.000198  -0.000343  -0.000373
    21  H    0.000008  -0.000052   0.000003   0.002243   0.001330   0.005389
    22  H   -0.000000  -0.000000  -0.000001  -0.000157  -0.000094  -0.000391
    23  H   -0.000000   0.000148   0.000020   0.000847  -0.002457   0.001698
    24  H   -0.000000   0.000001   0.000000  -0.000001   0.000032  -0.000128
    25  H    0.000000   0.000001   0.000000   0.000003  -0.000016   0.000031
    26  H   -0.000000   0.000110   0.000006   0.000004   0.000130  -0.003545
    27  H    0.000000   0.000012   0.000000  -0.000026   0.000044  -0.003081
    28  H   -0.000000   0.000000   0.000000  -0.000000   0.000001  -0.000024
    29  H   -0.000000   0.000000   0.000000  -0.000000  -0.000001  -0.000029
    30  H    0.000000  -0.000000  -0.000000   0.000000  -0.000000   0.000005
    31  H   -0.000000   0.000001   0.000000  -0.000000   0.000001   0.000034
    32  H    0.000000   0.000001  -0.000000   0.000000  -0.000000   0.000037
              19         20         21         22         23         24
     1  O    0.000787   0.000005   0.000138  -0.000000   0.000000  -0.000000
     2  C    0.008495  -0.000070   0.000012  -0.000002  -0.000017   0.000000
     3  C   -0.013757  -0.000427   0.000494  -0.000028   0.000779  -0.000006
     4  C   -0.032911   0.009616  -0.013317   0.000928  -0.004066  -0.000004
     5  C    0.426894  -0.059740  -0.030282   0.003693   0.001036  -0.001210
     6  C   -0.042133   0.432713   0.429917  -0.041081  -0.067434   0.011791
     7  C    0.008566  -0.047700  -0.054735   0.442641   0.437641  -0.050912
     8  C   -0.000856   0.004324   0.006832  -0.058244  -0.040297   0.436994
     9  C    0.000538  -0.008071  -0.000200   0.011615  -0.012108  -0.047698
    10  C   -0.000060  -0.000211   0.000092  -0.000547  -0.000593  -0.004962
    11  C    0.000003   0.000032  -0.000003   0.000031   0.000012  -0.000040
    12  O   -0.001410   0.000007  -0.000012   0.000000   0.000002   0.000000
    13  H   -0.000107  -0.000002   0.000008  -0.000000  -0.000000  -0.000000
    14  H    0.000838   0.000024  -0.000052  -0.000000   0.000148   0.000001
    15  H   -0.000238   0.000014   0.000003  -0.000001   0.000020   0.000000
    16  H   -0.001729   0.000198   0.002243  -0.000157   0.000847  -0.000001
    17  H    0.004707  -0.000343   0.001330  -0.000094  -0.002457   0.000032
    18  H   -0.019778  -0.000373   0.005389  -0.000391   0.001698  -0.000128
    19  H    0.513969  -0.006966  -0.002172  -0.000280  -0.000202   0.000035
    20  H   -0.006966   0.523486  -0.017362   0.002253   0.005938   0.000067
    21  H   -0.002172  -0.017362   0.527214  -0.011589   0.002681  -0.000260
    22  H   -0.000280   0.002253  -0.011589   0.537174  -0.021224  -0.006944
    23  H   -0.000202   0.005938   0.002681  -0.021224   0.546857  -0.002721
    24  H    0.000035   0.000067  -0.000260  -0.006944  -0.002721   0.542774
    25  H   -0.000051   0.003925  -0.000254  -0.002797   0.006517  -0.022394
    26  H    0.000027   0.000947  -0.000204   0.000178   0.001135  -0.002149
    27  H    0.000622  -0.000725   0.000300  -0.000585   0.001699   0.006223
    28  H    0.000001   0.000065  -0.000008   0.000019  -0.000051   0.000494
    29  H    0.000001  -0.000003   0.000002  -0.000041   0.000197   0.002179
    30  H   -0.000000  -0.000001   0.000000  -0.000001  -0.000001  -0.000007
    31  H    0.000000  -0.000001  -0.000000   0.000000  -0.000013   0.000127
    32  H    0.000000   0.000003   0.000000  -0.000000   0.000006  -0.000047
              25         26         27         28         29         30
     1  O   -0.000000  -0.000000   0.000000  -0.000000  -0.000000   0.000000
     2  C    0.000000   0.000017   0.000020   0.000000   0.000000  -0.000000
     3  C    0.000008  -0.000018  -0.000117  -0.000000  -0.000000   0.000000
     4  C   -0.000064   0.000017   0.000606   0.000003   0.000005  -0.000000
     5  C    0.002923   0.002416  -0.013196   0.000044  -0.000100   0.000003
     6  C   -0.017775  -0.008771   0.017522  -0.000128   0.000079  -0.000003
     7  C   -0.033751   0.010349  -0.015665   0.000305  -0.000608   0.000033
     8  C    0.441774  -0.049060  -0.039101  -0.003936  -0.006316  -0.000780
     9  C   -0.061897   0.412159   0.419052  -0.046538  -0.055273   0.013293
    10  C   -0.004381  -0.033322  -0.031581   0.425470   0.436593  -0.051908
    11  C   -0.000366  -0.005199  -0.004495  -0.040229  -0.038725   0.422224
    12  O   -0.000000  -0.000001  -0.000004  -0.000000   0.000000   0.000000
    13  H    0.000000  -0.000000   0.000000  -0.000000  -0.000000   0.000000
    14  H    0.000001   0.000110   0.000012   0.000000   0.000000  -0.000000
    15  H    0.000000   0.000006   0.000000   0.000000   0.000000  -0.000000
    16  H    0.000003   0.000004  -0.000026  -0.000000  -0.000000   0.000000
    17  H   -0.000016   0.000130   0.000044   0.000001  -0.000001  -0.000000
    18  H    0.000031  -0.003545  -0.003081  -0.000024  -0.000029   0.000005
    19  H   -0.000051   0.000027   0.000622   0.000001   0.000001  -0.000000
    20  H    0.003925   0.000947  -0.000725   0.000065  -0.000003  -0.000001
    21  H   -0.000254  -0.000204   0.000300  -0.000008   0.000002   0.000000
    22  H   -0.002797   0.000178  -0.000585   0.000019  -0.000041  -0.000001
    23  H    0.006517   0.001135   0.001699  -0.000051   0.000197  -0.000001
    24  H   -0.022394  -0.002149   0.006223   0.000494   0.002179  -0.000007
    25  H    0.531646   0.006712  -0.002943   0.001753   0.000856   0.000002
    26  H    0.006712   0.559680  -0.037186   0.007817  -0.006625  -0.000126
    27  H   -0.002943  -0.037186   0.559786  -0.007060   0.007920  -0.000102
    28  H    0.001753   0.007817  -0.007060   0.568744  -0.034163  -0.004207
    29  H    0.000856  -0.006625   0.007920  -0.034163   0.565550  -0.004121
    30  H    0.000002  -0.000126  -0.000102  -0.004207  -0.004121   0.533202
    31  H   -0.000048   0.002645  -0.000018   0.007639  -0.005610  -0.024802
    32  H    0.000139   0.000281   0.002620  -0.005546   0.007378  -0.024363
              31         32
     1  O   -0.000000  -0.000000
     2  C    0.000000   0.000000
     3  C   -0.000001   0.000000
     4  C    0.000000  -0.000002
     5  C   -0.000000  -0.000006
     6  C    0.000017  -0.000038
     7  C   -0.000043   0.000016
     8  C   -0.000189  -0.000389
     9  C   -0.005208  -0.007279
    10  C   -0.042375  -0.040312
    11  C    0.414110   0.415989
    12  O   -0.000000   0.000000
    13  H   -0.000000   0.000000
    14  H    0.000001   0.000001
    15  H    0.000000  -0.000000
    16  H   -0.000000   0.000000
    17  H    0.000001  -0.000000
    18  H    0.000034   0.000037
    19  H    0.000000   0.000000
    20  H   -0.000001   0.000003
    21  H   -0.000000   0.000000
    22  H    0.000000  -0.000000
    23  H   -0.000013   0.000006
    24  H    0.000127  -0.000047
    25  H   -0.000048   0.000139
    26  H    0.002645   0.000281
    27  H   -0.000018   0.002620
    28  H    0.007639  -0.005546
    29  H   -0.005610   0.007378
    30  H   -0.024802  -0.024363
    31  H    0.549889  -0.031452
    32  H   -0.031452   0.545306
 Mulliken charges:
               1
     1  O   -0.409537
     2  C    0.320464
     3  C   -0.297098
     4  C   -0.271478
     5  C   -0.327769
     6  C   -0.307959
     7  C   -0.268260
     8  C   -0.288808
     9  C   -0.305808
    10  C   -0.240305
    11  C   -0.422500
    12  O   -0.327433
    13  H    0.336009
    14  H    0.165970
    15  H    0.165398
    16  H    0.164309
    17  H    0.141417
    18  H    0.169350
    19  H    0.157166
    20  H    0.158378
    21  H    0.153798
    22  H    0.145472
    23  H    0.143970
    24  H    0.138767
    25  H    0.150447
    26  H    0.141577
    27  H    0.139460
    28  H    0.129534
    29  H    0.130857
    30  H    0.141659
    31  H    0.135297
    32  H    0.137657
 Sum of Mulliken charges =  -0.00000
 Mulliken charges with hydrogens summed into heavy atoms:
               1
     1  O   -0.073528
     2  C    0.320464
     3  C    0.034269
     4  C    0.034248
     5  C   -0.001253
     6  C    0.004217
     7  C    0.021182
     8  C    0.000406
     9  C   -0.024771
    10  C    0.020086
    11  C   -0.007887
    12  O   -0.327433
 Electronic spatial extent (au):  <R**2>=           3925.6414
 Charge=             -0.0000 electrons
 Dipole moment (field-independent basis, Debye):
    X=             -0.4034    Y=             -1.8799    Z=              0.4427  Tot=              1.9730
 Quadrupole moment (field-independent basis, Debye-Ang):
   XX=            -75.6850   YY=            -85.1660   ZZ=            -73.8320
   XY=             -5.0886   XZ=             -0.8145   YZ=              1.3329
 Traceless Quadrupole moment (field-independent basis, Debye-Ang):
   XX=              2.5427   YY=             -6.9383   ZZ=              4.3956
   XY=             -5.0886   XZ=             -0.8145   YZ=              1.3329
 Octapole moment (field-independent basis, Debye-Ang**2):
  XXX=             58.2021  YYY=            -14.4763  ZZZ=             -4.3824  XYY=            -12.1558
  XXY=            -10.1835  XXZ=            -14.7045  XZZ=             23.0620  YZZ=              2.9521
  YYZ=              2.5760  XYZ=              3.4290
 Hexadecapole moment (field-independent basis, Debye-Ang**3):
 XXXX=          -3730.1036 YYYY=          -1059.1961 ZZZZ=           -276.1422 XXXY=             -6.6312
 XXXZ=           -116.0530 YYYX=            -26.1735 YYYZ=              7.1258 ZZZX=            -22.9066
 ZZZY=             -3.0706 XXYY=           -915.2265 XXZZ=           -636.8380 YYZZ=           -220.1471
 XXYZ=              3.8451 YYXZ=              8.1418 ZZXY=             10.6067
 N-N= 7.147919897636D+02 E-N=-2.694414807296D+03  KE= 5.405727063800D+02
 Unable to Open any file for archive entry.
 1\1\GINC-NOTCH075\SP\RM062X\def2TZVP\C10H20O2\U6032257\03-Feb-2022\0\\
 # M062X/def2tzvp int=(grid=ultrafine) nmr=giao guess=read geom=check\\
 Ac1.xyz\\0,1\O,0,5.4212393013,-0.5709489683,0.504747391\C,0,4.77774529
 47,0.0341983889,-0.5282366379\C,0,3.3002000802,-0.2830410406,-0.531011
 6761\C,0,3.0044258812,-1.7919107421,-0.5476807604\C,0,3.5955500499,-2.
 503319195,-1.7692132045\C,0,3.2578802289,-4.0021924425,-1.8250542062\C
 ,0,1.7885248658,-4.3424498952,-2.1508157315\C,0,1.4821138773,-4.543698
 09,-3.6424128013\C,0,1.7138121831,-3.3233248741,-4.5385148878\C,0,1.26
 41029062,-3.549090438,-5.9851633692\C,0,1.5095611772,-2.3356561253,-6.
 8839509131\O,0,5.3583252587,0.7355251821,-1.3263844036\H,0,6.354896343
 ,-0.3142836096,0.4209502924\H,0,2.8714676484,0.2128409116,-1.404974232
 \H,0,2.8606621946,0.1696162362,0.3657984137\H,0,3.3988937569,-2.246472
 362,0.3677686582\H,0,1.9170456473,-1.9235048365,-0.521948115\H,0,3.253
 3825033,-2.0000003401,-2.6801446962\H,0,4.6868039279,-2.3886589731,-1.
 7489792956\H,0,3.9061640509,-4.4913454637,-2.5635397457\H,0,3.52583532
 14,-4.4426477948,-0.8560631786\H,0,1.5126636623,-5.2645186518,-1.62564
 88282\H,0,1.1262279839,-3.5644396094,-1.7488200002\H,0,0.434506718,-4.
 8585421282,-3.7426511673\H,0,2.0858387162,-5.3813077524,-4.0194404323\
 H,0,1.1790698921,-2.4566911503,-4.1238722406\H,0,2.777599205,-3.054684
 0812,-4.5375141797\H,0,1.7900284702,-4.4225166391,-6.3935498692\H,0,0.
 1964600641,-3.806285607,-5.9953222587\H,0,1.1793423849,-2.5215577954,-
 7.9108142556\H,0,0.970564039,-1.4561385653,-6.5142709334\H,0,2.5741663
 66,-2.0785535479,-6.9170727353\\Version=ES64L-G16RevC.01\State=1-A\HF=
 -543.5392808\RMSD=2.443e-09\Dipole=-0.3581949,-0.5702621,0.3860781\Qua
 drupole=2.2226747,-4.3922167,2.169542,-3.6565543,1.9238452,2.133618\PG
 =C01 [X(C10H20O2)]\\@
 The archive entry for this job was punched.


 A SLIP OF THE FOOT YOU MAY SOON RECOVER, BUT A SLIP OF THE TONGUE
 YOU MAY NEVER GET OVER. -- BEN FRANKLIN
 Job cpu time:       0 days  0 hours 37 minutes 52.3 seconds.
 Elapsed time:       0 days  0 hours  1 minutes 21.8 seconds.
 File lengths (MBytes):  RWF=    140 Int=      0 D2E=      0 Chk=     24 Scr=      1
 Normal termination of Gaussian 16 at Thu Feb  3 09:21:23 2022.
