 Entering Gaussian System, Link 0=/uufs/chpc.utah.edu/sys/installdir/gaussian16/C01/AVX2/g16/g16
 Input=Ac1_clust-11.com
 Output=Ac1_clust-11.log
 Initial command:
 /uufs/chpc.utah.edu/sys/installdir/gaussian16/C01/AVX2/g16/l1.exe "/scratch/general/lustre/u6032257/3857466/notchpeak.peaks/Gau-137552.inp" -scrdir="/scratch/general/lustre/u6032257/3857466/notchpeak.peaks/"
 Entering Link 1 = /uufs/chpc.utah.edu/sys/installdir/gaussian16/C01/AVX2/g16/l1.exe PID=    137554.
  
 Copyright (c) 1988-2019, Gaussian, Inc.  All Rights Reserved.
  
 This is part of the Gaussian(R) 16 program.  It is based on
 the Gaussian(R) 09 system (copyright 2009, Gaussian, Inc.),
 the Gaussian(R) 03 system (copyright 2003, Gaussian, Inc.),
 the Gaussian(R) 98 system (copyright 1998, Gaussian, Inc.),
 the Gaussian(R) 94 system (copyright 1995, Gaussian, Inc.),
 the Gaussian 92(TM) system (copyright 1992, Gaussian, Inc.),
 the Gaussian 90(TM) system (copyright 1990, Gaussian, Inc.),
 the Gaussian 88(TM) system (copyright 1988, Gaussian, Inc.),
 the Gaussian 86(TM) system (copyright 1986, Carnegie Mellon
 University), and the Gaussian 82(TM) system (copyright 1983,
 Carnegie Mellon University). Gaussian is a federally registered
 trademark of Gaussian, Inc.
  
 This software contains proprietary and confidential information,
 including trade secrets, belonging to Gaussian, Inc.
  
 This software is provided under written license and may be
 used, copied, transmitted, or stored only in accord with that
 written license.
  
 The following legend is applicable only to US Government
 contracts under FAR:
  
                    RESTRICTED RIGHTS LEGEND
  
 Use, reproduction and disclosure by the US Government is
 subject to restrictions as set forth in subparagraphs (a)
 and (c) of the Commercial Computer Software - Restricted
 Rights clause in FAR 52.227-19.
  
 Gaussian, Inc.
 340 Quinnipiac St., Bldg. 40, Wallingford CT 06492
  
  
 ---------------------------------------------------------------
 Warning -- This program may not be used in any manner that
 competes with the business of Gaussian, Inc. or will provide
 assistance to any competitor of Gaussian, Inc.  The licensee
 of this program is prohibited from giving any competitor of
 Gaussian, Inc. access to this program.  By using this program,
 the user acknowledges that Gaussian, Inc. is engaged in the
 business of creating and licensing software in the field of
 computational chemistry and represents and warrants to the
 licensee that it is not a competitor of Gaussian, Inc. and that
 it will not use this program in any manner prohibited above.
 ---------------------------------------------------------------
  

 Cite this work as:
 Gaussian 16, Revision C.01,
 M. J. Frisch, G. W. Trucks, H. B. Schlegel, G. E. Scuseria, 
 M. A. Robb, J. R. Cheeseman, G. Scalmani, V. Barone, 
 G. A. Petersson, H. Nakatsuji, X. Li, M. Caricato, A. V. Marenich, 
 J. Bloino, B. G. Janesko, R. Gomperts, B. Mennucci, H. P. Hratchian, 
 J. V. Ortiz, A. F. Izmaylov, J. L. Sonnenberg, D. Williams-Young, 
 F. Ding, F. Lipparini, F. Egidi, J. Goings, B. Peng, A. Petrone, 
 T. Henderson, D. Ranasinghe, V. G. Zakrzewski, J. Gao, N. Rega, 
 G. Zheng, W. Liang, M. Hada, M. Ehara, K. Toyota, R. Fukuda, 
 J. Hasegawa, M. Ishida, T. Nakajima, Y. Honda, O. Kitao, H. Nakai, 
 T. Vreven, K. Throssell, J. A. Montgomery, Jr., J. E. Peralta, 
 F. Ogliaro, M. J. Bearpark, J. J. Heyd, E. N. Brothers, K. N. Kudin, 
 V. N. Staroverov, T. A. Keith, R. Kobayashi, J. Normand, 
 K. Raghavachari, A. P. Rendell, J. C. Burant, S. S. Iyengar, 
 J. Tomasi, M. Cossi, J. M. Millam, M. Klene, C. Adamo, R. Cammi, 
 J. W. Ochterski, R. L. Martin, K. Morokuma, O. Farkas, 
 J. B. Foresman, and D. J. Fox, Gaussian, Inc., Wallingford CT, 2019.
 
 ******************************************
 Gaussian 16:  ES64L-G16RevC.01  3-Jul-2019
                 3-Feb-2022 
 ******************************************
 %NProcShared=32
 Will use up to   32 processors via shared memory.
 %mem=16GB
 %chk=Ac1_clust-11.chk
 ----------------------------------------------------------------------
 # B3LYP/6-31G(d,p) empiricaldispersion=GD3BJ int=(grid=ultrafine) opt 
 freq=noraman
 ----------------------------------------------------------------------
 1/18=20,19=15,26=4,38=1/1,3;
 2/9=110,12=2,17=6,18=5,40=1/2;
 3/5=1,6=6,7=101,11=2,25=1,30=1,71=1,74=-5,75=-5,124=41/1,2,3;
 4//1;
 5/5=2,38=5/2;
 6/7=2,8=2,9=2,10=2,28=1/1;
 7//1,2,3,16;
 1/18=20,19=15,26=4/3(2);
 2/9=110/2;
 99//99;
 2/9=110/2;
 3/5=1,6=6,7=101,11=2,25=1,30=1,71=1,74=-5,75=-5,124=41/1,2,3;
 4/5=5,16=3,69=1/1;
 5/5=2,38=5/2;
 7//1,2,3,16;
 1/18=20,19=15,26=4/3(-5);
 2/9=110/2;
 6/7=2,8=2,9=2,10=2,19=2,28=1/1;
 99/9=1/99;
 -------
 Ac1.xyz
 -------
 Symbolic Z-matrix:
 Charge =  0 Multiplicity = 1
 O                     5.9894   -0.8845   -0.782 
 C                     4.8164   -0.2164   -0.7389 
 C                     3.6269   -1.1006   -1.0964 
 C                     3.3872   -2.2536   -0.0937 
 C                     2.0254   -2.9654   -0.2425 
 C                     1.8095   -3.7179   -1.5744 
 C                     1.1491   -2.8724   -2.684 
 C                     0.8468   -3.6557   -3.9789 
 C                     2.0737   -4.2578   -4.7008 
 C                     3.177    -3.2542   -5.0951 
 C                     2.7092   -2.1541   -6.0608 
 O                     4.7288    0.9695   -0.4574 
 H                     6.6434   -0.2257   -0.547 
 H                     3.7948   -1.4834   -2.1013 
 H                     2.75     -0.4545   -1.1425 
 H                     4.1899   -2.9893   -0.1815 
 H                     3.4512   -1.869     0.9272 
 H                     1.9467   -3.6901    0.57 
 H                     1.2111   -2.2596   -0.0683 
 H                     2.7584   -4.1302   -1.9202 
 H                     1.17     -4.5816   -1.3833 
 H                     0.2106   -2.4649   -2.3045 
 H                     1.7591   -2.0036   -2.9244 
 H                     0.3124   -3.0012   -4.6691 
 H                     0.1451   -4.4597   -3.7506 
 H                     2.5122   -5.0372   -4.0762 
 H                     1.7311   -4.775    -5.5987 
 H                     3.604    -2.7993   -4.2006 
 H                     3.9979   -3.8023   -5.5603 
 H                     1.9546   -1.5134   -5.6039 
 H                     3.5423   -1.515    -6.355 
 H                     2.2825   -2.5789   -6.9701 
 

 GradGradGradGradGradGradGradGradGradGradGradGradGradGradGradGradGradGrad
 Berny optimization.
 Initialization pass.
                           ----------------------------
                           !    Initial Parameters    !
                           ! (Angstroms and Degrees)  !
 --------------------------                            --------------------------
 ! Name  Definition              Value          Derivative Info.                !
 --------------------------------------------------------------------------------
 ! R1    R(1,2)                  1.3506         estimate D2E/DX2                !
 ! R2    R(1,13)                 0.9576         estimate D2E/DX2                !
 ! R3    R(2,3)                  1.5246         estimate D2E/DX2                !
 ! R4    R(2,12)                 1.222          estimate D2E/DX2                !
 ! R5    R(3,4)                  1.5467         estimate D2E/DX2                !
 ! R6    R(3,14)                 1.0884         estimate D2E/DX2                !
 ! R7    R(3,15)                 1.0902         estimate D2E/DX2                !
 ! R8    R(4,5)                  1.5438         estimate D2E/DX2                !
 ! R9    R(4,16)                 1.0924         estimate D2E/DX2                !
 ! R10   R(4,17)                 1.0928         estimate D2E/DX2                !
 ! R11   R(5,6)                  1.5449         estimate D2E/DX2                !
 ! R12   R(5,18)                 1.0916         estimate D2E/DX2                !
 ! R13   R(5,19)                 1.0916         estimate D2E/DX2                !
 ! R14   R(6,7)                  1.5434         estimate D2E/DX2                !
 ! R15   R(6,20)                 1.0909         estimate D2E/DX2                !
 ! R16   R(6,21)                 1.0915         estimate D2E/DX2                !
 ! R17   R(7,8)                  1.5433         estimate D2E/DX2                !
 ! R18   R(7,22)                 1.0913         estimate D2E/DX2                !
 ! R19   R(7,23)                 1.0884         estimate D2E/DX2                !
 ! R20   R(8,9)                  1.5456         estimate D2E/DX2                !
 ! R21   R(8,24)                 1.091          estimate D2E/DX2                !
 ! R22   R(8,25)                 1.0913         estimate D2E/DX2                !
 ! R23   R(9,10)                 1.5427         estimate D2E/DX2                !
 ! R24   R(9,26)                 1.0908         estimate D2E/DX2                !
 ! R25   R(9,27)                 1.0914         estimate D2E/DX2                !
 ! R26   R(10,11)                1.5368         estimate D2E/DX2                !
 ! R27   R(10,28)                1.0906         estimate D2E/DX2                !
 ! R28   R(10,29)                1.0912         estimate D2E/DX2                !
 ! R29   R(11,30)                1.0903         estimate D2E/DX2                !
 ! R30   R(11,31)                1.0904         estimate D2E/DX2                !
 ! R31   R(11,32)                1.0906         estimate D2E/DX2                !
 ! A1    A(2,1,13)             104.1822         estimate D2E/DX2                !
 ! A2    A(1,2,3)              112.5338         estimate D2E/DX2                !
 ! A3    A(1,2,12)             123.344          estimate D2E/DX2                !
 ! A4    A(3,2,12)             124.1178         estimate D2E/DX2                !
 ! A5    A(2,3,4)              113.6545         estimate D2E/DX2                !
 ! A6    A(2,3,14)             107.4646         estimate D2E/DX2                !
 ! A7    A(2,3,15)             107.0831         estimate D2E/DX2                !
 ! A8    A(4,3,14)             111.1175         estimate D2E/DX2                !
 ! A9    A(4,3,15)             110.1545         estimate D2E/DX2                !
 ! A10   A(14,3,15)            107.0668         estimate D2E/DX2                !
 ! A11   A(3,4,5)              114.704          estimate D2E/DX2                !
 ! A12   A(3,4,16)             109.6377         estimate D2E/DX2                !
 ! A13   A(3,4,17)             109.5235         estimate D2E/DX2                !
 ! A14   A(5,4,16)             109.264          estimate D2E/DX2                !
 ! A15   A(5,4,17)             107.6962         estimate D2E/DX2                !
 ! A16   A(16,4,17)            105.6092         estimate D2E/DX2                !
 ! A17   A(4,5,6)              115.5275         estimate D2E/DX2                !
 ! A18   A(4,5,18)             107.3352         estimate D2E/DX2                !
 ! A19   A(4,5,19)             110.1532         estimate D2E/DX2                !
 ! A20   A(6,5,18)             107.9539         estimate D2E/DX2                !
 ! A21   A(6,5,19)             110.381          estimate D2E/DX2                !
 ! A22   A(18,5,19)            104.8742         estimate D2E/DX2                !
 ! A23   A(5,6,7)              114.3779         estimate D2E/DX2                !
 ! A24   A(5,6,20)             109.6223         estimate D2E/DX2                !
 ! A25   A(5,6,21)             108.4422         estimate D2E/DX2                !
 ! A26   A(7,6,20)             110.5696         estimate D2E/DX2                !
 ! A27   A(7,6,21)             107.9774         estimate D2E/DX2                !
 ! A28   A(20,6,21)            105.4298         estimate D2E/DX2                !
 ! A29   A(6,7,8)              114.1409         estimate D2E/DX2                !
 ! A30   A(6,7,22)             108.8158         estimate D2E/DX2                !
 ! A31   A(6,7,23)             110.8698         estimate D2E/DX2                !
 ! A32   A(8,7,22)             108.2319         estimate D2E/DX2                !
 ! A33   A(8,7,23)             109.2441         estimate D2E/DX2                !
 ! A34   A(22,7,23)            105.113          estimate D2E/DX2                !
 ! A35   A(7,8,9)              115.7294         estimate D2E/DX2                !
 ! A36   A(7,8,24)             108.8001         estimate D2E/DX2                !
 ! A37   A(7,8,25)             108.9266         estimate D2E/DX2                !
 ! A38   A(9,8,24)             109.0886         estimate D2E/DX2                !
 ! A39   A(9,8,25)             108.7305         estimate D2E/DX2                !
 ! A40   A(24,8,25)            105.0322         estimate D2E/DX2                !
 ! A41   A(8,9,10)             115.6994         estimate D2E/DX2                !
 ! A42   A(8,9,26)             109.2687         estimate D2E/DX2                !
 ! A43   A(8,9,27)             108.644          estimate D2E/DX2                !
 ! A44   A(10,9,26)            108.8855         estimate D2E/DX2                !
 ! A45   A(10,9,27)            108.8151         estimate D2E/DX2                !
 ! A46   A(26,9,27)            104.9917         estimate D2E/DX2                !
 ! A47   A(9,10,11)            114.1173         estimate D2E/DX2                !
 ! A48   A(9,10,28)            109.9821         estimate D2E/DX2                !
 ! A49   A(9,10,29)            108.6761         estimate D2E/DX2                !
 ! A50   A(11,10,28)           109.6335         estimate D2E/DX2                !
 ! A51   A(11,10,29)           108.7037         estimate D2E/DX2                !
 ! A52   A(28,10,29)           105.3452         estimate D2E/DX2                !
 ! A53   A(10,11,30)           111.5935         estimate D2E/DX2                !
 ! A54   A(10,11,31)           110.8874         estimate D2E/DX2                !
 ! A55   A(10,11,32)           111.359          estimate D2E/DX2                !
 ! A56   A(30,11,31)           107.3034         estimate D2E/DX2                !
 ! A57   A(30,11,32)           107.9096         estimate D2E/DX2                !
 ! A58   A(31,11,32)           107.5938         estimate D2E/DX2                !
 ! D1    D(13,1,2,3)           179.6485         estimate D2E/DX2                !
 ! D2    D(13,1,2,12)            0.3817         estimate D2E/DX2                !
 ! D3    D(1,2,3,4)             64.2751         estimate D2E/DX2                !
 ! D4    D(1,2,3,14)           -59.102          estimate D2E/DX2                !
 ! D5    D(1,2,3,15)          -173.8457         estimate D2E/DX2                !
 ! D6    D(12,2,3,4)          -116.4648         estimate D2E/DX2                !
 ! D7    D(12,2,3,14)          120.1581         estimate D2E/DX2                !
 ! D8    D(12,2,3,15)            5.4144         estimate D2E/DX2                !
 ! D9    D(2,3,4,5)            166.9088         estimate D2E/DX2                !
 ! D10   D(2,3,4,16)           -69.7423         estimate D2E/DX2                !
 ! D11   D(2,3,4,17)            45.7024         estimate D2E/DX2                !
 ! D12   D(14,3,4,5)           -71.7318         estimate D2E/DX2                !
 ! D13   D(14,3,4,16)           51.6171         estimate D2E/DX2                !
 ! D14   D(14,3,4,17)          167.0619         estimate D2E/DX2                !
 ! D15   D(15,3,4,5)            46.7507         estimate D2E/DX2                !
 ! D16   D(15,3,4,16)          170.0995         estimate D2E/DX2                !
 ! D17   D(15,3,4,17)          -74.4557         estimate D2E/DX2                !
 ! D18   D(3,4,5,6)             64.3982         estimate D2E/DX2                !
 ! D19   D(3,4,5,18)          -175.1429         estimate D2E/DX2                !
 ! D20   D(3,4,5,19)           -61.5019         estimate D2E/DX2                !
 ! D21   D(16,4,5,6)           -59.1504         estimate D2E/DX2                !
 ! D22   D(16,4,5,18)           61.3085         estimate D2E/DX2                !
 ! D23   D(16,4,5,19)          174.9495         estimate D2E/DX2                !
 ! D24   D(17,4,5,6)          -173.3993         estimate D2E/DX2                !
 ! D25   D(17,4,5,18)          -52.9404         estimate D2E/DX2                !
 ! D26   D(17,4,5,19)           60.7006         estimate D2E/DX2                !
 ! D27   D(4,5,6,7)            -91.1348         estimate D2E/DX2                !
 ! D28   D(4,5,6,20)            33.6908         estimate D2E/DX2                !
 ! D29   D(4,5,6,21)           148.3137         estimate D2E/DX2                !
 ! D30   D(18,5,6,7)           148.7433         estimate D2E/DX2                !
 ! D31   D(18,5,6,20)          -86.4312         estimate D2E/DX2                !
 ! D32   D(18,5,6,21)           28.1917         estimate D2E/DX2                !
 ! D33   D(19,5,6,7)            34.6489         estimate D2E/DX2                !
 ! D34   D(19,5,6,20)          159.4744         estimate D2E/DX2                !
 ! D35   D(19,5,6,21)          -85.9027         estimate D2E/DX2                !
 ! D36   D(5,6,7,8)           -175.9826         estimate D2E/DX2                !
 ! D37   D(5,6,7,22)           -54.9909         estimate D2E/DX2                !
 ! D38   D(5,6,7,23)            60.1403         estimate D2E/DX2                !
 ! D39   D(20,6,7,8)            59.6948         estimate D2E/DX2                !
 ! D40   D(20,6,7,22)         -179.3135         estimate D2E/DX2                !
 ! D41   D(20,6,7,23)          -64.1823         estimate D2E/DX2                !
 ! D42   D(21,6,7,8)           -55.1733         estimate D2E/DX2                !
 ! D43   D(21,6,7,22)           65.8184         estimate D2E/DX2                !
 ! D44   D(21,6,7,23)         -179.0504         estimate D2E/DX2                !
 ! D45   D(6,7,8,9)            -61.2971         estimate D2E/DX2                !
 ! D46   D(6,7,8,24)           175.5048         estimate D2E/DX2                !
 ! D47   D(6,7,8,25)            61.5277         estimate D2E/DX2                !
 ! D48   D(22,7,8,9)           177.3874         estimate D2E/DX2                !
 ! D49   D(22,7,8,24)           54.1893         estimate D2E/DX2                !
 ! D50   D(22,7,8,25)          -59.7877         estimate D2E/DX2                !
 ! D51   D(23,7,8,9)            63.4498         estimate D2E/DX2                !
 ! D52   D(23,7,8,24)          -59.7483         estimate D2E/DX2                !
 ! D53   D(23,7,8,25)         -173.7253         estimate D2E/DX2                !
 ! D54   D(7,8,9,10)           -56.8339         estimate D2E/DX2                !
 ! D55   D(7,8,9,26)            66.4485         estimate D2E/DX2                !
 ! D56   D(7,8,9,27)          -179.5254         estimate D2E/DX2                !
 ! D57   D(24,8,9,10)           66.2124         estimate D2E/DX2                !
 ! D58   D(24,8,9,26)         -170.5052         estimate D2E/DX2                !
 ! D59   D(24,8,9,27)          -56.4791         estimate D2E/DX2                !
 ! D60   D(25,8,9,10)         -179.7623         estimate D2E/DX2                !
 ! D61   D(25,8,9,26)          -56.4798         estimate D2E/DX2                !
 ! D62   D(25,8,9,27)           57.5463         estimate D2E/DX2                !
 ! D63   D(8,9,10,11)          -60.5635         estimate D2E/DX2                !
 ! D64   D(8,9,10,28)           63.113          estimate D2E/DX2                !
 ! D65   D(8,9,10,29)          177.9569         estimate D2E/DX2                !
 ! D66   D(26,9,10,11)         175.953          estimate D2E/DX2                !
 ! D67   D(26,9,10,28)         -60.3705         estimate D2E/DX2                !
 ! D68   D(26,9,10,29)          54.4734         estimate D2E/DX2                !
 ! D69   D(27,9,10,11)          62.0374         estimate D2E/DX2                !
 ! D70   D(27,9,10,28)        -174.286          estimate D2E/DX2                !
 ! D71   D(27,9,10,29)         -59.4422         estimate D2E/DX2                !
 ! D72   D(9,10,11,30)          64.1388         estimate D2E/DX2                !
 ! D73   D(9,10,11,31)        -176.2954         estimate D2E/DX2                !
 ! D74   D(9,10,11,32)         -56.5185         estimate D2E/DX2                !
 ! D75   D(28,10,11,30)        -59.7255         estimate D2E/DX2                !
 ! D76   D(28,10,11,31)         59.8402         estimate D2E/DX2                !
 ! D77   D(28,10,11,32)        179.6172         estimate D2E/DX2                !
 ! D78   D(29,10,11,30)       -174.3968         estimate D2E/DX2                !
 ! D79   D(29,10,11,31)        -54.831          estimate D2E/DX2                !
 ! D80   D(29,10,11,32)         64.9459         estimate D2E/DX2                !
 --------------------------------------------------------------------------------
 Trust Radius=3.00D-01 FncErr=1.00D-07 GrdErr=1.00D-06 EigMax=2.50D+02 EigMin=1.00D-04
 Number of steps in this run=    179 maximum allowed number of steps=    192.
 GradGradGradGradGradGradGradGradGradGradGradGradGradGradGradGradGradGrad

                          Input orientation:                          
 ---------------------------------------------------------------------
 Center     Atomic      Atomic             Coordinates (Angstroms)
 Number     Number       Type             X           Y           Z
 ---------------------------------------------------------------------
      1          8           0        5.989400   -0.884500   -0.782000
      2          6           0        4.816400   -0.216400   -0.738900
      3          6           0        3.626900   -1.100600   -1.096400
      4          6           0        3.387200   -2.253600   -0.093700
      5          6           0        2.025400   -2.965400   -0.242500
      6          6           0        1.809500   -3.717900   -1.574400
      7          6           0        1.149100   -2.872400   -2.684000
      8          6           0        0.846800   -3.655700   -3.978900
      9          6           0        2.073700   -4.257800   -4.700800
     10          6           0        3.177000   -3.254200   -5.095100
     11          6           0        2.709200   -2.154100   -6.060800
     12          8           0        4.728800    0.969500   -0.457400
     13          1           0        6.643400   -0.225700   -0.547000
     14          1           0        3.794800   -1.483400   -2.101300
     15          1           0        2.750000   -0.454500   -1.142500
     16          1           0        4.189900   -2.989300   -0.181500
     17          1           0        3.451200   -1.869000    0.927200
     18          1           0        1.946700   -3.690100    0.570000
     19          1           0        1.211100   -2.259600   -0.068300
     20          1           0        2.758400   -4.130200   -1.920200
     21          1           0        1.170000   -4.581600   -1.383300
     22          1           0        0.210600   -2.464900   -2.304500
     23          1           0        1.759100   -2.003600   -2.924400
     24          1           0        0.312400   -3.001200   -4.669100
     25          1           0        0.145100   -4.459700   -3.750600
     26          1           0        2.512200   -5.037200   -4.076200
     27          1           0        1.731100   -4.775000   -5.598700
     28          1           0        3.604000   -2.799300   -4.200600
     29          1           0        3.997900   -3.802300   -5.560300
     30          1           0        1.954600   -1.513400   -5.603900
     31          1           0        3.542300   -1.515000   -6.355000
     32          1           0        2.282500   -2.578900   -6.970100
 ---------------------------------------------------------------------
                    Distance matrix (angstroms):
                    1          2          3          4          5
     1  O    0.000000
     2  C    1.350609   0.000000
     3  C    2.393105   1.524640   0.000000
     4  C    3.019874   2.570813   1.546697   0.000000
     5  C    4.509379   3.948809   2.602196   1.543794   0.000000
     6  C    5.111518   4.690417   3.222062   2.612620   1.544936
     7  C    5.567572   4.928168   3.435002   3.478744   2.595664
     8  C    6.659283   6.171232   4.750400   4.849154   3.978228
     9  C    6.486051   6.289036   5.037067   5.193021   4.642098
    10  C    5.668148   5.558088   4.563990   5.104840   4.995730
    11  C    6.343290   6.042979   5.157257   6.006319   5.914254
    12  O    2.265346   1.221996   2.430600   3.510063   4.778911
    13  H    0.957579   1.837074   3.188505   3.862732   5.378160
    14  H    2.629734   2.122520   1.088370   2.188562   2.963484
    15  H    3.287639   2.118866   1.090194   2.177789   2.763994
    16  H    2.833546   2.896924   2.172832   1.092378   2.165491
    17  H    3.214508   2.714912   2.171697   1.092817   2.145506
    18  H    5.103207   4.692013   3.507916   2.139876   1.091577
    19  H    5.023188   4.197923   2.869906   2.176257   1.091597
    20  H    4.719050   4.576971   3.257517   2.693162   2.169960
    21  H    6.103829   5.724199   4.270367   3.463904   2.155281
    22  H    6.181440   5.359128   3.871941   3.875961   2.792104
    23  H    4.872135   4.161439   2.765080   3.275068   2.861566
    24  H    7.198493   6.594513   5.230906   5.563055   4.746624
    25  H    7.466625   6.992637   5.518266   5.361997   4.251497
    26  H    6.339368   6.299764   5.061480   4.937040   4.384813
    27  H    7.514633   7.342858   6.112772   6.277352   5.661285
    28  H    4.587311   4.486051   3.538667   4.148665   4.264519
    29  H    5.942372   6.064200   5.230987   5.714468   5.733250
    30  H    6.318690   5.791402   4.825406   5.741301   5.554991
    31  H    6.119163   5.903412   5.275581   6.306621   6.462763
    32  H    7.409769   7.129510   6.204284   6.972163   6.743596
                    6          7          8          9         10
     6  C    0.000000
     7  C    1.543441   0.000000
     8  C    2.590807   1.543279   0.000000
     9  C    3.183657   2.615664   1.545622   0.000000
    10  C    3.805312   3.173571   2.614754   1.542711   0.000000
    11  C    4.835568   3.788489   3.171379   2.584379   1.536761
    12  O    5.633979   5.703700   6.990233   7.237449   6.461887
    13  H    6.051248   6.462130   7.559326   7.375232   6.470932
    14  H    3.035133   3.044436   4.115212   4.173354   3.532739
    15  H    3.423574   3.284105   4.681348   5.252045   4.862478
    16  H    2.852601   3.939878   5.103004   5.148929   5.023903
    17  H    3.517330   4.398550   5.834810   6.267237   6.185634
    18  H    2.148964   3.448669   4.680113   5.302805   5.813519
    19  H    2.180151   2.687239   4.168285   5.118294   5.488416
    20  H    1.090862   2.180665   2.849142   2.866502   3.320029
    21  H    1.091539   2.147934   2.774687   3.453596   4.423517
    22  H    2.158596   1.091265   2.150900   3.525321   4.148490
    23  H    2.182628   1.088442   2.161873   2.887211   2.878607
    24  H    3.511714   2.158073   1.091022   2.163845   2.907132
    25  H    2.838369   2.159901   1.091293   2.159431   3.528927
    26  H    2.914334   2.912494   2.166002   1.090812   2.158519
    27  H    4.161562   3.529035   2.158372   1.091373   2.158025
    28  H    3.310737   2.886512   2.895639   2.172381   1.090593
    29  H    4.547924   4.153731   3.528704   2.156100   1.091193
    30  H    4.595405   3.319869   2.908143   2.891627   2.187127
    31  H    5.541615   4.587612   4.182603   3.523651   2.178442
    32  H    5.534856   4.443129   3.488268   2.830552   2.184442
                   11         12         13         14         15
    11  C    0.000000
    12  O    6.725604   0.000000
    13  H    7.042631   2.258810   0.000000
    14  H    4.160049   3.097012   3.480256   0.000000
    15  H    5.203843   2.532348   3.945318   1.752010   0.000000
    16  H    6.120147   4.004826   3.713588   2.471734   3.069535
    17  H    7.033064   3.406826   3.881216   3.072224   2.603104
    18  H    6.848957   5.523360   5.942116   3.926938   3.747940
    19  H    6.177822   4.790898   5.820291   3.378029   2.603940
    20  H    4.588242   5.659435   5.676621   2.848240   3.757081
    21  H    5.490073   6.658608   7.044954   4.123584   4.425759
    22  H    4.522100   5.968334   7.034468   3.721710   3.441003
    23  H    3.280601   4.872836   5.715710   2.256585   2.560617
    24  H    2.898113   7.280760   8.048395   4.585240   4.986430
    25  H    4.150593   7.831455   8.391526   4.989876   5.443282
    26  H    3.505669   7.354555   7.257589   4.263190   5.446493
    27  H    2.835372   8.271545   8.387282   5.227360   6.289880
    28  H    2.162705   5.429602   5.404643   2.484966   3.947072
    29  H    2.151235   7.024520   6.702530   4.169320   5.681723
    30  H    1.090264   6.351963   7.015358   3.956696   4.653818
    31  H    1.090439   6.508626   6.709097   4.261305   5.377969
    32  H    1.090575   7.809660   8.112411   5.214632   6.220334
                   16         17         18         19         20
    16  H    0.000000
    17  H    1.740680   0.000000
    18  H    2.467351   2.389041   0.000000
    19  H    3.068962   2.482264   1.730568   0.000000
    20  H    2.524663   3.701444   2.655869   3.053329   0.000000
    21  H    3.619328   4.230896   2.283291   2.668820   1.736387
    22  H    4.540589   4.615243   3.574620   2.458402   3.067930
    23  H    3.795246   4.209055   3.884624   2.919443   2.555278
    24  H    5.930742   6.515560   5.531156   4.746050   3.848897
    25  H    5.591150   6.286799   4.744010   4.419969   3.207534
    26  H    4.709274   5.996101   4.870487   5.046899   2.351935
    27  H    6.211319   7.347853   6.267085   6.097783   3.873303
    28  H    4.066023   5.213745   5.128235   4.805533   2.772464
    29  H    5.443282   6.791479   6.465337   6.348877   3.859301
    30  H    6.047914   6.709809   6.546383   5.634933   4.589486
    31  H    6.380051   7.291368   7.431865   6.746223   5.207804
    32  H    7.063405   8.014809   7.628934   6.991759   5.304197
                   21         22         23         24         25
    21  H    0.000000
    22  H    2.499895   0.000000
    23  H    3.060737   1.730585   0.000000
    24  H    3.745614   2.426791   2.476313   0.000000
    25  H    2.582516   2.464695   3.052872   1.731720   0.000000
    26  H    3.043153   3.879821   3.331146   3.055478   2.458187
    27  H    4.256975   4.301190   3.851405   2.454227   2.455664
    28  H    4.127727   3.901561   2.380227   3.330899   3.863084
    29  H    5.104082   5.170349   3.898143   3.875424   4.307117
    30  H    5.276638   3.851354   2.730977   2.405041   3.922970
    31  H    6.304732   5.330017   3.897121   3.934883   5.195683
    32  H    6.038278   5.106230   4.119782   3.058469   4.297798
                   26         27         28         29         30
    26  H    0.000000
    27  H    1.731148   0.000000
    28  H    2.493130   3.060364   0.000000
    29  H    2.436152   2.466982   1.734921   0.000000
    30  H    3.880973   3.269253   2.518593   3.068557   0.000000
    31  H    4.319714   3.805264   2.508919   2.463912   1.756401
    32  H    3.804032   2.647194   3.076535   2.535121   1.763324
                   31         32
    31  H    0.000000
    32  H    1.759923   0.000000
 Stoichiometry    C10H20O2
 Framework group  C1[X(C10H20O2)]
 Deg. of freedom    90
 Full point group                 C1      NOp   1
 Largest Abelian subgroup         C1      NOp   1
 Largest concise Abelian subgroup C1      NOp   1
                         Standard orientation:                         
 ---------------------------------------------------------------------
 Center     Atomic      Atomic             Coordinates (Angstroms)
 Number     Number       Type             X           Y           Z
 ---------------------------------------------------------------------
      1          8           0        3.224801   -1.205226    1.115496
      2          6           0        3.029529   -0.815249   -0.162757
      3          6           0        1.758771    0.009524   -0.334363
      4          6           0        1.787703    1.358553    0.421649
      5          6           0        0.671311    2.346730    0.021056
      6          6           0       -0.769152    1.889478    0.341700
      7          6           0       -1.460351    1.113990   -0.799822
      8          6           0       -2.930983    0.744999   -0.512078
      9          6           0       -3.165772   -0.173879    0.708367
     10          6           0       -2.417938   -1.522988    0.683731
     11          6           0       -2.785495   -2.423036   -0.506415
     12          8           0        3.785506   -1.107777   -1.077198
     13          1           0        4.037817   -1.710241    1.085116
     14          1           0        0.923152   -0.605906   -0.006434
     15          1           0        1.629966    0.180667   -1.403308
     16          1           0        1.739561    1.177393    1.497825
     17          1           0        2.746779    1.853264    0.249355
     18          1           0        0.855250    3.279838    0.556796
     19          1           0        0.761135    2.607611   -1.035095
     20          1           0       -0.770859    1.301388    1.260464
     21          1           0       -1.371103    2.773135    0.561389
     22          1           0       -1.431797    1.721643   -1.705803
     23          1           0       -0.905478    0.210650   -1.046398
     24          1           0       -3.355584    0.274278   -1.400033
     25          1           0       -3.505956    1.662461   -0.375733
     26          1           0       -2.897021    0.362194    1.619559
     27          1           0       -4.236172   -0.366385    0.799364
     28          1           0       -1.340844   -1.352312    0.695178
     29          1           0       -2.635090   -2.059810    1.608592
     30          1           0       -2.496110   -1.971260   -1.455536
     31          1           0       -2.277838   -3.385615   -0.437251
     32          1           0       -3.858002   -2.617711   -0.540843
 ---------------------------------------------------------------------
 Rotational constants (GHZ):           1.0876905           0.4140478           0.3371501
 Standard basis: 6-31G(d,p) (6D, 7F)
 There are   280 symmetry adapted cartesian basis functions of A   symmetry.
 There are   280 symmetry adapted basis functions of A   symmetry.
   280 basis functions,   476 primitive gaussians,   280 cartesian basis functions
    48 alpha electrons       48 beta electrons
       nuclear repulsion energy       727.5010095627 Hartrees.
 NAtoms=   32 NActive=   32 NUniq=   32 SFac= 1.00D+00 NAtFMM=   60 NAOKFM=F Big=F
 Integral buffers will be    131072 words long.
 Raffenetti 2 integral format.
 Two-electron integral symmetry is turned on.
 Nuclear repulsion after empirical dispersion term =      727.4514033348 Hartrees.
 One-electron integrals computed using PRISM.
 NBasis=   280 RedAO= T EigKep=  3.29D-03  NBF=   280
 NBsUse=   280 1.00D-06 EigRej= -1.00D+00 NBFU=   280
 ExpMin= 1.61D-01 ExpMax= 5.48D+03 ExpMxC= 8.25D+02 IAcc=3 IRadAn=         5 AccDes= 0.00D+00
 Harris functional with IExCor=  402 and IRadAn=       5 diagonalized for initial guess.
 HarFok:  IExCor=  402 AccDes= 0.00D+00 IRadAn=         5 IDoV= 1 UseB2=F ITyADJ=14
 ICtDFT=  3500011 ScaDFX=  1.000000  1.000000  1.000000  1.000000
 FoFCou: FMM=F IPFlag=           0 FMFlag=      100000 FMFlg1=           0
         NFxFlg=           0 DoJE=T BraDBF=F KetDBF=T FulRan=T
         wScrn=  0.000000 ICntrl=       500 IOpCl=  0 I1Cent=   200000004 NGrid=           0
         NMat0=    1 NMatS0=      1 NMatT0=    0 NMatD0=    1 NMtDS0=    0 NMtDT0=    0
 Petite list used in FoFCou.
 Requested convergence on RMS density matrix=1.00D-08 within 128 cycles.
 Requested convergence on MAX density matrix=1.00D-06.
 Requested convergence on             energy=1.00D-06.
 No special actions if energy rises.
 Integral accuracy reduced to 1.0D-05 until final iterations.
 Initial convergence to 1.0D-05 achieved.  Increase integral accuracy.
 SCF Done:  E(RB3LYP) =  -543.661565565     A.U. after   13 cycles
            NFock= 13  Conv=0.86D-08     -V/T= 2.0096

 **********************************************************************

            Population analysis using the SCF Density.

 **********************************************************************

 Orbital symmetries:
       Occupied  (A) (A) (A) (A) (A) (A) (A) (A) (A) (A) (A) (A)
                 (A) (A) (A) (A) (A) (A) (A) (A) (A) (A) (A) (A)
                 (A) (A) (A) (A) (A) (A) (A) (A) (A) (A) (A) (A)
                 (A) (A) (A) (A) (A) (A) (A) (A) (A) (A) (A) (A)
       Virtual   (A) (A) (A) (A) (A) (A) (A) (A) (A) (A) (A) (A)
                 (A) (A) (A) (A) (A) (A) (A) (A) (A) (A) (A) (A)
                 (A) (A) (A) (A) (A) (A) (A) (A) (A) (A) (A) (A)
                 (A) (A) (A) (A) (A) (A) (A) (A) (A) (A) (A) (A)
                 (A) (A) (A) (A) (A) (A) (A) (A) (A) (A) (A) (A)
                 (A) (A) (A) (A) (A) (A) (A) (A) (A) (A) (A) (A)
                 (A) (A) (A) (A) (A) (A) (A) (A) (A) (A) (A) (A)
                 (A) (A) (A) (A) (A) (A) (A) (A) (A) (A) (A) (A)
                 (A) (A) (A) (A) (A) (A) (A) (A) (A) (A) (A) (A)
                 (A) (A) (A) (A) (A) (A) (A) (A) (A) (A) (A) (A)
                 (A) (A) (A) (A) (A) (A) (A) (A) (A) (A) (A) (A)
                 (A) (A) (A) (A) (A) (A) (A) (A) (A) (A) (A) (A)
                 (A) (A) (A) (A) (A) (A) (A) (A) (A) (A) (A) (A)
                 (A) (A) (A) (A) (A) (A) (A) (A) (A) (A) (A) (A)
                 (A) (A) (A) (A) (A) (A) (A) (A) (A) (A) (A) (A)
                 (A) (A) (A) (A) (A) (A) (A) (A) (A) (A) (A) (A)
                 (A) (A) (A) (A) (A) (A) (A) (A) (A) (A) (A) (A)
                 (A) (A) (A) (A) (A) (A) (A) (A) (A) (A) (A) (A)
                 (A) (A) (A) (A) (A) (A) (A) (A) (A) (A) (A) (A)
                 (A) (A) (A) (A)
 The electronic state is 1-A.
 Alpha  occ. eigenvalues --  -19.19835 -19.13558 -10.31904 -10.19769 -10.19197
 Alpha  occ. eigenvalues --  -10.18382 -10.17975 -10.17891 -10.17749 -10.17650
 Alpha  occ. eigenvalues --  -10.17622 -10.17112  -1.10667  -1.00966  -0.81484
 Alpha  occ. eigenvalues --   -0.79594  -0.76424  -0.72979  -0.68894  -0.65174
 Alpha  occ. eigenvalues --   -0.61634  -0.59705  -0.57693  -0.54725  -0.49391
 Alpha  occ. eigenvalues --   -0.48094  -0.47047  -0.46082  -0.45690  -0.43612
 Alpha  occ. eigenvalues --   -0.43312  -0.42388  -0.40753  -0.39932  -0.39021
 Alpha  occ. eigenvalues --   -0.38417  -0.37465  -0.36558  -0.35547  -0.34802
 Alpha  occ. eigenvalues --   -0.33548  -0.32956  -0.32566  -0.31557  -0.31118
 Alpha  occ. eigenvalues --   -0.30860  -0.30348  -0.26737
 Alpha virt. eigenvalues --    0.00900   0.06807   0.08098   0.09861   0.10126
 Alpha virt. eigenvalues --    0.11151   0.13275   0.13493   0.14572   0.15067
 Alpha virt. eigenvalues --    0.15872   0.16124   0.16409   0.16997   0.17778
 Alpha virt. eigenvalues --    0.19127   0.19711   0.20286   0.21035   0.21821
 Alpha virt. eigenvalues --    0.21937   0.22585   0.23391   0.24277   0.25225
 Alpha virt. eigenvalues --    0.25465   0.26919   0.27919   0.29240   0.30884
 Alpha virt. eigenvalues --    0.33992   0.35968   0.49367   0.50142   0.50327
 Alpha virt. eigenvalues --    0.51467   0.51581   0.53047   0.53818   0.54236
 Alpha virt. eigenvalues --    0.56523   0.57078   0.57988   0.61146   0.63136
 Alpha virt. eigenvalues --    0.63348   0.64634   0.65937   0.66084   0.67042
 Alpha virt. eigenvalues --    0.68509   0.69105   0.70721   0.72134   0.73220
 Alpha virt. eigenvalues --    0.75390   0.76461   0.77574   0.79135   0.82826
 Alpha virt. eigenvalues --    0.83483   0.84521   0.85384   0.86029   0.86140
 Alpha virt. eigenvalues --    0.86359   0.87479   0.87944   0.88731   0.89851
 Alpha virt. eigenvalues --    0.90986   0.91277   0.92640   0.93416   0.93483
 Alpha virt. eigenvalues --    0.94624   0.94851   0.95702   0.96863   0.98312
 Alpha virt. eigenvalues --    0.99831   1.00433   1.03202   1.05327   1.06126
 Alpha virt. eigenvalues --    1.07331   1.07953   1.10711   1.15262   1.17649
 Alpha virt. eigenvalues --    1.20720   1.27835   1.29327   1.31094   1.35241
 Alpha virt. eigenvalues --    1.37207   1.39277   1.40191   1.41998   1.46472
 Alpha virt. eigenvalues --    1.49068   1.49892   1.55284   1.56973   1.58457
 Alpha virt. eigenvalues --    1.59167   1.60609   1.62384   1.65510   1.66814
 Alpha virt. eigenvalues --    1.68652   1.70703   1.71632   1.73221   1.75931
 Alpha virt. eigenvalues --    1.76222   1.78226   1.80784   1.81212   1.81830
 Alpha virt. eigenvalues --    1.83601   1.84631   1.85131   1.86966   1.87425
 Alpha virt. eigenvalues --    1.89021   1.91867   1.92960   1.93965   1.95335
 Alpha virt. eigenvalues --    1.99868   2.00968   2.04074   2.05935   2.06602
 Alpha virt. eigenvalues --    2.09344   2.11807   2.12853   2.13604   2.15324
 Alpha virt. eigenvalues --    2.16079   2.17855   2.19034   2.19463   2.21715
 Alpha virt. eigenvalues --    2.22290   2.24578   2.25313   2.26109   2.27211
 Alpha virt. eigenvalues --    2.27606   2.28881   2.30106   2.30618   2.33564
 Alpha virt. eigenvalues --    2.34342   2.35745   2.36403   2.39362   2.39979
 Alpha virt. eigenvalues --    2.42445   2.44384   2.46496   2.47737   2.49205
 Alpha virt. eigenvalues --    2.52136   2.53200   2.53953   2.55421   2.57216
 Alpha virt. eigenvalues --    2.59891   2.62155   2.63356   2.64413   2.67325
 Alpha virt. eigenvalues --    2.68987   2.69499   2.71170   2.72223   2.73440
 Alpha virt. eigenvalues --    2.74462   2.78236   2.79397   2.80118   2.80564
 Alpha virt. eigenvalues --    2.82097   2.83766   2.87231   2.88426   2.89042
 Alpha virt. eigenvalues --    2.90563   2.91097   2.91819   2.91989   2.92286
 Alpha virt. eigenvalues --    2.92864   2.94141   2.95207   3.03532   3.11958
 Alpha virt. eigenvalues --    3.20135   3.25477   3.29752   3.31735   3.32508
 Alpha virt. eigenvalues --    3.33332   3.34679   3.37587   3.38545   3.39543
 Alpha virt. eigenvalues --    3.42449   3.44708   3.45525   3.46464   3.49938
 Alpha virt. eigenvalues --    3.54477   3.55295   3.56729   3.59295   3.60565
 Alpha virt. eigenvalues --    3.91770   4.11245   4.24082   4.30608   4.34826
 Alpha virt. eigenvalues --    4.43267   4.52621   4.60790   4.63509   4.67555
 Alpha virt. eigenvalues --    4.73067   4.76294
          Condensed to atoms (all electrons):
               1          2          3          4          5          6
     1  O    8.122792   0.245706  -0.101305   0.004356   0.000066  -0.000002
     2  C    0.245706   4.393243   0.337795  -0.023099   0.002440   0.000038
     3  C   -0.101305   0.337795   5.111831   0.342447  -0.040495  -0.001759
     4  C    0.004356  -0.023099   0.342447   4.897539   0.375193  -0.039317
     5  C    0.000066   0.002440  -0.040495   0.375193   4.920921   0.363175
     6  C   -0.000002   0.000038  -0.001759  -0.039317   0.363175   4.910775
     7  C    0.000000   0.000109  -0.000087  -0.002057  -0.034890   0.381330
     8  C    0.000000  -0.000001  -0.000039   0.000012   0.003784  -0.040567
     9  C    0.000000  -0.000000   0.000033  -0.000015   0.000105  -0.003885
    10  C    0.000001   0.000003  -0.000398   0.000012   0.000023  -0.001868
    11  C   -0.000000  -0.000001   0.000009  -0.000000  -0.000000   0.000126
    12  O   -0.083903   0.577886  -0.073459  -0.000374  -0.000069   0.000001
    13  H    0.268091  -0.009483   0.010922  -0.000233   0.000009  -0.000000
    14  H    0.002652  -0.024311   0.357112  -0.027080  -0.004724   0.003604
    15  H    0.003441  -0.033672   0.378147  -0.034323  -0.003914  -0.001350
    16  H    0.003459  -0.004455  -0.036357   0.382512  -0.034161  -0.007398
    17  H   -0.000050  -0.002123  -0.046299   0.384083  -0.034982   0.004770
    18  H    0.000001  -0.000103   0.005086  -0.033469   0.375043  -0.032588
    19  H   -0.000001  -0.000087  -0.007025  -0.037018   0.382958  -0.042944
    20  H   -0.000001  -0.000059  -0.000674  -0.007433  -0.041983   0.385179
    21  H   -0.000000   0.000002  -0.000010   0.004187  -0.032659   0.379934
    22  H    0.000000  -0.000007  -0.000086  -0.000027  -0.006015  -0.038966
    23  H   -0.000002   0.000127   0.001271   0.000076  -0.001166  -0.043808
    24  H    0.000000   0.000000   0.000003   0.000001  -0.000137   0.004724
    25  H   -0.000000   0.000000  -0.000000  -0.000002   0.000020  -0.006812
    26  H    0.000000   0.000000   0.000005  -0.000001  -0.000074   0.003359
    27  H    0.000000  -0.000000  -0.000001   0.000000  -0.000002   0.000043
    28  H   -0.000011  -0.000010  -0.000529   0.000044  -0.000081  -0.000096
    29  H   -0.000000   0.000000   0.000008  -0.000000   0.000001   0.000017
    30  H    0.000000  -0.000000  -0.000001   0.000000   0.000001  -0.000004
    31  H    0.000000   0.000000   0.000000  -0.000000  -0.000000  -0.000001
    32  H    0.000000   0.000000  -0.000000  -0.000000   0.000000  -0.000003
               7          8          9         10         11         12
     1  O    0.000000   0.000000   0.000000   0.000001  -0.000000  -0.083903
     2  C    0.000109  -0.000001  -0.000000   0.000003  -0.000001   0.577886
     3  C   -0.000087  -0.000039   0.000033  -0.000398   0.000009  -0.073459
     4  C   -0.002057   0.000012  -0.000015   0.000012  -0.000000  -0.000374
     5  C   -0.034890   0.003784   0.000105   0.000023  -0.000000  -0.000069
     6  C    0.381330  -0.040567  -0.003885  -0.001868   0.000126   0.000001
     7  C    4.911407   0.366489  -0.044230  -0.002344  -0.002022  -0.000000
     8  C    0.366489   4.919479   0.376086  -0.045496  -0.003375  -0.000000
     9  C   -0.044230   0.376086   4.904245   0.379854  -0.047006   0.000000
    10  C   -0.002344  -0.045496   0.379854   4.881447   0.374932  -0.000000
    11  C   -0.002022  -0.003375  -0.047006   0.374932   4.915665   0.000000
    12  O   -0.000000  -0.000000   0.000000  -0.000000   0.000000   8.031113
    13  H    0.000000  -0.000000  -0.000000   0.000000  -0.000000   0.011558
    14  H   -0.002381   0.000057  -0.000017  -0.000031   0.000010   0.001999
    15  H   -0.000221   0.000007   0.000002   0.000005  -0.000001   0.002231
    16  H   -0.000121   0.000008  -0.000006   0.000000  -0.000000   0.000001
    17  H   -0.000102   0.000002   0.000000  -0.000000   0.000000   0.000975
    18  H    0.004163  -0.000182   0.000004  -0.000000   0.000000   0.000000
    19  H   -0.008232   0.000186   0.000002  -0.000002  -0.000000  -0.000002
    20  H   -0.039204  -0.004290   0.002702   0.000292  -0.000006   0.000000
    21  H   -0.040670  -0.003665  -0.001003   0.000120  -0.000004   0.000000
    22  H    0.379169  -0.031587   0.004986   0.000012   0.000012   0.000000
    23  H    0.383890  -0.036253  -0.007939   0.003849   0.000255  -0.000003
    24  H   -0.032815   0.377400  -0.038195  -0.007224   0.003913  -0.000000
    25  H   -0.039074   0.378267  -0.033893   0.005148  -0.000001  -0.000000
    26  H   -0.006999  -0.038525   0.379567  -0.035626   0.005178   0.000000
    27  H    0.005061  -0.034148   0.378169  -0.039066  -0.006353  -0.000000
    28  H    0.003925  -0.007749  -0.037877   0.384794  -0.040895   0.000000
    29  H    0.000008   0.005012  -0.032692   0.383243  -0.039566   0.000000
    30  H    0.000135   0.002932  -0.005458  -0.034820   0.388741   0.000000
    31  H    0.000016   0.000076   0.004456  -0.028273   0.381742  -0.000000
    32  H    0.000130  -0.000878  -0.004065  -0.035653   0.387097  -0.000000
              13         14         15         16         17         18
     1  O    0.268091   0.002652   0.003441   0.003459  -0.000050   0.000001
     2  C   -0.009483  -0.024311  -0.033672  -0.004455  -0.002123  -0.000103
     3  C    0.010922   0.357112   0.378147  -0.036357  -0.046299   0.005086
     4  C   -0.000233  -0.027080  -0.034323   0.382512   0.384083  -0.033469
     5  C    0.000009  -0.004724  -0.003914  -0.034161  -0.034982   0.375043
     6  C   -0.000000   0.003604  -0.001350  -0.007398   0.004770  -0.032588
     7  C    0.000000  -0.002381  -0.000221  -0.000121  -0.000102   0.004163
     8  C   -0.000000   0.000057   0.000007   0.000008   0.000002  -0.000182
     9  C   -0.000000  -0.000017   0.000002  -0.000006   0.000000   0.000004
    10  C    0.000000  -0.000031   0.000005   0.000000  -0.000000  -0.000000
    11  C   -0.000000   0.000010  -0.000001  -0.000000   0.000000   0.000000
    12  O    0.011558   0.001999   0.002231   0.000001   0.000975   0.000000
    13  H    0.401653  -0.000483  -0.000341  -0.000076  -0.000144  -0.000000
    14  H   -0.000483   0.588914  -0.033812  -0.007102   0.005651  -0.000053
    15  H   -0.000341  -0.033812   0.585015   0.005266  -0.002944   0.000068
    16  H   -0.000076  -0.007102   0.005266   0.616938  -0.037810  -0.004074
    17  H   -0.000144   0.005651  -0.002944  -0.037810   0.633529  -0.004412
    18  H   -0.000000  -0.000053   0.000068  -0.004074  -0.004412   0.643384
    19  H    0.000000  -0.000276   0.004962   0.005646  -0.003495  -0.038703
    20  H   -0.000000   0.000346   0.000219   0.005085   0.000162   0.000923
    21  H    0.000000  -0.000056  -0.000012   0.000105  -0.000221  -0.009270
    22  H   -0.000000   0.000040   0.000234   0.000010   0.000012   0.000147
    23  H    0.000000   0.000711   0.001530   0.000107  -0.000059  -0.000057
    24  H    0.000000  -0.000003  -0.000001  -0.000000  -0.000000   0.000003
    25  H    0.000000  -0.000003   0.000000   0.000000  -0.000000  -0.000005
    26  H   -0.000000  -0.000006  -0.000000  -0.000003  -0.000000   0.000005
    27  H   -0.000000   0.000002  -0.000000   0.000000   0.000000  -0.000000
    28  H   -0.000000   0.004691  -0.000021   0.000013   0.000001  -0.000000
    29  H   -0.000000  -0.000027  -0.000000  -0.000000   0.000000  -0.000000
    30  H   -0.000000  -0.000007  -0.000001   0.000000   0.000000  -0.000000
    31  H    0.000000   0.000004  -0.000000  -0.000000  -0.000000   0.000000
    32  H    0.000000   0.000002   0.000000   0.000000  -0.000000  -0.000000
              19         20         21         22         23         24
     1  O   -0.000001  -0.000001  -0.000000   0.000000  -0.000002   0.000000
     2  C   -0.000087  -0.000059   0.000002  -0.000007   0.000127   0.000000
     3  C   -0.007025  -0.000674  -0.000010  -0.000086   0.001271   0.000003
     4  C   -0.037018  -0.007433   0.004187  -0.000027   0.000076   0.000001
     5  C    0.382958  -0.041983  -0.032659  -0.006015  -0.001166  -0.000137
     6  C   -0.042944   0.385179   0.379934  -0.038966  -0.043808   0.004724
     7  C   -0.008232  -0.039204  -0.040670   0.379169   0.383890  -0.032815
     8  C    0.000186  -0.004290  -0.003665  -0.031587  -0.036253   0.377400
     9  C    0.000002   0.002702  -0.001003   0.004986  -0.007939  -0.038195
    10  C   -0.000002   0.000292   0.000120   0.000012   0.003849  -0.007224
    11  C   -0.000000  -0.000006  -0.000004   0.000012   0.000255   0.003913
    12  O   -0.000002   0.000000   0.000000   0.000000  -0.000003  -0.000000
    13  H    0.000000  -0.000000   0.000000  -0.000000   0.000000   0.000000
    14  H   -0.000276   0.000346  -0.000056   0.000040   0.000711  -0.000003
    15  H    0.004962   0.000219  -0.000012   0.000234   0.001530  -0.000001
    16  H    0.005646   0.005085   0.000105   0.000010   0.000107  -0.000000
    17  H   -0.003495   0.000162  -0.000221   0.000012  -0.000059  -0.000000
    18  H   -0.038703   0.000923  -0.009270   0.000147  -0.000057   0.000003
    19  H    0.636119   0.005453   0.000719   0.005736   0.000187  -0.000011
    20  H    0.005453   0.635675  -0.040277   0.005932  -0.005798  -0.000001
    21  H    0.000719  -0.040277   0.644460  -0.005930   0.006226  -0.000001
    22  H    0.005736   0.005932  -0.005930   0.645214  -0.040684  -0.003497
    23  H    0.000187  -0.005798   0.006226  -0.040684   0.640119  -0.004450
    24  H   -0.000011  -0.000001  -0.000001  -0.003497  -0.004450   0.645595
    25  H    0.000006  -0.000345   0.005597  -0.004407   0.006141  -0.039291
    26  H   -0.000001   0.001644   0.000468  -0.000031  -0.000023   0.006070
    27  H    0.000000  -0.000073  -0.000034  -0.000157  -0.000021  -0.004696
    28  H    0.000003   0.001000  -0.000021  -0.000053  -0.000489  -0.000073
    29  H    0.000000  -0.000045  -0.000000  -0.000001  -0.000068  -0.000015
    30  H    0.000000  -0.000003   0.000001  -0.000047   0.001410   0.001117
    31  H    0.000000   0.000000   0.000000   0.000001  -0.000039  -0.000114
    32  H   -0.000000   0.000001   0.000000  -0.000001  -0.000036   0.000391
              25         26         27         28         29         30
     1  O   -0.000000   0.000000   0.000000  -0.000011  -0.000000   0.000000
     2  C    0.000000   0.000000  -0.000000  -0.000010   0.000000  -0.000000
     3  C   -0.000000   0.000005  -0.000001  -0.000529   0.000008  -0.000001
     4  C   -0.000002  -0.000001   0.000000   0.000044  -0.000000   0.000000
     5  C    0.000020  -0.000074  -0.000002  -0.000081   0.000001   0.000001
     6  C   -0.006812   0.003359   0.000043  -0.000096   0.000017  -0.000004
     7  C   -0.039074  -0.006999   0.005061   0.003925   0.000008   0.000135
     8  C    0.378267  -0.038525  -0.034148  -0.007749   0.005012   0.002932
     9  C   -0.033893   0.379567   0.378169  -0.037877  -0.032692  -0.005458
    10  C    0.005148  -0.035626  -0.039066   0.384794   0.383243  -0.034820
    11  C   -0.000001   0.005178  -0.006353  -0.040895  -0.039566   0.388741
    12  O   -0.000000   0.000000  -0.000000   0.000000   0.000000   0.000000
    13  H    0.000000  -0.000000  -0.000000  -0.000000  -0.000000  -0.000000
    14  H   -0.000003  -0.000006   0.000002   0.004691  -0.000027  -0.000007
    15  H    0.000000  -0.000000  -0.000000  -0.000021  -0.000000  -0.000001
    16  H    0.000000  -0.000003   0.000000   0.000013  -0.000000   0.000000
    17  H   -0.000000  -0.000000   0.000000   0.000001   0.000000   0.000000
    18  H   -0.000005   0.000005  -0.000000  -0.000000  -0.000000  -0.000000
    19  H    0.000006  -0.000001   0.000000   0.000003   0.000000   0.000000
    20  H   -0.000345   0.001644  -0.000073   0.001000  -0.000045  -0.000003
    21  H    0.005597   0.000468  -0.000034  -0.000021  -0.000000   0.000001
    22  H   -0.004407  -0.000031  -0.000157  -0.000053  -0.000001  -0.000047
    23  H    0.006141  -0.000023  -0.000021  -0.000489  -0.000068   0.001410
    24  H   -0.039291   0.006070  -0.004696  -0.000073  -0.000015   0.001117
    25  H    0.648589  -0.004631  -0.002964  -0.000016  -0.000158  -0.000067
    26  H   -0.004631   0.646286  -0.038953  -0.004240  -0.003375  -0.000009
    27  H   -0.002964  -0.038953   0.648562   0.006126  -0.004408  -0.000264
    28  H   -0.000016  -0.004240   0.006126   0.637772  -0.039363  -0.005564
    29  H   -0.000158  -0.003375  -0.004408  -0.039363   0.641570   0.005508
    30  H   -0.000067  -0.000009  -0.000264  -0.005564   0.005508   0.605298
    31  H   -0.000001  -0.000180  -0.000015  -0.002611  -0.003996  -0.032157
    32  H   -0.000023  -0.000000   0.004904   0.005530  -0.004429  -0.033546
              31         32
     1  O    0.000000   0.000000
     2  C    0.000000   0.000000
     3  C    0.000000  -0.000000
     4  C   -0.000000  -0.000000
     5  C   -0.000000   0.000000
     6  C   -0.000001  -0.000003
     7  C    0.000016   0.000130
     8  C    0.000076  -0.000878
     9  C    0.004456  -0.004065
    10  C   -0.028273  -0.035653
    11  C    0.381742   0.387097
    12  O   -0.000000  -0.000000
    13  H    0.000000   0.000000
    14  H    0.000004   0.000002
    15  H   -0.000000   0.000000
    16  H   -0.000000   0.000000
    17  H   -0.000000  -0.000000
    18  H    0.000000  -0.000000
    19  H    0.000000  -0.000000
    20  H    0.000000   0.000001
    21  H    0.000000   0.000000
    22  H    0.000001  -0.000001
    23  H   -0.000039  -0.000036
    24  H   -0.000114   0.000391
    25  H   -0.000001  -0.000023
    26  H   -0.000180  -0.000000
    27  H   -0.000015   0.004904
    28  H   -0.002611   0.005530
    29  H   -0.003996  -0.004429
    30  H   -0.032157  -0.033546
    31  H    0.612405  -0.032304
    32  H   -0.032304   0.609642
 Mulliken charges:
               1
     1  O   -0.465289
     2  C    0.540064
     3  C   -0.236146
     4  C   -0.186015
     5  C   -0.188386
     6  C   -0.175706
     7  C   -0.180382
     8  C   -0.183042
     9  C   -0.173932
    10  C   -0.182935
    11  C   -0.318451
    12  O   -0.467954
    13  H    0.318528
    14  H    0.134578
    15  H    0.129488
    16  H    0.112409
    17  H    0.103457
    18  H    0.094088
    19  H    0.095818
    20  H    0.095579
    21  H    0.092015
    22  H    0.089990
    23  H    0.094998
    24  H    0.091307
    25  H    0.087924
    26  H    0.090094
    27  H    0.088286
    28  H    0.095799
    29  H    0.092778
    30  H    0.106805
    31  H    0.100989
    32  H    0.103241
 Sum of Mulliken charges =  -0.00000
 Mulliken charges with hydrogens summed into heavy atoms:
               1
     1  O   -0.146761
     2  C    0.540064
     3  C    0.027920
     4  C    0.029852
     5  C    0.001520
     6  C    0.011889
     7  C    0.004605
     8  C   -0.003810
     9  C    0.004448
    10  C    0.005642
    11  C   -0.007415
    12  O   -0.467954
 Electronic spatial extent (au):  <R**2>=           3400.8990
 Charge=             -0.0000 electrons
 Dipole moment (field-independent basis, Debye):
    X=             -1.1048    Y=              0.5577    Z=              1.4373  Tot=              1.8967
 Quadrupole moment (field-independent basis, Debye-Ang):
   XX=            -79.7416   YY=            -73.9822   ZZ=            -79.0418
   XY=              0.4570   XZ=              7.6519   YZ=             -2.7880
 Traceless Quadrupole moment (field-independent basis, Debye-Ang):
   XX=             -2.1531   YY=              3.6063   ZZ=             -1.4532
   XY=              0.4570   XZ=              7.6519   YZ=             -2.7880
 Octapole moment (field-independent basis, Debye-Ang**2):
  XXX=             20.4895  YYY=            -11.1926  ZZZ=              2.3952  XYY=             17.4202
  XXY=             -7.2099  XXZ=             38.4041  XZZ=              0.9719  YZZ=              0.1429
  YYZ=              6.2972  XYZ=            -12.6688
 Hexadecapole moment (field-independent basis, Debye-Ang**3):
 XXXX=          -2939.3144 YYYY=          -1113.8646 ZZZZ=           -340.0940 XXXY=            -61.6659
 XXXZ=            171.1280 YYYX=            -58.3641 YYYZ=            -11.3069 ZZZX=             11.3784
 ZZZY=             -7.8691 XXYY=           -644.9843 XXZZ=           -579.9630 YYZZ=           -246.5646
 XXYZ=            -64.5528 YYXZ=             21.6106 ZZXY=             -5.9663
 N-N= 7.274514033348D+02 E-N=-2.718048429230D+03  KE= 5.384933122482D+02
 Calling FoFJK, ICntrl=      2127 FMM=F ISym2X=0 I1Cent= 0 IOpClX= 0 NMat=1 NMatS=1 NMatT=0.
 ***** Axes restored to original set *****
 -------------------------------------------------------------------
 Center     Atomic                   Forces (Hartrees/Bohr)
 Number     Number              X              Y              Z
 -------------------------------------------------------------------
      1        8          -0.008792061   -0.006223857   -0.001823261
      2        6          -0.019444680    0.010613631   -0.000452534
      3        6           0.002921465    0.002175042    0.006538109
      4        6          -0.003442786   -0.000393382   -0.002226189
      5        6           0.006985193   -0.003136896   -0.003807855
      6        6          -0.005066277    0.008691241   -0.001022604
      7        6           0.002234717   -0.007987978   -0.002951674
      8        6           0.006219758    0.001596996    0.000688066
      9        6          -0.000021135    0.005446013    0.003271273
     10        6          -0.007001285   -0.000335580   -0.003358454
     11        6           0.002226479   -0.002416101    0.005094207
     12        8           0.006965845   -0.016402377   -0.002510490
     13        1           0.013611013    0.008408945    0.003849959
     14        1           0.001144844   -0.004283506   -0.003387705
     15        1          -0.000124114    0.002242584    0.001275949
     16        1           0.001952473   -0.001160045   -0.001635766
     17        1           0.000238646    0.003420805    0.001500266
     18        1           0.001730907   -0.001835444    0.003141741
     19        1          -0.002428988    0.003943029   -0.001614350
     20        1           0.004119264   -0.000240804   -0.001273171
     21        1          -0.003002071   -0.002788566   -0.000236753
     22        1          -0.003588919    0.000479124    0.002302603
     23        1           0.004066003    0.002874205   -0.000521609
     24        1          -0.001057834    0.003429441   -0.002091765
     25        1          -0.001483890   -0.004190000    0.001486183
     26        1           0.002299701   -0.001995862    0.003196494
     27        1          -0.002220486   -0.000622729   -0.003955444
     28        1           0.000711355    0.002394621    0.004031133
     29        1           0.002216744   -0.002862035   -0.001468591
     30        1          -0.002492160    0.001399379    0.000894818
     31        1           0.002196729    0.001598618   -0.000717145
     32        1          -0.001674450   -0.001838511   -0.002215442
 -------------------------------------------------------------------
 Cartesian Forces:  Max     0.019444680 RMS     0.004603396

 GradGradGradGradGradGradGradGradGradGradGradGradGradGradGradGradGradGrad
 Berny optimization.
 FormGI is forming the generalized inverse of G from B-inverse, IUseBI=4.
 Internal  Forces:  Max     0.016994888 RMS     0.002809637
 Search for a local minimum.
 Step number   1 out of a maximum of  179
 All quantities printed in internal units (Hartrees-Bohrs-Radians)
 Mixed Optimization -- RFO/linear search
 Second derivative matrix not updated -- first step.
 ITU=  0
     Eigenvalues ---    0.00230   0.00230   0.00230   0.00230   0.00230
     Eigenvalues ---    0.00230   0.00230   0.00280   0.00440   0.00910
     Eigenvalues ---    0.02345   0.03082   0.03099   0.03100   0.03205
     Eigenvalues ---    0.03212   0.03226   0.03262   0.03877   0.04640
     Eigenvalues ---    0.04640   0.04667   0.04672   0.04676   0.04689
     Eigenvalues ---    0.04699   0.05167   0.05367   0.05460   0.08570
     Eigenvalues ---    0.08573   0.08597   0.08644   0.08808   0.08832
     Eigenvalues ---    0.08835   0.09576   0.12390   0.12396   0.12419
     Eigenvalues ---    0.12442   0.12572   0.12574   0.12577   0.12914
     Eigenvalues ---    0.16000   0.16000   0.16000   0.16000   0.21884
     Eigenvalues ---    0.21893   0.21903   0.21909   0.21915   0.21916
     Eigenvalues ---    0.21917   0.21970   0.24999   0.25000   0.27934
     Eigenvalues ---    0.28027   0.28086   0.28185   0.28216   0.28230
     Eigenvalues ---    0.28280   0.28808   0.29924   0.34489   0.34539
     Eigenvalues ---    0.34629   0.34631   0.34635   0.34654   0.34664
     Eigenvalues ---    0.34667   0.34675   0.34695   0.34713   0.34719
     Eigenvalues ---    0.34744   0.34746   0.34762   0.34782   0.34790
     Eigenvalues ---    0.34993   0.35002   0.54892   0.55997   0.94504
 RFO step:  Lambda=-4.85456500D-03 EMin= 2.30000000D-03
 Linear search not attempted -- first point.
 Iteration  1 RMS(Cart)=  0.11632824 RMS(Int)=  0.00163392
 Iteration  2 RMS(Cart)=  0.00316035 RMS(Int)=  0.00017819
 Iteration  3 RMS(Cart)=  0.00000412 RMS(Int)=  0.00017816
 Iteration  4 RMS(Cart)=  0.00000000 RMS(Int)=  0.00017816
 Variable       Old X    -DE/DX   Delta X   Delta X   Delta X     New X
                                 (Linear)    (Quad)   (Total)
    R1        2.55228   0.00304   0.00000   0.00548   0.00548   2.55777
    R2        1.80956   0.01603   0.00000   0.02837   0.02837   1.83794
    R3        2.88115  -0.00829   0.00000  -0.02725  -0.02725   2.85390
    R4        2.30924  -0.01699   0.00000  -0.01789  -0.01789   2.29135
    R5        2.92283  -0.00543   0.00000  -0.01909  -0.01909   2.90374
    R6        2.05672   0.00481   0.00000   0.01356   0.01356   2.07028
    R7        2.06017   0.00138   0.00000   0.00390   0.00390   2.06407
    R8        2.91735  -0.00502   0.00000  -0.01750  -0.01750   2.89984
    R9        2.06430   0.00235   0.00000   0.00670   0.00670   2.07100
   R10        2.06513   0.00262   0.00000   0.00749   0.00749   2.07262
   R11        2.91951  -0.00209   0.00000  -0.00731  -0.00731   2.91220
   R12        2.06278   0.00343   0.00000   0.00977   0.00977   2.07256
   R13        2.06282   0.00410   0.00000   0.01169   0.01169   2.07451
   R14        2.91668  -0.00544   0.00000  -0.01894  -0.01894   2.89774
   R15        2.06143   0.00408   0.00000   0.01159   0.01159   2.07302
   R16        2.06271   0.00392   0.00000   0.01117   0.01117   2.07388
   R17        2.91637  -0.00487   0.00000  -0.01697  -0.01697   2.89941
   R18        2.06219   0.00407   0.00000   0.01157   0.01157   2.07376
   R19        2.05686   0.00469   0.00000   0.01321   0.01321   2.07007
   R20        2.92080  -0.00551   0.00000  -0.01931  -0.01931   2.90149
   R21        2.06173   0.00390   0.00000   0.01108   0.01108   2.07281
   R22        2.06224   0.00435   0.00000   0.01238   0.01238   2.07463
   R23        2.91530  -0.00464   0.00000  -0.01614  -0.01614   2.89916
   R24        2.06134   0.00418   0.00000   0.01188   0.01188   2.07321
   R25        2.06240   0.00425   0.00000   0.01208   0.01208   2.07448
   R26        2.90406  -0.00290   0.00000  -0.00989  -0.00989   2.89416
   R27        2.06092   0.00458   0.00000   0.01301   0.01301   2.07393
   R28        2.06206   0.00373   0.00000   0.01061   0.01061   2.07267
   R29        2.06030   0.00292   0.00000   0.00829   0.00829   2.06859
   R30        2.06063   0.00281   0.00000   0.00797   0.00797   2.06860
   R31        2.06089   0.00322   0.00000   0.00913   0.00913   2.07002
    A1        1.81832   0.00674   0.00000   0.04088   0.04088   1.85920
    A2        1.96409  -0.00102   0.00000  -0.00373  -0.00452   1.95956
    A3        2.15276  -0.00627   0.00000  -0.02430  -0.02506   2.12770
    A4        2.16626   0.00730   0.00000   0.02890   0.02806   2.19433
    A5        1.98365  -0.00335   0.00000  -0.01976  -0.01993   1.96372
    A6        1.87561   0.00224   0.00000   0.00547   0.00502   1.88063
    A7        1.86895   0.00006   0.00000  -0.00019  -0.00010   1.86885
    A8        1.93937  -0.00158   0.00000  -0.02013  -0.02027   1.91910
    A9        1.92256   0.00217   0.00000   0.01700   0.01708   1.93964
   A10        1.86867   0.00074   0.00000   0.02039   0.02046   1.88913
   A11        2.00196  -0.00185   0.00000  -0.01186  -0.01190   1.99006
   A12        1.91354   0.00001   0.00000  -0.00945  -0.00952   1.90402
   A13        1.91154  -0.00114   0.00000  -0.01150  -0.01140   1.90014
   A14        1.90702   0.00047   0.00000  -0.00023  -0.00043   1.90658
   A15        1.87965   0.00224   0.00000   0.02053   0.02046   1.90012
   A16        1.84323   0.00050   0.00000   0.01528   0.01515   1.85838
   A17        2.01634  -0.00070   0.00000  -0.00788  -0.00811   2.00823
   A18        1.87335  -0.00086   0.00000  -0.00076  -0.00071   1.87264
   A19        1.92254  -0.00010   0.00000  -0.01395  -0.01430   1.90824
   A20        1.88415   0.00175   0.00000   0.02286   0.02292   1.90707
   A21        1.92651  -0.00076   0.00000  -0.01571  -0.01604   1.91048
   A22        1.83040   0.00089   0.00000   0.01990   0.02001   1.85041
   A23        1.99627   0.00068   0.00000   0.00112   0.00101   1.99728
   A24        1.91327  -0.00093   0.00000  -0.01312  -0.01319   1.90008
   A25        1.89267   0.00089   0.00000   0.01540   0.01540   1.90807
   A26        1.92980  -0.00044   0.00000  -0.01126  -0.01136   1.91844
   A27        1.88456  -0.00075   0.00000   0.00060   0.00054   1.88510
   A28        1.84010   0.00059   0.00000   0.00890   0.00897   1.84907
   A29        1.99213  -0.00090   0.00000  -0.00710  -0.00714   1.98499
   A30        1.89919  -0.00023   0.00000  -0.00222  -0.00218   1.89701
   A31        1.93504  -0.00066   0.00000  -0.01202  -0.01205   1.92299
   A32        1.88900   0.00078   0.00000   0.00917   0.00915   1.89816
   A33        1.90667   0.00062   0.00000   0.00121   0.00108   1.90775
   A34        1.83457   0.00055   0.00000   0.01318   0.01315   1.84771
   A35        2.01986  -0.00354   0.00000  -0.02033  -0.02041   1.99945
   A36        1.89892   0.00026   0.00000  -0.00336  -0.00339   1.89553
   A37        1.90113   0.00154   0.00000   0.00654   0.00645   1.90758
   A38        1.90396   0.00155   0.00000   0.00661   0.00652   1.91047
   A39        1.89771   0.00027   0.00000  -0.00311  -0.00314   1.89456
   A40        1.83316   0.00027   0.00000   0.01734   0.01732   1.85048
   A41        2.01934  -0.00320   0.00000  -0.01878  -0.01885   2.00049
   A42        1.90710   0.00133   0.00000   0.00560   0.00553   1.91263
   A43        1.89620   0.00026   0.00000  -0.00324  -0.00329   1.89291
   A44        1.90041   0.00033   0.00000  -0.00205  -0.00208   1.89833
   A45        1.89918   0.00128   0.00000   0.00461   0.00451   1.90369
   A46        1.83245   0.00034   0.00000   0.01742   0.01741   1.84986
   A47        1.99172  -0.00073   0.00000  -0.00551  -0.00555   1.98617
   A48        1.91955   0.00010   0.00000  -0.00568  -0.00576   1.91379
   A49        1.89676  -0.00050   0.00000  -0.00239  -0.00237   1.89439
   A50        1.91347  -0.00027   0.00000  -0.00659  -0.00666   1.90681
   A51        1.89724   0.00113   0.00000   0.01239   0.01240   1.90964
   A52        1.83862   0.00036   0.00000   0.00930   0.00932   1.84794
   A53        1.94767   0.00031   0.00000   0.00147   0.00145   1.94912
   A54        1.93535   0.00018   0.00000   0.00320   0.00320   1.93855
   A55        1.94358  -0.00105   0.00000  -0.00806  -0.00806   1.93552
   A56        1.87280   0.00012   0.00000   0.00396   0.00394   1.87674
   A57        1.88338  -0.00005   0.00000  -0.00419  -0.00421   1.87917
   A58        1.87787   0.00053   0.00000   0.00396   0.00397   1.88184
    D1        3.13546   0.00079   0.00000   0.04481   0.04383  -3.10389
    D2        0.00666  -0.00030   0.00000  -0.02737  -0.02640  -0.01974
    D3        1.12181  -0.00171   0.00000  -0.06501  -0.06535   1.05646
    D4       -1.03153   0.00090   0.00000  -0.03013  -0.03039  -1.06191
    D5       -3.03418  -0.00106   0.00000  -0.05622  -0.05651  -3.09069
    D6       -2.03269  -0.00073   0.00000   0.00737   0.00763  -2.02507
    D7        2.09715   0.00188   0.00000   0.04225   0.04259   2.13974
    D8        0.09450  -0.00008   0.00000   0.01616   0.01646   0.11096
    D9        2.91311   0.00086   0.00000   0.06467   0.06450   2.97761
   D10       -1.21723   0.00013   0.00000   0.04828   0.04817  -1.16907
   D11        0.79766   0.00009   0.00000   0.05484   0.05466   0.85232
   D12       -1.25196   0.00019   0.00000   0.04253   0.04266  -1.20929
   D13        0.90089  -0.00053   0.00000   0.02615   0.02633   0.92722
   D14        2.91578  -0.00058   0.00000   0.03270   0.03283   2.94861
   D15        0.81595   0.00150   0.00000   0.06609   0.06608   0.88204
   D16        2.96880   0.00077   0.00000   0.04971   0.04975   3.01855
   D17       -1.29950   0.00073   0.00000   0.05626   0.05625  -1.24325
   D18        1.12396  -0.00100   0.00000  -0.03647  -0.03638   1.08758
   D19       -3.05682   0.00015   0.00000  -0.01281  -0.01277  -3.06959
   D20       -1.07341   0.00068   0.00000   0.00321   0.00318  -1.07023
   D21       -1.03237  -0.00004   0.00000  -0.01525  -0.01515  -1.04752
   D22        1.07003   0.00112   0.00000   0.00841   0.00845   1.07849
   D23        3.05344   0.00165   0.00000   0.02443   0.02441   3.07785
   D24       -3.02639  -0.00203   0.00000  -0.04390  -0.04391  -3.07030
   D25       -0.92398  -0.00088   0.00000  -0.02024  -0.02031  -0.94429
   D26        1.05943  -0.00035   0.00000  -0.00421  -0.00435   1.05507
   D27       -1.59060   0.00085   0.00000   0.05267   0.05261  -1.53799
   D28        0.58801   0.00002   0.00000   0.02805   0.02802   0.61603
   D29        2.58856   0.00072   0.00000   0.04004   0.03994   2.62850
   D30        2.59606   0.00112   0.00000   0.04186   0.04185   2.63791
   D31       -1.50851   0.00030   0.00000   0.01724   0.01726  -1.49125
   D32        0.49204   0.00099   0.00000   0.02923   0.02918   0.52122
   D33        0.60474  -0.00050   0.00000   0.01381   0.01389   0.61863
   D34        2.78335  -0.00133   0.00000  -0.01081  -0.01070   2.77266
   D35       -1.49928  -0.00063   0.00000   0.00118   0.00122  -1.49806
   D36       -3.07148  -0.00103   0.00000  -0.03763  -0.03758  -3.10906
   D37       -0.95977  -0.00079   0.00000  -0.03222  -0.03219  -0.99196
   D38        1.04965  -0.00064   0.00000  -0.02428  -0.02430   1.02534
   D39        1.04187   0.00005   0.00000  -0.01187  -0.01186   1.03001
   D40       -3.12961   0.00029   0.00000  -0.00646  -0.00647  -3.13608
   D41       -1.12019   0.00045   0.00000   0.00147   0.00141  -1.11878
   D42       -0.96296   0.00001   0.00000  -0.01684  -0.01682  -0.97977
   D43        1.14875   0.00024   0.00000  -0.01143  -0.01142   1.13732
   D44       -3.12502   0.00040   0.00000  -0.00350  -0.00354  -3.12856
   D45       -1.06984   0.00052   0.00000   0.01556   0.01560  -1.05424
   D46        3.06314   0.00082   0.00000   0.02417   0.02414   3.08727
   D47        1.07386  -0.00044   0.00000   0.00203   0.00201   1.07588
   D48        3.09599   0.00084   0.00000   0.01643   0.01650   3.11249
   D49        0.94578   0.00114   0.00000   0.02504   0.02503   0.97082
   D50       -1.04349  -0.00012   0.00000   0.00290   0.00291  -1.04058
   D51        1.10741  -0.00053   0.00000  -0.00457  -0.00455   1.10286
   D52       -1.04281  -0.00024   0.00000   0.00404   0.00399  -1.03882
   D53       -3.03208  -0.00150   0.00000  -0.01810  -0.01813  -3.05021
   D54       -0.99194   0.00056   0.00000   0.02764   0.02771  -0.96423
   D55        1.15975  -0.00028   0.00000   0.01563   0.01566   1.17541
   D56       -3.13331   0.00095   0.00000   0.03745   0.03747  -3.09584
   D57        1.15562  -0.00042   0.00000   0.01370   0.01372   1.16935
   D58       -2.97588  -0.00127   0.00000   0.00170   0.00168  -2.97420
   D59       -0.98575  -0.00004   0.00000   0.02352   0.02348  -0.96227
   D60       -3.13744   0.00086   0.00000   0.03602   0.03603  -3.10141
   D61       -0.98576   0.00001   0.00000   0.02402   0.02398  -0.96178
   D62        1.00437   0.00124   0.00000   0.04584   0.04578   1.05016
   D63       -1.05703   0.00078   0.00000   0.02567   0.02568  -1.03135
   D64        1.10153  -0.00003   0.00000   0.00850   0.00854   1.11007
   D65        3.10593   0.00018   0.00000   0.01520   0.01522   3.12116
   D66        3.07096   0.00109   0.00000   0.03356   0.03353   3.10449
   D67       -1.05366   0.00028   0.00000   0.01639   0.01638  -1.03728
   D68        0.95074   0.00049   0.00000   0.02309   0.02307   0.97381
   D69        1.08276  -0.00015   0.00000   0.01166   0.01164   1.09440
   D70       -3.04187  -0.00096   0.00000  -0.00552  -0.00551  -3.04737
   D71       -1.03746  -0.00075   0.00000   0.00119   0.00118  -1.03629
   D72        1.11943  -0.00047   0.00000  -0.01386  -0.01384   1.10559
   D73       -3.07694   0.00001   0.00000  -0.00574  -0.00572  -3.08265
   D74       -0.98643   0.00011   0.00000  -0.00394  -0.00393  -0.99037
   D75       -1.04241   0.00014   0.00000   0.00276   0.00275  -1.03966
   D76        1.04441   0.00062   0.00000   0.01089   0.01088   1.05529
   D77        3.13491   0.00072   0.00000   0.01268   0.01266  -3.13561
   D78       -3.04380  -0.00077   0.00000  -0.01156  -0.01156  -3.05536
   D79       -0.95698  -0.00029   0.00000  -0.00344  -0.00343  -0.96042
   D80        1.13352  -0.00019   0.00000  -0.00164  -0.00165   1.13187
         Item               Value     Threshold  Converged?
 Maximum Force            0.016995     0.000450     NO 
 RMS     Force            0.002810     0.000300     NO 
 Maximum Displacement     0.474023     0.001800     NO 
 RMS     Displacement     0.116258     0.001200     NO 
 Predicted change in Energy=-2.623508D-03
 GradGradGradGradGradGradGradGradGradGradGradGradGradGradGradGradGradGrad

                          Input orientation:                          
 ---------------------------------------------------------------------
 Center     Atomic      Atomic             Coordinates (Angstroms)
 Number     Number       Type             X           Y           Z
 ---------------------------------------------------------------------
      1          8           0        5.903465   -0.995166   -0.972508
      2          6           0        4.758333   -0.274342   -0.939696
      3          6           0        3.538578   -1.125255   -1.202196
      4          6           0        3.365439   -2.242351   -0.161408
      5          6           0        2.024811   -2.982871   -0.256965
      6          6           0        1.785578   -3.731495   -1.582567
      7          6           0        1.135138   -2.882990   -2.681809
      8          6           0        0.863046   -3.656036   -3.978899
      9          6           0        2.115276   -4.240222   -4.648306
     10          6           0        3.216357   -3.215124   -4.949083
     11          6           0        2.766977   -2.078177   -5.871566
     12          8           0        4.751851    0.906185   -0.663036
     13          1           0        6.624846   -0.378234   -0.760509
     14          1           0        3.643068   -1.559257   -2.202667
     15          1           0        2.675665   -0.455651   -1.208447
     16          1           0        4.184344   -2.962665   -0.269079
     17          1           0        3.461198   -1.810182    0.842081
     18          1           0        1.987108   -3.697502    0.574142
     19          1           0        1.204790   -2.273751   -0.084229
     20          1           0        2.740945   -4.136123   -1.938860
     21          1           0        1.140490   -4.599919   -1.397904
     22          1           0        0.185555   -2.484369   -2.302800
     23          1           0        1.758756   -2.010316   -2.904329
     24          1           0        0.349823   -2.989270   -4.682593
     25          1           0        0.162664   -4.475869   -3.772500
     26          1           0        2.534257   -5.033016   -4.016201
     27          1           0        1.813525   -4.727671   -5.584486
     28          1           0        3.592765   -2.791304   -4.009321
     29          1           0        4.065996   -3.739128   -5.403533
     30          1           0        1.976044   -1.475167   -5.414337
     31          1           0        3.600208   -1.407430   -6.104158
     32          1           0        2.379804   -2.472334   -6.817430
 ---------------------------------------------------------------------
                    Distance matrix (angstroms):
                    1          2          3          4          5
     1  O    0.000000
     2  C    1.353511   0.000000
     3  C    2.379574   1.510219   0.000000
     4  C    2.941926   2.533564   1.536594   0.000000
     5  C    4.416666   3.908248   2.575984   1.534531   0.000000
     6  C    4.981633   4.604614   3.163887   2.594842   1.541068
     7  C    5.405787   4.792447   3.324968   3.425943   2.584833
     8  C    6.443946   5.987142   4.612310   4.778464   3.956721
     9  C    6.196149   6.038853   4.858444   5.068200   4.568696
[...]
 Alpha virt. eigenvalues --    4.07604   4.09664   4.10500   4.15116   4.18132
 Alpha virt. eigenvalues --    4.21100   4.22939   4.27399   4.28361   4.34657
 Alpha virt. eigenvalues --    4.35154   4.37167   4.38742   4.42191   4.43277
 Alpha virt. eigenvalues --    4.46513   4.47163   4.50245   4.51873   4.54004
 Alpha virt. eigenvalues --    4.56691   4.58355   4.59062   4.62076   4.63325
 Alpha virt. eigenvalues --    4.64236   4.68892   4.69479   4.72109   4.74675
 Alpha virt. eigenvalues --    4.77766   4.79200   4.83862   4.86179   4.88895
 Alpha virt. eigenvalues --    4.94398   5.01355   5.05047   5.17309   5.20561
 Alpha virt. eigenvalues --    5.22659   5.39067   5.40426   5.50850   5.59676
 Alpha virt. eigenvalues --    5.73581   5.85032   5.86819   6.15875   6.19604
 Alpha virt. eigenvalues --    6.32788   6.34251   6.45062   6.48253   6.64636
 Alpha virt. eigenvalues --    6.68962   6.74090   6.81264   6.88876   7.07193
 Alpha virt. eigenvalues --    7.08369   7.27996  22.43494  22.50363  22.56173
 Alpha virt. eigenvalues --   22.57945  22.60647  22.61912  22.64188  22.65978
 Alpha virt. eigenvalues --   22.66595  23.29009  43.92580  43.99154
          Condensed to atoms (all electrons):
               1          2          3          4          5          6
     1  O    7.972623   0.362893  -0.131557   0.001894  -0.000736   0.000042
     2  C    0.362893   4.427219   0.280851  -0.017211   0.000337  -0.000024
     3  C   -0.131557   0.280851   5.385385   0.156284  -0.026061   0.019715
     4  C    0.001894  -0.017211   0.156284   5.280853   0.229380  -0.031772
     5  C   -0.000736   0.000337  -0.026061   0.229380   5.191431   0.172485
     6  C    0.000042  -0.000024   0.019715  -0.031772   0.172485   5.420429
     7  C    0.000046   0.001311  -0.003901   0.000340  -0.025743   0.151776
     8  C    0.000003   0.000004   0.000860  -0.001331   0.010737  -0.043800
     9  C    0.000022  -0.000101  -0.000303   0.000476  -0.001069   0.032398
    10  C   -0.000390   0.000094  -0.000547   0.000100  -0.000026  -0.017751
    11  C    0.000007   0.000005   0.000541  -0.000082   0.000107   0.001269
    12  O   -0.093685   0.683324  -0.098938   0.000726  -0.001301   0.000144
    13  H    0.288876  -0.025483   0.018175  -0.000605   0.000144  -0.000029
    14  H    0.001940  -0.006412   0.357913  -0.044667  -0.017702   0.016410
    15  H    0.004467  -0.030305   0.419376  -0.035257   0.000704  -0.004197
    16  H    0.005231  -0.005407  -0.050162   0.435143  -0.033353  -0.013834
    17  H   -0.000100   0.001680  -0.049916   0.427921  -0.046550   0.010453
    18  H    0.000019  -0.000404   0.009738  -0.053277   0.440890  -0.044625
    19  H   -0.000025  -0.000461  -0.010282  -0.040356   0.443238  -0.065105
    20  H   -0.000028  -0.000312  -0.006852   0.006704  -0.049164   0.422740
    21  H   -0.000002   0.000057  -0.000195   0.004624  -0.030841   0.419250
    22  H    0.000001  -0.000067  -0.000824   0.001781  -0.007493  -0.040604
    23  H   -0.000038   0.001250  -0.005373  -0.000911   0.005736  -0.076145
    24  H   -0.000000   0.000001   0.000063   0.000004  -0.000616   0.011160
    25  H    0.000000   0.000001  -0.000031   0.000001  -0.000070  -0.010198
    26  H   -0.000001   0.000006   0.000227  -0.000220   0.000750   0.000410
    27  H    0.000000  -0.000000  -0.000034   0.000017   0.000018  -0.000461
    28  H    0.001148   0.000162  -0.007176   0.001581  -0.000729   0.000664
    29  H    0.000004   0.000003   0.000051  -0.000028   0.000004   0.000480
    30  H   -0.000001   0.000000   0.000099  -0.000016   0.000020   0.000133
    31  H    0.000000   0.000009   0.000023   0.000001  -0.000008  -0.000034
    32  H    0.000000   0.000000  -0.000024   0.000003  -0.000002  -0.000038
               7          8          9         10         11         12
     1  O    0.000046   0.000003   0.000022  -0.000390   0.000007  -0.093685
     2  C    0.001311   0.000004  -0.000101   0.000094   0.000005   0.683324
     3  C   -0.003901   0.000860  -0.000303  -0.000547   0.000541  -0.098938
     4  C    0.000340  -0.001331   0.000476   0.000100  -0.000082   0.000726
     5  C   -0.025743   0.010737  -0.001069  -0.000026   0.000107  -0.001301
     6  C    0.151776  -0.043800   0.032398  -0.017751   0.001269   0.000144
     7  C    5.398169   0.164374  -0.073444   0.061210  -0.019108  -0.000009
     8  C    0.164374   5.328649   0.188721  -0.072580   0.033407   0.000000
     9  C   -0.073444   0.188721   5.332612   0.200312  -0.053276  -0.000001
    10  C    0.061210  -0.072580   0.200312   5.201072   0.246238   0.000004
    11  C   -0.019108   0.033407  -0.053276   0.246238   5.077853   0.000000
    12  O   -0.000009   0.000000  -0.000001   0.000004   0.000000   7.820805
    13  H    0.000003  -0.000000  -0.000000   0.000011  -0.000001   0.006483
    14  H   -0.006155   0.000669  -0.003146   0.007653  -0.001485   0.003413
    15  H    0.000088   0.000027   0.000136  -0.000307   0.000052   0.007465
    16  H    0.001485  -0.000046   0.000179  -0.000213   0.000009   0.000205
    17  H   -0.000893   0.000071  -0.000017   0.000006  -0.000000   0.002483
    18  H    0.006099  -0.000720   0.000137  -0.000035   0.000001   0.000006
    19  H   -0.004884  -0.000090   0.000077  -0.000027  -0.000008   0.000019
    20  H   -0.050603  -0.010393   0.009106  -0.004406  -0.000084  -0.000006
    21  H   -0.047724   0.005218  -0.005567   0.001192  -0.000017  -0.000000
    22  H    0.424011  -0.037714   0.010354  -0.000894  -0.000049   0.000001
    23  H    0.431231  -0.024272  -0.018275   0.004182   0.002978  -0.000081
    24  H   -0.064450   0.437448  -0.033104  -0.007262  -0.002297  -0.000000
    25  H   -0.032112   0.434075  -0.057983   0.009439  -0.000245  -0.000000
    26  H   -0.009906  -0.035124   0.430273  -0.055891   0.008898   0.000000
    27  H    0.011780  -0.063275   0.435277  -0.035388  -0.006089  -0.000000
    28  H    0.012312  -0.026165  -0.024530   0.401534  -0.054273  -0.000007
    29  H   -0.003230   0.015193  -0.058096   0.439962  -0.039791   0.000000
    30  H   -0.008908   0.021261  -0.021357  -0.030540   0.408516   0.000001
    31  H    0.000763  -0.001792   0.011314  -0.043728   0.417211  -0.000000
    32  H    0.001722  -0.009583   0.009863  -0.054670   0.415924   0.000000
              13         14         15         16         17         18
     1  O    0.288876   0.001940   0.004467   0.005231  -0.000100   0.000019
     2  C   -0.025483  -0.006412  -0.030305  -0.005407   0.001680  -0.000404
     3  C    0.018175   0.357913   0.419376  -0.050162  -0.049916   0.009738
     4  C   -0.000605  -0.044667  -0.035257   0.435143   0.427921  -0.053277
     5  C    0.000144  -0.017702   0.000704  -0.033353  -0.046550   0.440890
     6  C   -0.000029   0.016410  -0.004197  -0.013834   0.010453  -0.044625
     7  C    0.000003  -0.006155   0.000088   0.001485  -0.000893   0.006099
     8  C   -0.000000   0.000669   0.000027  -0.000046   0.000071  -0.000720
     9  C   -0.000000  -0.003146   0.000136   0.000179  -0.000017   0.000137
    10  C    0.000011   0.007653  -0.000307  -0.000213   0.000006  -0.000035
    11  C   -0.000001  -0.001485   0.000052   0.000009  -0.000000   0.000001
    12  O    0.006483   0.003413   0.007465   0.000205   0.002483   0.000006
    13  H    0.377919  -0.000350  -0.000645  -0.000319  -0.000301  -0.000004
    14  H   -0.000350   0.606696  -0.022470  -0.001112   0.006632  -0.000662
    15  H   -0.000645  -0.022470   0.481368   0.004186   0.000712   0.000245
    16  H   -0.000319  -0.001112   0.004186   0.496347  -0.015578  -0.003028
    17  H   -0.000301   0.006632   0.000712  -0.015578   0.517687  -0.007265
    18  H   -0.000004  -0.000662   0.000245  -0.003028  -0.007265   0.531104
    19  H    0.000001   0.001264   0.001468   0.005370  -0.002066  -0.018678
    20  H    0.000000  -0.002019   0.000615   0.002237   0.000111   0.002080
    21  H    0.000000   0.000395  -0.000163  -0.000209  -0.000182  -0.010241
    22  H   -0.000000   0.000118   0.000319  -0.000005  -0.000009   0.000428
    23  H    0.000010  -0.001331  -0.003614  -0.000085   0.000002  -0.000453
    24  H    0.000000  -0.000026  -0.000009   0.000003  -0.000002   0.000009
    25  H    0.000000  -0.000030  -0.000005  -0.000002  -0.000000   0.000012
    26  H   -0.000000   0.000136  -0.000010   0.000002   0.000001  -0.000022
    27  H   -0.000000   0.000005   0.000001  -0.000000   0.000000  -0.000001
    28  H   -0.000024  -0.009017   0.000570   0.000228  -0.000033   0.000017
    29  H   -0.000000  -0.000096   0.000001   0.000003  -0.000000   0.000000
    30  H   -0.000000  -0.000231   0.000032   0.000001   0.000000   0.000000
    31  H    0.000000   0.000054  -0.000002  -0.000000   0.000000   0.000000
    32  H    0.000000   0.000042  -0.000000  -0.000000  -0.000000  -0.000000
              19         20         21         22         23         24
     1  O   -0.000025  -0.000028  -0.000002   0.000001  -0.000038  -0.000000
     2  C   -0.000461  -0.000312   0.000057  -0.000067   0.001250   0.000001
     3  C   -0.010282  -0.006852  -0.000195  -0.000824  -0.005373   0.000063
     4  C   -0.040356   0.006704   0.004624   0.001781  -0.000911   0.000004
     5  C    0.443238  -0.049164  -0.030841  -0.007493   0.005736  -0.000616
     6  C   -0.065105   0.422740   0.419250  -0.040604  -0.076145   0.011160
     7  C   -0.004884  -0.050603  -0.047724   0.424011   0.431231  -0.064450
     8  C   -0.000090  -0.010393   0.005218  -0.037714  -0.024272   0.437448
     9  C    0.000077   0.009106  -0.005567   0.010354  -0.018275  -0.033104
    10  C   -0.000027  -0.004406   0.001192  -0.000894   0.004182  -0.007262
    11  C   -0.000008  -0.000084  -0.000017  -0.000049   0.002978  -0.002297
    12  O    0.000019  -0.000006  -0.000000   0.000001  -0.000081  -0.000000
    13  H    0.000001   0.000000   0.000000  -0.000000   0.000010   0.000000
    14  H    0.001264  -0.002019   0.000395   0.000118  -0.001331  -0.000026
    15  H    0.001468   0.000615  -0.000163   0.000319  -0.003614  -0.000009
    16  H    0.005370   0.002237  -0.000209  -0.000005  -0.000085   0.000003
    17  H   -0.002066   0.000111  -0.000182  -0.000009   0.000002  -0.000002
    18  H   -0.018678   0.002080  -0.010241   0.000428  -0.000453   0.000009
    19  H    0.524619   0.006621   0.000399   0.002408   0.000870  -0.000034
    20  H    0.006621   0.523443  -0.018891   0.004950   0.002449  -0.000622
    21  H    0.000399  -0.018891   0.523737  -0.001677   0.005671   0.000225
    22  H    0.002408   0.004950  -0.001677   0.519983  -0.016467  -0.007031
    23  H    0.000870   0.002449   0.005671  -0.016467   0.543078  -0.003277
    24  H   -0.000034  -0.000622   0.000225  -0.007031  -0.003277   0.524459
    25  H    0.000059   0.001613   0.001600  -0.003096   0.005716  -0.015726
    26  H   -0.000046  -0.007988   0.001187  -0.000742   0.001702   0.005107
    27  H    0.000004   0.000542  -0.000243  -0.000113  -0.000841  -0.003163
    28  H    0.000052   0.002979  -0.000415   0.000575  -0.013635   0.001660
    29  H   -0.000000  -0.000005   0.000002   0.000028   0.000595  -0.000801
    30  H    0.000002   0.000042   0.000001   0.000133   0.003787  -0.009063
    31  H    0.000000   0.000005   0.000001  -0.000002  -0.000290   0.000360
    32  H    0.000000  -0.000009  -0.000001   0.000011  -0.000383   0.001564
              25         26         27         28         29         30
     1  O    0.000000  -0.000001   0.000000   0.001148   0.000004  -0.000001
     2  C    0.000001   0.000006  -0.000000   0.000162   0.000003   0.000000
     3  C   -0.000031   0.000227  -0.000034  -0.007176   0.000051   0.000099
     4  C    0.000001  -0.000220   0.000017   0.001581  -0.000028  -0.000016
     5  C   -0.000070   0.000750   0.000018  -0.000729   0.000004   0.000020
     6  C   -0.010198   0.000410  -0.000461   0.000664   0.000480   0.000133
     7  C   -0.032112  -0.009906   0.011780   0.012312  -0.003230  -0.008908
     8  C    0.434075  -0.035124  -0.063275  -0.026165   0.015193   0.021261
     9  C   -0.057983   0.430273   0.435277  -0.024530  -0.058096  -0.021357
    10  C    0.009439  -0.055891  -0.035388   0.401534   0.439962  -0.030540
    11  C   -0.000245   0.008898  -0.006089  -0.054273  -0.039791   0.408516
    12  O   -0.000000   0.000000  -0.000000  -0.000007   0.000000   0.000001
    13  H    0.000000  -0.000000  -0.000000  -0.000024  -0.000000  -0.000000
    14  H   -0.000030   0.000136   0.000005  -0.009017  -0.000096  -0.000231
    15  H   -0.000005  -0.000010   0.000001   0.000570   0.000001   0.000032
    16  H   -0.000002   0.000002  -0.000000   0.000228   0.000003   0.000001
    17  H   -0.000000   0.000001   0.000000  -0.000033  -0.000000   0.000000
    18  H    0.000012  -0.000022  -0.000001   0.000017   0.000000   0.000000
    19  H    0.000059  -0.000046   0.000004   0.000052  -0.000000   0.000002
    20  H    0.001613  -0.007988   0.000542   0.002979  -0.000005   0.000042
    21  H    0.001600   0.001187  -0.000243  -0.000415   0.000002   0.000001
    22  H   -0.003096  -0.000742  -0.000113   0.000575   0.000028   0.000133
    23  H    0.005716   0.001702  -0.000841  -0.013635   0.000595   0.003787
    24  H   -0.015726   0.005107  -0.003163   0.001660  -0.000801  -0.009063
    25  H    0.525126  -0.002968  -0.006081  -0.000837  -0.000212   0.000359
    26  H   -0.002968   0.533948  -0.016582  -0.003173  -0.005991  -0.000601
    27  H   -0.006081  -0.016582   0.527162   0.006469  -0.003321   0.001195
    28  H   -0.000837  -0.003173   0.006469   0.608855  -0.023888  -0.003633
    29  H   -0.000212  -0.005991  -0.003321  -0.023888   0.540278   0.006364
    30  H    0.000359  -0.000601   0.001195  -0.003633   0.006364   0.544518
    31  H    0.000026  -0.000322  -0.000305  -0.003918  -0.006268  -0.024169
    32  H   -0.000214   0.000115   0.001469   0.008147  -0.003222  -0.030061
              31         32
     1  O    0.000000   0.000000
     2  C    0.000009   0.000000
     3  C    0.000023  -0.000024
     4  C    0.000001   0.000003
     5  C   -0.000008  -0.000002
     6  C   -0.000034  -0.000038
     7  C    0.000763   0.001722
     8  C   -0.001792  -0.009583
     9  C    0.011314   0.009863
    10  C   -0.043728  -0.054670
    11  C    0.417211   0.415924
    12  O   -0.000000   0.000000
    13  H    0.000000   0.000000
    14  H    0.000054   0.000042
    15  H   -0.000002  -0.000000
    16  H   -0.000000  -0.000000
    17  H    0.000000  -0.000000
    18  H    0.000000  -0.000000
    19  H    0.000000   0.000000
    20  H    0.000005  -0.000009
    21  H    0.000001  -0.000001
    22  H   -0.000002   0.000011
    23  H   -0.000290  -0.000383
    24  H    0.000360   0.001564
    25  H    0.000026  -0.000214
    26  H   -0.000322   0.000115
    27  H   -0.000305   0.001469
    28  H   -0.003918   0.008147
    29  H   -0.006268  -0.003222
    30  H   -0.024169  -0.030061
    31  H    0.526578  -0.021610
    32  H   -0.021610   0.537605
 Mulliken charges:
               1
     1  O   -0.412653
     2  C    0.326980
     3  C   -0.257124
     4  C   -0.322100
     5  C   -0.254519
     6  C   -0.331342
     7  C   -0.315648
     8  C   -0.313831
     9  C   -0.310985
    10  C   -0.248355
    11  C   -0.436211
    12  O   -0.331051
    13  H    0.336139
    14  H    0.113570
    15  H    0.175152
    16  H    0.172724
    17  H    0.155153
    18  H    0.148630
    19  H    0.155591
    20  H    0.165142
    21  H    0.152808
    22  H    0.151686
    23  H    0.156214
    24  H    0.165418
    25  H    0.151783
    26  H    0.156825
    27  H    0.151958
    28  H    0.124498
    29  H    0.141980
    30  H    0.142113
    31  H    0.146104
    32  H    0.143350
 Sum of Mulliken charges =  -0.00000
 Mulliken charges with hydrogens summed into heavy atoms:
               1
     1  O   -0.076514
     2  C    0.326980
     3  C    0.031598
     4  C    0.005777
     5  C    0.049702
     6  C   -0.013392
     7  C   -0.007748
     8  C    0.003370
     9  C   -0.002202
    10  C    0.018123
    11  C   -0.004643
    12  O   -0.331051
 Electronic spatial extent (au):  <R**2>=           3255.5514
 Charge=             -0.0000 electrons
 Dipole moment (field-independent basis, Debye):
    X=             -1.4876    Y=              0.7607    Z=              1.3605  Tot=              2.1546
 Quadrupole moment (field-independent basis, Debye-Ang):
   XX=            -83.2188   YY=            -75.1517   ZZ=            -79.7479
   XY=              1.1987   XZ=              7.6205   YZ=             -2.9743
 Traceless Quadrupole moment (field-independent basis, Debye-Ang):
   XX=             -3.8460   YY=              4.2211   ZZ=             -0.3751
   XY=              1.1987   XZ=              7.6205   YZ=             -2.9743
 Octapole moment (field-independent basis, Debye-Ang**2):
  XXX=              2.5603  YYY=             -9.2270  ZZZ=              3.0849  XYY=             15.1072
  XXY=             -3.2283  XXZ=             39.4529  XZZ=              4.0158  YZZ=             -0.4826
  YYZ=              7.6031  XYZ=            -13.0170
 Hexadecapole moment (field-independent basis, Debye-Ang**3):
 XXXX=          -2904.5444 YYYY=          -1133.3501 ZZZZ=           -348.6968 XXXY=            -31.7739
 XXXZ=            171.6537 YYYX=            -52.8438 YYYZ=            -12.6890 ZZZX=             13.6463
 ZZZY=            -11.5849 XXYY=           -632.0723 XXZZ=           -549.4135 YYZZ=           -249.6536
 XXYZ=            -67.4203 YYXZ=             22.3162 ZZXY=            -10.5693
 N-N= 7.356376664952D+02 E-N=-2.735965291969D+03  KE= 5.405715430091D+02
 Unable to Open any file for archive entry.
 1\1\GINC-NOTCH075\SP\RM062X\def2TZVP\C10H20O2\U6032257\03-Feb-2022\0\\
 # M062X/def2tzvp int=(grid=ultrafine) nmr=giao guess=read geom=check\\
 Ac1.xyz\\0,1\O,0,5.9270514698,-1.0827344542,-1.0201698101\C,0,4.821218
 6504,-0.3055102772,-0.8767832486\C,0,3.5579394003,-1.0820663219,-1.154
 5572442\C,0,3.3246649231,-2.1918417752,-0.1125141182\C,0,1.9919611772,
 -2.9389895031,-0.2628119807\C,0,1.8103210531,-3.7069400139,-1.58731927
 93\C,0,1.1133303324,-2.9110299297,-2.6988430099\C,0,0.8755305468,-3.71
 33356868,-3.9859107849\C,0,2.1457533393,-4.2528103966,-4.664350383\C,0
 ,3.2119483766,-3.1963772077,-4.9891962908\C,0,2.7179981711,-2.07036755
 16,-5.9009994682\O,0,4.8882692324,0.8581029125,-0.5482589338\H,0,6.682
 8453227,-0.5114865947,-0.8029077246\H,0,3.6435075954,-1.5215236134,-2.
 1531485928\H,0,2.7302127788,-0.3693458748,-1.1587492895\H,0,4.15313402
 2,-2.9065828718,-0.1714063022\H,0,3.3675221411,-1.7452222672,0.8883764
 157\H,0,1.9233064744,-3.644963486,0.5730702937\H,0,1.15970185,-2.23444
 7097,-0.1302952176\H,0,2.7899705067,-4.0621982902,-1.9322004719\H,0,1.
 2165044188,-4.6108146919,-1.399928765\H,0,0.1443032486,-2.5611903332,-
 2.3197303549\H,0,1.6824452685,-2.0050287009,-2.9325737003\H,0,0.324426
 1156,-3.0835547279,-4.6945528573\H,0,0.2152240774,-4.561368027,-3.7610
 713717\H,0,2.5976513665,-5.0272574989,-4.0327980221\H,0,1.8524985318,-
 4.7573589996,-5.594447555\H,0,3.6024252092,-2.7663508283,-4.0579316399
 \H,0,4.0648815039,-3.6974684858,-5.4630053401\H,0,1.927467875,-1.48093
 2916,-5.4259109063\H,0,3.5306951786,-1.3838447794,-6.1579241041\H,0,2.
 3119898425,-2.4721597108,-6.8363499425\\Version=ES64L-G16RevC.01\State
 =1-A\HF=-543.5390138\RMSD=2.730e-09\Dipole=-0.1104688,-0.8254032,-0.15
 83581\Quadrupole=5.0235889,-6.4384203,1.4148314,-0.842524,-0.411719,-3
 .407409\PG=C01 [X(C10H20O2)]\\@
 The archive entry for this job was punched.


 WE DON'T KNOW ONE MILLIONTH OF ONE PERCENT ABOUT
 ANYTHING.
                                     T. A. EDISON.
 Job cpu time:       0 days  0 hours 41 minutes 12.0 seconds.
 Elapsed time:       0 days  0 hours  1 minutes 29.4 seconds.
 File lengths (MBytes):  RWF=    140 Int=      0 D2E=      0 Chk=     24 Scr=      1
 Normal termination of Gaussian 16 at Thu Feb  3 06:36:35 2022.
