 Entering Gaussian System, Link 0=/uufs/chpc.utah.edu/sys/installdir/gaussian16/C01/AVX2/g16/g16
 Input=Ac1_clust-19.com
 Output=Ac1_clust-19.log
 Initial command:
 /uufs/chpc.utah.edu/sys/installdir/gaussian16/C01/AVX2/g16/l1.exe "/scratch/general/lustre/u6032257/3857474/notchpeak.peaks/Gau-197726.inp" -scrdir="/scratch/general/lustre/u6032257/3857474/notchpeak.peaks/"
 Entering Link 1 = /uufs/chpc.utah.edu/sys/installdir/gaussian16/C01/AVX2/g16/l1.exe PID=    197728.
  
 Copyright (c) 1988-2019, Gaussian, Inc.  All Rights Reserved.
  
 This is part of the Gaussian(R) 16 program.  It is based on
 the Gaussian(R) 09 system (copyright 2009, Gaussian, Inc.),
 the Gaussian(R) 03 system (copyright 2003, Gaussian, Inc.),
 the Gaussian(R) 98 system (copyright 1998, Gaussian, Inc.),
 the Gaussian(R) 94 system (copyright 1995, Gaussian, Inc.),
 the Gaussian 92(TM) system (copyright 1992, Gaussian, Inc.),
 the Gaussian 90(TM) system (copyright 1990, Gaussian, Inc.),
 the Gaussian 88(TM) system (copyright 1988, Gaussian, Inc.),
 the Gaussian 86(TM) system (copyright 1986, Carnegie Mellon
 University), and the Gaussian 82(TM) system (copyright 1983,
 Carnegie Mellon University). Gaussian is a federally registered
 trademark of Gaussian, Inc.
  
 This software contains proprietary and confidential information,
 including trade secrets, belonging to Gaussian, Inc.
  
 This software is provided under written license and may be
 used, copied, transmitted, or stored only in accord with that
 written license.
  
 The following legend is applicable only to US Government
 contracts under FAR:
  
                    RESTRICTED RIGHTS LEGEND
  
 Use, reproduction and disclosure by the US Government is
 subject to restrictions as set forth in subparagraphs (a)
 and (c) of the Commercial Computer Software - Restricted
 Rights clause in FAR 52.227-19.
  
 Gaussian, Inc.
 340 Quinnipiac St., Bldg. 40, Wallingford CT 06492
  
  
 ---------------------------------------------------------------
 Warning -- This program may not be used in any manner that
 competes with the business of Gaussian, Inc. or will provide
 assistance to any competitor of Gaussian, Inc.  The licensee
 of this program is prohibited from giving any competitor of
 Gaussian, Inc. access to this program.  By using this program,
 the user acknowledges that Gaussian, Inc. is engaged in the
 business of creating and licensing software in the field of
 computational chemistry and represents and warrants to the
 licensee that it is not a competitor of Gaussian, Inc. and that
 it will not use this program in any manner prohibited above.
 ---------------------------------------------------------------
  

 Cite this work as:
 Gaussian 16, Revision C.01,
 M. J. Frisch, G. W. Trucks, H. B. Schlegel, G. E. Scuseria, 
 M. A. Robb, J. R. Cheeseman, G. Scalmani, V. Barone, 
 G. A. Petersson, H. Nakatsuji, X. Li, M. Caricato, A. V. Marenich, 
 J. Bloino, B. G. Janesko, R. Gomperts, B. Mennucci, H. P. Hratchian, 
 J. V. Ortiz, A. F. Izmaylov, J. L. Sonnenberg, D. Williams-Young, 
 F. Ding, F. Lipparini, F. Egidi, J. Goings, B. Peng, A. Petrone, 
 T. Henderson, D. Ranasinghe, V. G. Zakrzewski, J. Gao, N. Rega, 
 G. Zheng, W. Liang, M. Hada, M. Ehara, K. Toyota, R. Fukuda, 
 J. Hasegawa, M. Ishida, T. Nakajima, Y. Honda, O. Kitao, H. Nakai, 
 T. Vreven, K. Throssell, J. A. Montgomery, Jr., J. E. Peralta, 
 F. Ogliaro, M. J. Bearpark, J. J. Heyd, E. N. Brothers, K. N. Kudin, 
 V. N. Staroverov, T. A. Keith, R. Kobayashi, J. Normand, 
 K. Raghavachari, A. P. Rendell, J. C. Burant, S. S. Iyengar, 
 J. Tomasi, M. Cossi, J. M. Millam, M. Klene, C. Adamo, R. Cammi, 
 J. W. Ochterski, R. L. Martin, K. Morokuma, O. Farkas, 
 J. B. Foresman, and D. J. Fox, Gaussian, Inc., Wallingford CT, 2019.
 
 ******************************************
 Gaussian 16:  ES64L-G16RevC.01  3-Jul-2019
                 3-Feb-2022 
 ******************************************
 %NProcShared=32
 Will use up to   32 processors via shared memory.
 %mem=16GB
 %chk=Ac1_clust-19.chk
 ----------------------------------------------------------------------
 # B3LYP/6-31G(d,p) empiricaldispersion=GD3BJ int=(grid=ultrafine) opt 
 freq=noraman
 ----------------------------------------------------------------------
 1/18=20,19=15,26=4,38=1/1,3;
 2/9=110,12=2,17=6,18=5,40=1/2;
 3/5=1,6=6,7=101,11=2,25=1,30=1,71=1,74=-5,75=-5,124=41/1,2,3;
 4//1;
 5/5=2,38=5/2;
 6/7=2,8=2,9=2,10=2,28=1/1;
 7//1,2,3,16;
 1/18=20,19=15,26=4/3(2);
 2/9=110/2;
 99//99;
 2/9=110/2;
 3/5=1,6=6,7=101,11=2,25=1,30=1,71=1,74=-5,75=-5,124=41/1,2,3;
 4/5=5,16=3,69=1/1;
 5/5=2,38=5/2;
 7//1,2,3,16;
 1/18=20,19=15,26=4/3(-5);
 2/9=110/2;
 6/7=2,8=2,9=2,10=2,19=2,28=1/1;
 99/9=1/99;
 -------
 Ac1.xyz
 -------
 Symbolic Z-matrix:
 Charge =  0 Multiplicity = 1
 O                     5.9756   -0.7732   -0.1656 
 C                     4.6806   -0.3898   -0.176 
 C                     3.7943   -1.294     0.6765 
 C                     3.7466   -2.7794    0.2319 
 C                     3.2741   -3.0336   -1.2168 
 C                     1.8438   -2.5342   -1.5076 
 C                     1.3177   -2.916    -2.9049 
 C                     2.0775   -2.2432   -4.0668 
 C                     1.4491   -2.4841   -5.4557 
 C                     1.3825   -3.9567   -5.9119 
 C                     2.7546   -4.6374   -6.0383 
 O                     4.2736    0.5864   -0.7885 
 H                     6.4125   -0.1334   -0.7281 
 H                     2.7908   -0.8695    0.6845 
 H                     4.1513   -1.221     1.7031 
 H                     4.735    -3.2252    0.3646 
 H                     3.0967   -3.3292    0.9152 
 H                     3.9767   -2.5748   -1.9136 
 H                     3.3242   -4.1055   -1.416 
 H                     1.1648   -2.9417   -0.7568 
 H                     1.7975   -1.4498   -1.3935 
 H                     1.3492   -4.0007   -3.017 
 H                     0.2633   -2.6412   -2.9656 
 H                     3.1167   -2.5725   -4.0763 
 H                     2.1164   -1.167    -3.8881 
 H                     0.4411   -2.0657   -5.4651 
 H                     2.0063   -1.9096   -6.1977 
 H                     0.7503   -4.5309   -5.2334 
 H                     0.8811   -3.9992   -6.8802 
 H                     3.4114   -4.0856   -6.7117 
 H                     3.254    -4.7158   -5.0722 
 H                     2.6521   -5.6487   -6.4331 
 

 GradGradGradGradGradGradGradGradGradGradGradGradGradGradGradGradGradGrad
 Berny optimization.
 Initialization pass.
                           ----------------------------
                           !    Initial Parameters    !
                           ! (Angstroms and Degrees)  !
 --------------------------                            --------------------------
 ! Name  Definition              Value          Derivative Info.                !
 --------------------------------------------------------------------------------
 ! R1    R(1,2)                  1.3506         estimate D2E/DX2                !
 ! R2    R(1,13)                 0.9574         estimate D2E/DX2                !
 ! R3    R(2,3)                  1.5264         estimate D2E/DX2                !
 ! R4    R(2,12)                 1.2222         estimate D2E/DX2                !
 ! R5    R(3,4)                  1.5512         estimate D2E/DX2                !
 ! R6    R(3,14)                 1.0896         estimate D2E/DX2                !
 ! R7    R(3,15)                 1.0894         estimate D2E/DX2                !
 ! R8    R(4,5)                  1.5449         estimate D2E/DX2                !
 ! R9    R(4,16)                 1.0924         estimate D2E/DX2                !
 ! R10   R(4,17)                 1.0916         estimate D2E/DX2                !
 ! R11   R(5,6)                  1.5426         estimate D2E/DX2                !
 ! R12   R(5,18)                 1.0907         estimate D2E/DX2                !
 ! R13   R(5,19)                 1.0914         estimate D2E/DX2                !
 ! R14   R(6,7)                  1.5411         estimate D2E/DX2                !
 ! R15   R(6,20)                 1.0912         estimate D2E/DX2                !
 ! R16   R(6,21)                 1.0914         estimate D2E/DX2                !
 ! R17   R(7,8)                  1.5427         estimate D2E/DX2                !
 ! R18   R(7,22)                 1.0909         estimate D2E/DX2                !
 ! R19   R(7,23)                 1.0913         estimate D2E/DX2                !
 ! R20   R(8,9)                  1.5434         estimate D2E/DX2                !
 ! R21   R(8,24)                 1.0902         estimate D2E/DX2                !
 ! R22   R(8,25)                 1.0916         estimate D2E/DX2                !
 ! R23   R(9,10)                 1.5431         estimate D2E/DX2                !
 ! R24   R(9,26)                 1.0914         estimate D2E/DX2                !
 ! R25   R(9,27)                 1.0914         estimate D2E/DX2                !
 ! R26   R(10,11)                1.5369         estimate D2E/DX2                !
 ! R27   R(10,28)                1.0908         estimate D2E/DX2                !
 ! R28   R(10,29)                1.0912         estimate D2E/DX2                !
 ! R29   R(11,30)                1.0906         estimate D2E/DX2                !
 ! R30   R(11,31)                1.0904         estimate D2E/DX2                !
 ! R31   R(11,32)                1.0905         estimate D2E/DX2                !
 ! A1    A(2,1,13)             104.0828         estimate D2E/DX2                !
 ! A2    A(1,2,3)              112.5994         estimate D2E/DX2                !
 ! A3    A(1,2,12)             123.3596         estimate D2E/DX2                !
 ! A4    A(3,2,12)             124.0337         estimate D2E/DX2                !
 ! A5    A(2,3,4)              115.1517         estimate D2E/DX2                !
 ! A6    A(2,3,14)             107.9434         estimate D2E/DX2                !
 ! A7    A(2,3,15)             107.2384         estimate D2E/DX2                !
 ! A8    A(4,3,14)             110.2938         estimate D2E/DX2                !
 ! A9    A(4,3,15)             110.1418         estimate D2E/DX2                !
 ! A10   A(14,3,15)            105.5923         estimate D2E/DX2                !
 ! A11   A(3,4,5)              115.832          estimate D2E/DX2                !
 ! A12   A(3,4,16)             109.1559         estimate D2E/DX2                !
 ! A13   A(3,4,17)             108.7351         estimate D2E/DX2                !
 ! A14   A(5,4,16)             108.8751         estimate D2E/DX2                !
 ! A15   A(5,4,17)             108.786          estimate D2E/DX2                !
 ! A16   A(16,4,17)            104.8989         estimate D2E/DX2                !
 ! A17   A(4,5,6)              114.0219         estimate D2E/DX2                !
 ! A18   A(4,5,18)             109.4415         estimate D2E/DX2                !
 ! A19   A(4,5,19)             108.5856         estimate D2E/DX2                !
 ! A20   A(6,5,18)             109.9165         estimate D2E/DX2                !
 ! A21   A(6,5,19)             109.0324         estimate D2E/DX2                !
 ! A22   A(18,5,19)            105.483          estimate D2E/DX2                !
 ! A23   A(5,6,7)              114.0313         estimate D2E/DX2                !
 ! A24   A(5,6,20)             109.0461         estimate D2E/DX2                !
 ! A25   A(5,6,21)             109.9555         estimate D2E/DX2                !
 ! A26   A(7,6,20)             108.5961         estimate D2E/DX2                !
 ! A27   A(7,6,21)             109.0548         estimate D2E/DX2                !
 ! A28   A(20,6,21)            105.826          estimate D2E/DX2                !
 ! A29   A(6,7,8)              113.9976         estimate D2E/DX2                !
 ! A30   A(6,7,22)             109.2469         estimate D2E/DX2                !
 ! A31   A(6,7,23)             108.5347         estimate D2E/DX2                !
 ! A32   A(8,7,22)             109.9994         estimate D2E/DX2                !
 ! A33   A(8,7,23)             108.9136         estimate D2E/DX2                !
 ! A34   A(22,7,23)            105.8161         estimate D2E/DX2                !
 ! A35   A(7,8,9)              114.1529         estimate D2E/DX2                !
 ! A36   A(7,8,24)             110.1398         estimate D2E/DX2                !
 ! A37   A(7,8,25)             108.9177         estimate D2E/DX2                !
 ! A38   A(9,8,24)             109.4593         estimate D2E/DX2                !
 ! A39   A(9,8,25)             108.4036         estimate D2E/DX2                !
 ! A40   A(24,8,25)            105.3819         estimate D2E/DX2                !
 ! A41   A(8,9,10)             115.6318         estimate D2E/DX2                !
 ! A42   A(8,9,26)             108.9023         estimate D2E/DX2                !
 ! A43   A(8,9,27)             108.7715         estimate D2E/DX2                !
 ! A44   A(10,9,26)            108.8707         estimate D2E/DX2                !
 ! A45   A(10,9,27)            108.8683         estimate D2E/DX2                !
 ! A46   A(26,9,27)            105.3            estimate D2E/DX2                !
 ! A47   A(9,10,11)            114.1083         estimate D2E/DX2                !
 ! A48   A(9,10,28)            110.0898         estimate D2E/DX2                !
 ! A49   A(9,10,29)            108.6226         estimate D2E/DX2                !
 ! A50   A(11,10,28)           109.6004         estimate D2E/DX2                !
 ! A51   A(11,10,29)           108.662          estimate D2E/DX2                !
 ! A52   A(28,10,29)           105.3759         estimate D2E/DX2                !
 ! A53   A(10,11,30)           111.3686         estimate D2E/DX2                !
 ! A54   A(10,11,31)           111.585          estimate D2E/DX2                !
 ! A55   A(10,11,32)           110.8926         estimate D2E/DX2                !
 ! A56   A(30,11,31)           107.9174         estimate D2E/DX2                !
 ! A57   A(30,11,32)           107.5957         estimate D2E/DX2                !
 ! A58   A(31,11,32)           107.2869         estimate D2E/DX2                !
 ! D1    D(13,1,2,3)          -179.9635         estimate D2E/DX2                !
 ! D2    D(13,1,2,12)           -0.9125         estimate D2E/DX2                !
 ! D3    D(1,2,3,4)            -61.132          estimate D2E/DX2                !
 ! D4    D(1,2,3,14)           175.1711         estimate D2E/DX2                !
 ! D5    D(1,2,3,15)            61.824          estimate D2E/DX2                !
 ! D6    D(12,2,3,4)           119.8245         estimate D2E/DX2                !
 ! D7    D(12,2,3,14)           -3.8725         estimate D2E/DX2                !
 ! D8    D(12,2,3,15)         -117.2195         estimate D2E/DX2                !
 ! D9    D(2,3,4,5)            -57.8236         estimate D2E/DX2                !
 ! D10   D(2,3,4,16)            65.4513         estimate D2E/DX2                !
 ! D11   D(2,3,4,17)           179.3568         estimate D2E/DX2                !
 ! D12   D(14,3,4,5)            64.622          estimate D2E/DX2                !
 ! D13   D(14,3,4,16)         -172.1031         estimate D2E/DX2                !
 ! D14   D(14,3,4,17)          -58.1975         estimate D2E/DX2                !
 ! D15   D(15,3,4,5)          -179.2182         estimate D2E/DX2                !
 ! D16   D(15,3,4,16)          -55.9434         estimate D2E/DX2                !
 ! D17   D(15,3,4,17)           57.9622         estimate D2E/DX2                !
 ! D18   D(3,4,5,6)            -60.4998         estimate D2E/DX2                !
 ! D19   D(3,4,5,18)            63.0607         estimate D2E/DX2                !
 ! D20   D(3,4,5,19)           177.7286         estimate D2E/DX2                !
 ! D21   D(16,4,5,6)           176.0782         estimate D2E/DX2                !
 ! D22   D(16,4,5,18)          -60.3612         estimate D2E/DX2                !
 ! D23   D(16,4,5,19)           54.3067         estimate D2E/DX2                !
 ! D24   D(17,4,5,6)            62.2929         estimate D2E/DX2                !
 ! D25   D(17,4,5,18)         -174.1466         estimate D2E/DX2                !
 ! D26   D(17,4,5,19)          -59.4786         estimate D2E/DX2                !
 ! D27   D(4,5,6,7)           -173.9969         estimate D2E/DX2                !
 ! D28   D(4,5,6,20)           -52.4423         estimate D2E/DX2                !
 ! D29   D(4,5,6,21)            63.1706         estimate D2E/DX2                !
 ! D30   D(18,5,6,7)            62.6999         estimate D2E/DX2                !
 ! D31   D(18,5,6,20)         -175.7455         estimate D2E/DX2                !
 ! D32   D(18,5,6,21)          -60.1326         estimate D2E/DX2                !
 ! D33   D(19,5,6,7)           -52.4723         estimate D2E/DX2                !
 ! D34   D(19,5,6,20)           69.0823         estimate D2E/DX2                !
 ! D35   D(19,5,6,21)         -175.3048         estimate D2E/DX2                !
 ! D36   D(5,6,7,8)            -66.02           estimate D2E/DX2                !
 ! D37   D(5,6,7,22)            57.4823         estimate D2E/DX2                !
 ! D38   D(5,6,7,23)           172.4142         estimate D2E/DX2                !
 ! D39   D(20,6,7,8)           172.1768         estimate D2E/DX2                !
 ! D40   D(20,6,7,22)          -64.3209         estimate D2E/DX2                !
 ! D41   D(20,6,7,23)           50.6111         estimate D2E/DX2                !
 ! D42   D(21,6,7,8)            57.3024         estimate D2E/DX2                !
 ! D43   D(21,6,7,22)         -179.1953         estimate D2E/DX2                !
 ! D44   D(21,6,7,23)          -64.2634         estimate D2E/DX2                !
 ! D45   D(6,7,8,9)           -172.9047         estimate D2E/DX2                !
 ! D46   D(6,7,8,24)            63.4994         estimate D2E/DX2                !
 ! D47   D(6,7,8,25)           -51.61           estimate D2E/DX2                !
 ! D48   D(22,7,8,9)            64.0015         estimate D2E/DX2                !
 ! D49   D(22,7,8,24)          -59.5944         estimate D2E/DX2                !
 ! D50   D(22,7,8,25)         -174.7038         estimate D2E/DX2                !
 ! D51   D(23,7,8,9)           -51.5489         estimate D2E/DX2                !
 ! D52   D(23,7,8,24)         -175.1448         estimate D2E/DX2                !
 ! D53   D(23,7,8,25)           69.7459         estimate D2E/DX2                !
 ! D54   D(7,8,9,10)           -61.5596         estimate D2E/DX2                !
 ! D55   D(7,8,9,26)            61.3612         estimate D2E/DX2                !
 ! D56   D(7,8,9,27)           175.6265         estimate D2E/DX2                !
 ! D57   D(24,8,9,10)           62.4026         estimate D2E/DX2                !
 ! D58   D(24,8,9,26)         -174.6767         estimate D2E/DX2                !
 ! D59   D(24,8,9,27)          -60.4114         estimate D2E/DX2                !
 ! D60   D(25,8,9,10)          176.8617         estimate D2E/DX2                !
 ! D61   D(25,8,9,26)          -60.2176         estimate D2E/DX2                !
 ! D62   D(25,8,9,27)           54.0477         estimate D2E/DX2                !
 ! D63   D(8,9,10,11)          -61.1525         estimate D2E/DX2                !
 ! D64   D(8,9,10,28)           62.5578         estimate D2E/DX2                !
 ! D65   D(8,9,10,29)          177.4666         estimate D2E/DX2                !
 ! D66   D(26,9,10,11)         175.9101         estimate D2E/DX2                !
 ! D67   D(26,9,10,28)         -60.3796         estimate D2E/DX2                !
 ! D68   D(26,9,10,29)          54.5291         estimate D2E/DX2                !
 ! D69   D(27,9,10,11)          61.6102         estimate D2E/DX2                !
 ! D70   D(27,9,10,28)        -174.6795         estimate D2E/DX2                !
 ! D71   D(27,9,10,29)         -59.7707         estimate D2E/DX2                !
 ! D72   D(9,10,11,30)         -56.0157         estimate D2E/DX2                !
 ! D73   D(9,10,11,31)          64.6524         estimate D2E/DX2                !
 ! D74   D(9,10,11,32)        -175.8049         estimate D2E/DX2                !
 ! D75   D(28,10,11,30)       -179.9894         estimate D2E/DX2                !
 ! D76   D(28,10,11,31)        -59.3213         estimate D2E/DX2                !
 ! D77   D(28,10,11,32)         60.2214         estimate D2E/DX2                !
 ! D78   D(29,10,11,30)         65.3434         estimate D2E/DX2                !
 ! D79   D(29,10,11,31)       -173.9885         estimate D2E/DX2                !
 ! D80   D(29,10,11,32)        -54.4458         estimate D2E/DX2                !
 --------------------------------------------------------------------------------
 Trust Radius=3.00D-01 FncErr=1.00D-07 GrdErr=1.00D-06 EigMax=2.50D+02 EigMin=1.00D-04
 Number of steps in this run=    179 maximum allowed number of steps=    192.
 GradGradGradGradGradGradGradGradGradGradGradGradGradGradGradGradGradGrad

                          Input orientation:                          
 ---------------------------------------------------------------------
 Center     Atomic      Atomic             Coordinates (Angstroms)
 Number     Number       Type             X           Y           Z
 ---------------------------------------------------------------------
      1          8           0        5.975600   -0.773200   -0.165600
      2          6           0        4.680600   -0.389800   -0.176000
      3          6           0        3.794300   -1.294000    0.676500
      4          6           0        3.746600   -2.779400    0.231900
      5          6           0        3.274100   -3.033600   -1.216800
      6          6           0        1.843800   -2.534200   -1.507600
      7          6           0        1.317700   -2.916000   -2.904900
      8          6           0        2.077500   -2.243200   -4.066800
      9          6           0        1.449100   -2.484100   -5.455700
     10          6           0        1.382500   -3.956700   -5.911900
     11          6           0        2.754600   -4.637400   -6.038300
     12          8           0        4.273600    0.586400   -0.788500
     13          1           0        6.412500   -0.133400   -0.728100
     14          1           0        2.790800   -0.869500    0.684500
     15          1           0        4.151300   -1.221000    1.703100
     16          1           0        4.735000   -3.225200    0.364600
     17          1           0        3.096700   -3.329200    0.915200
     18          1           0        3.976700   -2.574800   -1.913600
     19          1           0        3.324200   -4.105500   -1.416000
     20          1           0        1.164800   -2.941700   -0.756800
     21          1           0        1.797500   -1.449800   -1.393500
     22          1           0        1.349200   -4.000700   -3.017000
     23          1           0        0.263300   -2.641200   -2.965600
     24          1           0        3.116700   -2.572500   -4.076300
     25          1           0        2.116400   -1.167000   -3.888100
     26          1           0        0.441100   -2.065700   -5.465100
     27          1           0        2.006300   -1.909600   -6.197700
     28          1           0        0.750300   -4.530900   -5.233400
     29          1           0        0.881100   -3.999200   -6.880200
     30          1           0        3.411400   -4.085600   -6.711700
     31          1           0        3.254000   -4.715800   -5.072200
     32          1           0        2.652100   -5.648700   -6.433100
 ---------------------------------------------------------------------
                    Distance matrix (angstroms):
                    1          2          3          4          5
     1  O    0.000000
     2  C    1.350603   0.000000
     3  C    2.395503   1.526388   0.000000
     4  C    3.025109   2.597870   1.551244   0.000000
     5  C    3.675940   3.170360   2.623242   1.544864   0.000000
     6  C    4.687628   3.797242   3.180069   2.589716   1.542635
     7  C    5.813036   5.013749   4.646596   3.969601   2.586699
     8  C    5.707490   5.034833   5.132960   4.642438   3.190468
     9  C    7.169487   6.534823   6.672344   6.141213   4.647671
    10  C    8.015685   7.516701   7.504250   6.687397   5.145311
    11  C    7.732754   7.491204   7.572836   6.614502   5.107731
    12  O    2.265683   1.222200   2.431431   3.556340   3.779794
    13  H    0.957409   1.835765   3.189806   3.876847   4.301109
    14  H    3.297711   2.131177   1.089622   2.183144   2.920933
    15  H    2.649648   2.121808   1.089351   2.181014   3.546944
    16  H    2.798661   2.886988   2.170652   1.092374   2.161427
    17  H    3.998666   3.512767   2.164639   1.091581   2.159693
    18  H    3.208873   2.879054   2.895226   2.167482   1.090722
    19  H    4.438203   4.145340   3.536111   2.156974   1.091403
    20  H    5.309963   4.382964   3.418119   2.769397   2.160831
    21  H    4.407045   3.304266   2.880344   2.865092   2.172554
    22  H    6.320666   5.675219   5.191019   4.218347   2.807355
    23  H    6.630218   5.688867   5.248600   4.730379   3.503883
    24  H    5.167627   4.735219   4.968180   4.358918   2.900712
    25  H    5.376384   4.578083   4.864879   4.715059   3.458368
    26  H    7.770840   6.982591   7.039796   6.625067   5.197189
    27  H    7.309786   6.761845   7.129553   6.717511   5.261184
    28  H    8.191866   7.627140   7.393942   6.474185   4.974389
    29  H    9.024791   8.509422   8.538651   7.764082   6.223579
    30  H    7.771650   7.614800   7.907284   7.073337   5.596381
    31  H    6.857545   6.687469   6.711795   5.667961   4.206461
    32  H    8.608003   8.421528   8.415132   7.338463   5.868170
                    6          7          8          9         10
     6  C    0.000000
     7  C    1.541103   0.000000
     8  C    2.586272   1.542714   0.000000
     9  C    3.968097   2.590441   1.543361   0.000000
    10  C    4.651254   3.182657   2.612183   1.543083   0.000000
    11  C    5.077425   3.853063   3.174503   2.584657   1.536876
    12  O    4.019848   5.048099   4.855589   6.260074   7.432862
    13  H    5.219625   6.199864   5.864333   7.246470   8.172534
    14  H    2.910900   4.386568   4.997069   6.489156   7.417992
    15  H    4.166251   5.668860   6.215890   7.755367   8.552107
    16  H    3.513069   4.739533   5.259652   6.724750   7.153237
    17  H    2.841081   4.234234   5.199855   6.634542   7.066932
    18  H    2.171577   2.858212   2.890188   4.352409   4.962451
    19  H    2.160777   2.767269   3.471190   4.739632   4.899536
    20  H    1.091237   2.153688   3.503858   4.729681   5.258581
    21  H    1.091369   2.159695   2.802573   4.206261   5.183890
    22  H    2.161837   1.090932   2.172857   2.873554   2.895426
    23  H    2.152950   1.091311   2.159252   2.762499   3.415235
    24  H    2.867047   2.174068   1.090168   2.165975   2.879737
    25  H    2.758682   2.159538   1.091629   2.153465   3.523748
    26  H    4.224792   2.836558   2.159758   1.091426   2.159108
    27  H    4.734297   3.511345   2.158030   1.091369   2.159034
    28  H    4.366250   2.889941   2.890672   2.174196   1.090754
    29  H    5.651358   4.143302   3.525639   2.155772   1.091244
    30  H    5.652156   4.499252   3.488441   2.827182   2.184658
    31  H    4.410716   3.418439   2.916973   2.895725   2.187199
    32  H    5.883367   4.657947   4.186523   3.523807   2.178623
                   11         12         13         14         15
    11  C    0.000000
    12  O    7.560149   0.000000
    13  H    7.865397   2.257577   0.000000
    14  H    7.706778   2.547169   3.956513   0.000000
    15  H    8.576237   3.080539   3.493799   1.735528   0.000000
    16  H    6.849337   4.008843   3.683372   3.071086   2.479739
    17  H    7.083755   4.429403   4.889591   2.489362   2.485453
    18  H    4.770849   3.368558   3.646775   3.326339   3.865718
    19  H    4.687539   4.827944   5.078226   3.894652   4.328189
    20  H    5.770364   4.702460   5.951952   3.002538   4.234513
    21  H    5.714105   3.262393   4.844986   2.375179   3.896364
    22  H    3.392461   5.878760   6.769939   5.058036   6.152873
    23  H    4.430900   5.589246   7.007719   4.780210   6.239413
    24  H    2.871302   4.703902   5.293576   5.066719   6.024816
    25  H    4.132110   4.163585   5.432348   4.631630   5.950231
    26  H    3.506349   6.602445   7.863242   6.691006   8.115553
    27  H    2.833064   6.374175   7.244723   7.004422   8.215707
    28  H    2.162504   7.639211   8.467363   7.251967   8.404598
    29  H    2.150836   8.345393   9.131765   8.406347   9.596126
    30  H    1.090567   7.593107   7.773671   8.089018   8.919767
    31  H    1.090365   6.892242   7.060150   6.938888   7.676162
    32  H    1.090459   8.565468   8.781012   8.574393   9.383490
                   16         17         18         19         20
    16  H    0.000000
    17  H    1.731474   0.000000
    18  H    2.487616   3.057062   0.000000
    19  H    2.436354   2.467568   1.736780   0.000000
    20  H    3.752897   2.584178   3.062611   2.540075   0.000000
    21  H    3.856406   3.248101   2.506999   3.063342   1.741109
    22  H    4.847707   4.355096   3.186603   2.544565   2.502796
    23  H    5.606014   4.854082   3.860110   3.730220   2.404537
    24  H    4.771426   5.048571   2.327418   3.077392   3.868501
    25  H    5.401732   5.357965   3.056349   4.025524   3.722921
    26  H    7.332627   7.025445   5.037142   5.372919   4.843471
    27  H    7.227751   7.334684   4.762193   5.424343   5.601495
    28  H    6.994304   6.689915   5.025640   4.623686   4.768366
    29  H    8.242496   8.131792   6.023186   5.986445   6.220516
    30  H    7.250257   7.670774   5.062000   5.296455   6.466572
    31  H    5.828726   6.147875   3.883675   3.707451   5.112227
    32  H    7.511361   7.718501   5.623994   5.291926   6.462220
                   21         22         23         24         25
    21  H    0.000000
    22  H    3.056766   0.000000
    23  H    2.498940   1.740707   0.000000
    24  H    3.193456   2.507175   3.062722   0.000000
    25  H    2.530751   3.062232   2.541309   1.735353   0.000000
    26  H    4.335560   3.249933   2.571053   3.056869   2.470065
    27  H    4.830668   3.862814   3.744297   2.484504   2.428545
    28  H    5.033352   2.356315   2.991831   3.282386   3.871935
    29  H    6.119077   3.891457   4.189264   3.859435   4.301161
    30  H    6.151046   4.232102   5.101969   3.053138   4.262390
    31  H    5.130398   2.891968   4.205474   2.367362   3.910270
    32  H    6.615034   4.010385   5.174454   3.902994   5.181663
                   26         27         28         29         30
    26  H    0.000000
    27  H    1.735201   0.000000
    28  H    2.495296   3.062454   0.000000
    29  H    2.436089   2.469476   1.735443   0.000000
    30  H    3.802195   2.640734   3.076543   2.537376   0.000000
    31  H    3.884560   3.270820   2.515688   3.068067   1.763487
    32  H    4.320120   3.801755   2.511095   2.461136   1.759953
                   31         32
    31  H    0.000000
    32  H    1.756313   0.000000
 Stoichiometry    C10H20O2
 Framework group  C1[X(C10H20O2)]
 Deg. of freedom    90
 Full point group                 C1      NOp   1
 Largest Abelian subgroup         C1      NOp   1
 Largest concise Abelian subgroup C1      NOp   1
                         Standard orientation:                         
 ---------------------------------------------------------------------
 Center     Atomic      Atomic             Coordinates (Angstroms)
 Number     Number       Type             X           Y           Z
 ---------------------------------------------------------------------
      1          8           0        3.585335   -1.195773    1.118616
      2          6           0        3.194677   -0.788894   -0.108561
      3          6           0        3.159135    0.731521   -0.238707
      4          6           0        2.178330    1.452777    0.722631
      5          6           0        0.697780    1.023721    0.620218
      6          6           0        0.068916    1.263930   -0.767785
      7          6           0       -1.443275    0.973489   -0.830428
      8          6           0       -1.805859   -0.511979   -0.625775
      9          6           0       -3.296840   -0.835906   -0.858175
     10          6           0       -4.289789   -0.119909    0.081242
     11          6           0       -4.098561   -0.453976    1.569133
     12          8           0        2.919238   -1.559748   -1.016135
     13          1           0        3.564897   -2.151442    1.064653
     14          1           0        2.920824    0.974350   -1.273849
     15          1           0        4.174348    1.092984   -0.079419
     16          1           0        2.516645    1.312129    1.751729
     17          1           0        2.245354    2.528486    0.549698
     18          1           0        0.604928   -0.028201    0.893189
     19          1           0        0.124304    1.571093    1.370332
     20          1           0        0.236278    2.301981   -1.059740
     21          1           0        0.579542    0.657715   -1.518017
     22          1           0       -1.958522    1.588575   -0.091291
     23          1           0       -1.819031    1.298724   -1.802018
     24          1           0       -1.515643   -0.834871    0.374215
     25          1           0       -1.210508   -1.119156   -1.310280
     26          1           0       -3.553674   -0.596874   -1.891670
     27          1           0       -3.440236   -1.914029   -0.767768
     28          1           0       -4.229175    0.959685   -0.062101
     29          1           0       -5.304966   -0.393983   -0.210497
     30          1           0       -4.153840   -1.528789    1.745365
     31          1           0       -3.134694   -0.102627    1.938471
     32          1           0       -4.870507    0.019771    2.176392
 ---------------------------------------------------------------------
 Rotational constants (GHZ):           1.5091677           0.3184951           0.3078286
 Standard basis: 6-31G(d,p) (6D, 7F)
 There are   280 symmetry adapted cartesian basis functions of A   symmetry.
 There are   280 symmetry adapted basis functions of A   symmetry.
   280 basis functions,   476 primitive gaussians,   280 cartesian basis functions
    48 alpha electrons       48 beta electrons
       nuclear repulsion energy       719.3730247175 Hartrees.
 NAtoms=   32 NActive=   32 NUniq=   32 SFac= 1.00D+00 NAtFMM=   60 NAOKFM=F Big=F
 Integral buffers will be    131072 words long.
 Raffenetti 2 integral format.
 Two-electron integral symmetry is turned on.
 Nuclear repulsion after empirical dispersion term =      719.3243661899 Hartrees.
 One-electron integrals computed using PRISM.
 NBasis=   280 RedAO= T EigKep=  2.97D-03  NBF=   280
 NBsUse=   280 1.00D-06 EigRej= -1.00D+00 NBFU=   280
 ExpMin= 1.61D-01 ExpMax= 5.48D+03 ExpMxC= 8.25D+02 IAcc=3 IRadAn=         5 AccDes= 0.00D+00
 Harris functional with IExCor=  402 and IRadAn=       5 diagonalized for initial guess.
 HarFok:  IExCor=  402 AccDes= 0.00D+00 IRadAn=         5 IDoV= 1 UseB2=F ITyADJ=14
 ICtDFT=  3500011 ScaDFX=  1.000000  1.000000  1.000000  1.000000
 FoFCou: FMM=F IPFlag=           0 FMFlag=      100000 FMFlg1=           0
         NFxFlg=           0 DoJE=T BraDBF=F KetDBF=T FulRan=T
         wScrn=  0.000000 ICntrl=       500 IOpCl=  0 I1Cent=   200000004 NGrid=           0
         NMat0=    1 NMatS0=      1 NMatT0=    0 NMatD0=    1 NMtDS0=    0 NMtDT0=    0
 Petite list used in FoFCou.
 Requested convergence on RMS density matrix=1.00D-08 within 128 cycles.
 Requested convergence on MAX density matrix=1.00D-06.
 Requested convergence on             energy=1.00D-06.
 No special actions if energy rises.
 Integral accuracy reduced to 1.0D-05 until final iterations.
 Initial convergence to 1.0D-05 achieved.  Increase integral accuracy.
 SCF Done:  E(RB3LYP) =  -543.664673228     A.U. after   13 cycles
            NFock= 13  Conv=0.67D-08     -V/T= 2.0096

 **********************************************************************

            Population analysis using the SCF Density.

 **********************************************************************

 Orbital symmetries:
       Occupied  (A) (A) (A) (A) (A) (A) (A) (A) (A) (A) (A) (A)
                 (A) (A) (A) (A) (A) (A) (A) (A) (A) (A) (A) (A)
                 (A) (A) (A) (A) (A) (A) (A) (A) (A) (A) (A) (A)
                 (A) (A) (A) (A) (A) (A) (A) (A) (A) (A) (A) (A)
       Virtual   (A) (A) (A) (A) (A) (A) (A) (A) (A) (A) (A) (A)
                 (A) (A) (A) (A) (A) (A) (A) (A) (A) (A) (A) (A)
                 (A) (A) (A) (A) (A) (A) (A) (A) (A) (A) (A) (A)
                 (A) (A) (A) (A) (A) (A) (A) (A) (A) (A) (A) (A)
                 (A) (A) (A) (A) (A) (A) (A) (A) (A) (A) (A) (A)
                 (A) (A) (A) (A) (A) (A) (A) (A) (A) (A) (A) (A)
                 (A) (A) (A) (A) (A) (A) (A) (A) (A) (A) (A) (A)
                 (A) (A) (A) (A) (A) (A) (A) (A) (A) (A) (A) (A)
                 (A) (A) (A) (A) (A) (A) (A) (A) (A) (A) (A) (A)
                 (A) (A) (A) (A) (A) (A) (A) (A) (A) (A) (A) (A)
                 (A) (A) (A) (A) (A) (A) (A) (A) (A) (A) (A) (A)
                 (A) (A) (A) (A) (A) (A) (A) (A) (A) (A) (A) (A)
                 (A) (A) (A) (A) (A) (A) (A) (A) (A) (A) (A) (A)
                 (A) (A) (A) (A) (A) (A) (A) (A) (A) (A) (A) (A)
                 (A) (A) (A) (A) (A) (A) (A) (A) (A) (A) (A) (A)
                 (A) (A) (A) (A) (A) (A) (A) (A) (A) (A) (A) (A)
                 (A) (A) (A) (A) (A) (A) (A) (A) (A) (A) (A) (A)
                 (A) (A) (A) (A) (A) (A) (A) (A) (A) (A) (A) (A)
                 (A) (A) (A) (A) (A) (A) (A) (A) (A) (A) (A) (A)
                 (A) (A) (A) (A)
 The electronic state is 1-A.
 Alpha  occ. eigenvalues --  -19.19961 -19.13719 -10.32060 -10.19886 -10.19157
 Alpha  occ. eigenvalues --  -10.18070 -10.17541 -10.17442 -10.17377 -10.17234
 Alpha  occ. eigenvalues --  -10.17117 -10.16835  -1.10792  -1.01095  -0.81170
 Alpha  occ. eigenvalues --   -0.79334  -0.76309  -0.72396  -0.68798  -0.64319
 Alpha  occ. eigenvalues --   -0.62094  -0.59719  -0.57066  -0.54574  -0.48562
 Alpha  occ. eigenvalues --   -0.48349  -0.46442  -0.46046  -0.45598  -0.44187
 Alpha  occ. eigenvalues --   -0.42954  -0.41767  -0.40711  -0.39752  -0.38862
 Alpha  occ. eigenvalues --   -0.37982  -0.37558  -0.36078  -0.34978  -0.34882
 Alpha  occ. eigenvalues --   -0.33174  -0.32871  -0.32075  -0.31543  -0.30763
 Alpha  occ. eigenvalues --   -0.30429  -0.30146  -0.26930
 Alpha virt. eigenvalues --    0.00726   0.07525   0.08350   0.10288   0.11362
 Alpha virt. eigenvalues --    0.12106   0.12778   0.14204   0.14757   0.15298
 Alpha virt. eigenvalues --    0.15947   0.16254   0.17369   0.17623   0.17963
 Alpha virt. eigenvalues --    0.18509   0.19379   0.20188   0.20805   0.20988
 Alpha virt. eigenvalues --    0.22305   0.22819   0.23750   0.24138   0.25260
 Alpha virt. eigenvalues --    0.25721   0.25900   0.27601   0.28096   0.29937
 Alpha virt. eigenvalues --    0.31170   0.36509   0.48881   0.49825   0.50492
 Alpha virt. eigenvalues --    0.50910   0.52221   0.53192   0.54356   0.55683
 Alpha virt. eigenvalues --    0.55770   0.58094   0.59831   0.60621   0.62780
 Alpha virt. eigenvalues --    0.63609   0.64548   0.65760   0.66132   0.67235
 Alpha virt. eigenvalues --    0.68353   0.68932   0.70456   0.71807   0.73407
 Alpha virt. eigenvalues --    0.75388   0.76692   0.78114   0.80809   0.82688
 Alpha virt. eigenvalues --    0.83644   0.84511   0.85500   0.85938   0.86813
 Alpha virt. eigenvalues --    0.87360   0.87973   0.88322   0.89083   0.90050
 Alpha virt. eigenvalues --    0.90753   0.92258   0.92808   0.92942   0.94089
 Alpha virt. eigenvalues --    0.94644   0.95395   0.96434   0.96991   0.97859
 Alpha virt. eigenvalues --    0.98625   0.99704   1.01182   1.03310   1.05022
 Alpha virt. eigenvalues --    1.06536   1.08348   1.11432   1.12055   1.14178
 Alpha virt. eigenvalues --    1.18040   1.27643   1.29778   1.31032   1.33635
 Alpha virt. eigenvalues --    1.37487   1.37635   1.39956   1.44952   1.47357
 Alpha virt. eigenvalues --    1.50028   1.50795   1.52397   1.53279   1.57493
 Alpha virt. eigenvalues --    1.60787   1.61998   1.64209   1.65154   1.66381
 Alpha virt. eigenvalues --    1.69088   1.69409   1.72388   1.74031   1.74675
 Alpha virt. eigenvalues --    1.77866   1.79545   1.80281   1.80584   1.81806
 Alpha virt. eigenvalues --    1.82446   1.83887   1.84254   1.88564   1.89059
 Alpha virt. eigenvalues --    1.90655   1.91254   1.93771   1.94727   1.98196
 Alpha virt. eigenvalues --    1.99482   2.02065   2.02592   2.05992   2.06222
 Alpha virt. eigenvalues --    2.09533   2.12025   2.12278   2.13891   2.14835
 Alpha virt. eigenvalues --    2.16145   2.17154   2.18477   2.19812   2.20380
 Alpha virt. eigenvalues --    2.22884   2.24403   2.24813   2.26552   2.27721
 Alpha virt. eigenvalues --    2.28051   2.28122   2.29409   2.29892   2.31370
 Alpha virt. eigenvalues --    2.33499   2.34019   2.35889   2.37683   2.38949
 Alpha virt. eigenvalues --    2.41975   2.44309   2.45639   2.48169   2.51307
 Alpha virt. eigenvalues --    2.52734   2.53658   2.55547   2.57235   2.58355
 Alpha virt. eigenvalues --    2.61127   2.61378   2.62478   2.64850   2.67092
 Alpha virt. eigenvalues --    2.68138   2.69352   2.72118   2.72218   2.74638
 Alpha virt. eigenvalues --    2.75412   2.77708   2.78406   2.81324   2.82620
 Alpha virt. eigenvalues --    2.84123   2.85597   2.87618   2.88824   2.90093
 Alpha virt. eigenvalues --    2.90767   2.90978   2.91816   2.92075   2.92248
 Alpha virt. eigenvalues --    2.92690   2.92982   2.97984   3.02293   3.11499
 Alpha virt. eigenvalues --    3.20216   3.26014   3.30055   3.31410   3.31735
 Alpha virt. eigenvalues --    3.32368   3.34856   3.36429   3.36816   3.40483
 Alpha virt. eigenvalues --    3.43088   3.44212   3.46492   3.47286   3.50464
 Alpha virt. eigenvalues --    3.53197   3.55235   3.58079   3.58566   3.60732
 Alpha virt. eigenvalues --    3.91671   4.12917   4.24984   4.30155   4.34804
 Alpha virt. eigenvalues --    4.44221   4.55000   4.60161   4.64469   4.66808
 Alpha virt. eigenvalues --    4.68585   4.75923
          Condensed to atoms (all electrons):
               1          2          3          4          5          6
     1  O    8.122141   0.244432  -0.099580   0.004961  -0.001527   0.000031
     2  C    0.244432   4.382461   0.346138  -0.030333  -0.000362  -0.001744
     3  C   -0.099580   0.346138   5.099315   0.339546  -0.046382  -0.002853
     4  C    0.004961  -0.030333   0.339546   4.918479   0.368833  -0.040453
     5  C   -0.001527  -0.000362  -0.046382   0.368833   4.918867   0.376935
     6  C    0.000031  -0.001744  -0.002853  -0.040453   0.376935   4.917255
     7  C    0.000000   0.000006   0.000104   0.003669  -0.037648   0.369361
     8  C   -0.000000   0.000002  -0.000021   0.000181  -0.005182  -0.038397
     9  C   -0.000000   0.000000   0.000000  -0.000002   0.000173   0.003697
    10  C   -0.000000   0.000000  -0.000000   0.000000  -0.000021   0.000165
    11  C    0.000000   0.000000  -0.000000   0.000000  -0.000013   0.000004
    12  O   -0.082752   0.567671  -0.072420   0.000183   0.001042  -0.000690
    13  H    0.268258  -0.009205   0.010890  -0.000371  -0.000055   0.000000
    14  H    0.003304  -0.033344   0.379003  -0.031527  -0.006178   0.003358
    15  H    0.001555  -0.025412   0.358395  -0.022845   0.004565   0.000008
    16  H    0.004358  -0.007977  -0.035060   0.378372  -0.032571   0.004504
    17  H    0.000005   0.003880  -0.032449   0.379272  -0.040465  -0.006073
    18  H    0.001180   0.006304  -0.008928  -0.035854   0.381750  -0.039364
    19  H   -0.000013   0.000014   0.005108  -0.031386   0.380237  -0.041500
    20  H   -0.000001   0.000133  -0.001093  -0.003415  -0.043044   0.375223
    21  H    0.000011   0.000670   0.001423  -0.005187  -0.036827   0.382169
    22  H   -0.000000  -0.000001   0.000004   0.000029  -0.007844  -0.038032
    23  H    0.000000  -0.000001   0.000005  -0.000154   0.004622  -0.032115
    24  H   -0.000001  -0.000013   0.000014  -0.000074   0.002543  -0.003768
    25  H   -0.000000   0.000030  -0.000003  -0.000030  -0.000930  -0.003932
    26  H    0.000000  -0.000000   0.000000   0.000000   0.000003   0.000001
    27  H    0.000000   0.000000  -0.000000  -0.000000   0.000002  -0.000144
    28  H   -0.000000   0.000000   0.000000  -0.000000   0.000003  -0.000092
    29  H   -0.000000  -0.000000   0.000000   0.000000   0.000000  -0.000002
    30  H   -0.000000   0.000000   0.000000  -0.000000  -0.000000   0.000001
    31  H    0.000000   0.000000   0.000000  -0.000000   0.000073  -0.000090
    32  H    0.000000  -0.000000   0.000000   0.000000  -0.000000   0.000000
               7          8          9         10         11         12
     1  O    0.000000  -0.000000  -0.000000  -0.000000   0.000000  -0.082752
     2  C    0.000006   0.000002   0.000000   0.000000   0.000000   0.567671
     3  C    0.000104  -0.000021   0.000000  -0.000000  -0.000000  -0.072420
     4  C    0.003669   0.000181  -0.000002   0.000000   0.000000   0.000183
     5  C   -0.037648  -0.005182   0.000173  -0.000021  -0.000013   0.001042
     6  C    0.369361  -0.038397   0.003697   0.000165   0.000004  -0.000690
     7  C    4.902378   0.381075  -0.039214  -0.004181  -0.001506   0.000001
     8  C    0.381075   4.905989   0.372235  -0.044070  -0.003963  -0.000010
     9  C   -0.039214   0.372235   4.904108   0.381230  -0.046915   0.000000
    10  C   -0.004181  -0.044070   0.381230   4.873421   0.375285  -0.000000
    11  C   -0.001506  -0.003963  -0.046915   0.375285   4.915874   0.000000
    12  O    0.000001  -0.000010   0.000000  -0.000000   0.000000   8.042011
    13  H   -0.000000   0.000000   0.000000   0.000000  -0.000000   0.011360
    14  H   -0.000099   0.000005  -0.000000   0.000000  -0.000000   0.000927
    15  H   -0.000001  -0.000000   0.000000  -0.000000   0.000000   0.001988
    16  H   -0.000136   0.000002  -0.000000  -0.000000   0.000000   0.000002
    17  H   -0.000005   0.000003   0.000000   0.000000  -0.000000  -0.000083
    18  H   -0.003882   0.002780  -0.000102   0.000012  -0.000016  -0.000287
    19  H   -0.003570  -0.000890  -0.000026  -0.000003  -0.000018   0.000005
    20  H   -0.032050   0.004616  -0.000152   0.000005  -0.000001   0.000002
    21  H   -0.035409  -0.007366   0.000031   0.000004  -0.000001   0.002217
    22  H    0.381956  -0.039213  -0.004452   0.002535   0.000234  -0.000000
    23  H    0.377449  -0.041715  -0.003366  -0.001121   0.000110  -0.000000
    24  H   -0.040587   0.383093  -0.036981  -0.007997   0.004115  -0.000001
    25  H   -0.041587   0.381873  -0.031775   0.004979   0.000030   0.000051
    26  H   -0.007150  -0.038539   0.377838  -0.035446   0.005208  -0.000000
    27  H    0.004739  -0.034200   0.376593  -0.039176  -0.006583  -0.000000
    28  H    0.003840  -0.007659  -0.037943   0.386290  -0.040406   0.000000
    29  H    0.000059   0.004930  -0.032620   0.382603  -0.040024  -0.000000
    30  H    0.000097  -0.000914  -0.003959  -0.035947   0.387163   0.000000
    31  H    0.000346   0.002618  -0.005372  -0.034499   0.387706  -0.000000
    32  H    0.000002   0.000120   0.004410  -0.028309   0.381189  -0.000000
              13         14         15         16         17         18
     1  O    0.268258   0.003304   0.001555   0.004358   0.000005   0.001180
     2  C   -0.009205  -0.033344  -0.025412  -0.007977   0.003880   0.006304
     3  C    0.010890   0.379003   0.358395  -0.035060  -0.032449  -0.008928
     4  C   -0.000371  -0.031527  -0.022845   0.378372   0.379272  -0.035854
     5  C   -0.000055  -0.006178   0.004565  -0.032571  -0.040465   0.381750
     6  C    0.000000   0.003358   0.000008   0.004504  -0.006073  -0.039364
     7  C   -0.000000  -0.000099  -0.000001  -0.000136  -0.000005  -0.003882
     8  C    0.000000   0.000005  -0.000000   0.000002   0.000003   0.002780
     9  C    0.000000  -0.000000   0.000000  -0.000000   0.000000  -0.000102
    10  C    0.000000   0.000000  -0.000000  -0.000000   0.000000   0.000012
    11  C   -0.000000  -0.000000   0.000000   0.000000  -0.000000  -0.000016
    12  O    0.011360   0.000927   0.001988   0.000002  -0.000083  -0.000287
    13  H    0.401200  -0.000320  -0.000460  -0.000149   0.000015   0.000100
    14  H   -0.000320   0.583346  -0.032900   0.005224  -0.004314  -0.000012
    15  H   -0.000460  -0.032900   0.597825  -0.004090  -0.004443  -0.000012
    16  H   -0.000149   0.005224  -0.004090   0.621624  -0.036817  -0.003289
    17  H    0.000015  -0.004314  -0.004443  -0.036817   0.634537   0.006008
    18  H    0.000100  -0.000012  -0.000012  -0.003289   0.006008   0.628957
    19  H    0.000001   0.000008  -0.000132  -0.003532  -0.004125  -0.039678
    20  H    0.000000   0.000614  -0.000030   0.000034   0.005336   0.006089
    21  H   -0.000004   0.001466   0.000076  -0.000070  -0.000403  -0.006148
    22  H    0.000000   0.000000   0.000000  -0.000006   0.000002  -0.000176
    23  H    0.000000   0.000007  -0.000000   0.000003  -0.000007  -0.000044
    24  H    0.000000   0.000001  -0.000000   0.000006  -0.000001   0.001852
    25  H    0.000000  -0.000001   0.000000  -0.000000   0.000001   0.000517
    26  H   -0.000000   0.000000   0.000000   0.000000  -0.000000  -0.000000
    27  H    0.000000   0.000000  -0.000000   0.000000   0.000000   0.000006
    28  H    0.000000   0.000000  -0.000000   0.000000   0.000000   0.000001
    29  H    0.000000  -0.000000   0.000000  -0.000000   0.000000  -0.000000
    30  H    0.000000   0.000000  -0.000000   0.000000   0.000000  -0.000000
    31  H    0.000000  -0.000000  -0.000000  -0.000000   0.000000   0.000008
    32  H   -0.000000  -0.000000  -0.000000   0.000000  -0.000000   0.000000
              19         20         21         22         23         24
     1  O   -0.000013  -0.000001   0.000011  -0.000000   0.000000  -0.000001
     2  C    0.000014   0.000133   0.000670  -0.000001  -0.000001  -0.000013
     3  C    0.005108  -0.001093   0.001423   0.000004   0.000005   0.000014
     4  C   -0.031386  -0.003415  -0.005187   0.000029  -0.000154  -0.000074
     5  C    0.380237  -0.043044  -0.036827  -0.007844   0.004622   0.002543
     6  C   -0.041500   0.375223   0.382169  -0.038032  -0.032115  -0.003768
     7  C   -0.003570  -0.032050  -0.035409   0.381956   0.377449  -0.040587
     8  C   -0.000890   0.004616  -0.007366  -0.039213  -0.041715   0.383093
     9  C   -0.000026  -0.000152   0.000031  -0.004452  -0.003366  -0.036981
    10  C   -0.000003   0.000005   0.000004   0.002535  -0.001121  -0.007997
    11  C   -0.000018  -0.000001  -0.000001   0.000234   0.000110   0.004115
    12  O    0.000005   0.000002   0.002217  -0.000000  -0.000000  -0.000001
    13  H    0.000001   0.000000  -0.000004   0.000000   0.000000   0.000000
    14  H    0.000008   0.000614   0.001466   0.000000   0.000007   0.000001
    15  H   -0.000132  -0.000030   0.000076   0.000000  -0.000000  -0.000000
    16  H   -0.003532   0.000034  -0.000070  -0.000006   0.000003   0.000006
    17  H   -0.004125   0.005336  -0.000403   0.000002  -0.000007  -0.000001
    18  H   -0.039678   0.006089  -0.006148  -0.000176  -0.000044   0.001852
    19  H    0.639286  -0.005081   0.005872   0.005900   0.000043   0.000400
    20  H   -0.005081   0.657453  -0.040511  -0.003080  -0.004670  -0.000067
    21  H    0.005872  -0.040511   0.622511   0.005796  -0.003127  -0.000252
    22  H    0.005900  -0.003080   0.005796   0.644778  -0.041109  -0.006640
    23  H    0.000043  -0.004670  -0.003127  -0.041109   0.650253   0.006196
    24  H    0.000400  -0.000067  -0.000252  -0.006640   0.006196   0.640382
    25  H    0.000096   0.000073   0.005775   0.006047  -0.004867  -0.040437
    26  H    0.000000  -0.000007   0.000000  -0.000265   0.005638   0.006073
    27  H   -0.000000   0.000003  -0.000008  -0.000062   0.000040  -0.003537
    28  H   -0.000005   0.000009  -0.000001   0.001409   0.000579   0.000054
    29  H    0.000000  -0.000000   0.000000  -0.000054  -0.000043   0.000008
    30  H   -0.000000   0.000000  -0.000000  -0.000021  -0.000001   0.000440
    31  H    0.000204  -0.000000   0.000003   0.000936  -0.000031   0.001359
    32  H   -0.000000  -0.000000   0.000000  -0.000039   0.000000  -0.000141
              25         26         27         28         29         30
     1  O   -0.000000   0.000000   0.000000  -0.000000  -0.000000  -0.000000
     2  C    0.000030  -0.000000   0.000000   0.000000  -0.000000   0.000000
     3  C   -0.000003   0.000000  -0.000000   0.000000   0.000000   0.000000
     4  C   -0.000030   0.000000  -0.000000  -0.000000   0.000000  -0.000000
     5  C   -0.000930   0.000003   0.000002   0.000003   0.000000  -0.000000
     6  C   -0.003932   0.000001  -0.000144  -0.000092  -0.000002   0.000001
     7  C   -0.041587  -0.007150   0.004739   0.003840   0.000059   0.000097
     8  C    0.381873  -0.038539  -0.034200  -0.007659   0.004930  -0.000914
     9  C   -0.031775   0.377838   0.376593  -0.037943  -0.032620  -0.003959
    10  C    0.004979  -0.035446  -0.039176   0.386290   0.382603  -0.035947
    11  C    0.000030   0.005208  -0.006583  -0.040406  -0.040024   0.387163
    12  O    0.000051  -0.000000  -0.000000   0.000000  -0.000000   0.000000
    13  H    0.000000  -0.000000   0.000000   0.000000   0.000000   0.000000
    14  H   -0.000001   0.000000   0.000000   0.000000  -0.000000   0.000000
    15  H    0.000000   0.000000  -0.000000  -0.000000   0.000000  -0.000000
    16  H   -0.000000   0.000000   0.000000   0.000000  -0.000000   0.000000
    17  H    0.000001  -0.000000   0.000000   0.000000   0.000000   0.000000
    18  H    0.000517  -0.000000   0.000006   0.000001  -0.000000  -0.000000
    19  H    0.000096   0.000000  -0.000000  -0.000005   0.000000  -0.000000
    20  H    0.000073  -0.000007   0.000003   0.000009  -0.000000   0.000000
    21  H    0.005775   0.000000  -0.000008  -0.000001   0.000000  -0.000000
    22  H    0.006047  -0.000265  -0.000062   0.001409  -0.000054  -0.000021
    23  H   -0.004867   0.005638   0.000040   0.000579  -0.000043  -0.000001
    24  H   -0.040437   0.006073  -0.003537   0.000054   0.000008   0.000440
    25  H    0.636183  -0.004196  -0.003789  -0.000005  -0.000157  -0.000032
    26  H   -0.004196   0.650340  -0.039290  -0.003686  -0.003624   0.000009
    27  H   -0.003789  -0.039290   0.652263   0.006125  -0.004411   0.005073
    28  H   -0.000005  -0.003686   0.006125   0.639575  -0.039949   0.005558
    29  H   -0.000157  -0.003624  -0.004411  -0.039949   0.646059  -0.004424
    30  H   -0.000032   0.000009   0.005073   0.005558  -0.004424   0.611845
    31  H   -0.000063  -0.000024  -0.000235  -0.005592   0.005563  -0.034151
    32  H   -0.000001  -0.000180  -0.000011  -0.002456  -0.004117  -0.032640
              31         32
     1  O    0.000000   0.000000
     2  C    0.000000  -0.000000
     3  C    0.000000   0.000000
     4  C   -0.000000   0.000000
     5  C    0.000073  -0.000000
     6  C   -0.000090   0.000000
     7  C    0.000346   0.000002
     8  C    0.002618   0.000120
     9  C   -0.005372   0.004410
    10  C   -0.034499  -0.028309
    11  C    0.387706   0.381189
    12  O   -0.000000  -0.000000
    13  H    0.000000  -0.000000
    14  H   -0.000000  -0.000000
    15  H   -0.000000  -0.000000
    16  H   -0.000000   0.000000
    17  H    0.000000  -0.000000
    18  H    0.000008   0.000000
    19  H    0.000204  -0.000000
    20  H   -0.000000  -0.000000
    21  H    0.000003   0.000000
    22  H    0.000936  -0.000039
    23  H   -0.000031   0.000000
    24  H    0.001359  -0.000141
    25  H   -0.000063  -0.000001
    26  H   -0.000024  -0.000180
    27  H   -0.000235  -0.000011
    28  H   -0.005592  -0.002456
    29  H    0.005563  -0.004117
    30  H   -0.034151  -0.032640
    31  H    0.609250  -0.032366
    32  H   -0.032366   0.615709
 Mulliken charges:
               1
     1  O   -0.466360
     2  C    0.556652
     3  C   -0.241155
     4  C   -0.191893
     5  C   -0.180598
     6  C   -0.183464
     7  C   -0.178057
     8  C   -0.177385
     9  C   -0.177437
    10  C   -0.175760
    11  C   -0.317471
    12  O   -0.471217
    13  H    0.318739
    14  H    0.131434
    15  H    0.125913
    16  H    0.109568
    17  H    0.100127
    18  H    0.102228
    19  H    0.092784
    20  H    0.083611
    21  H    0.107289
    22  H    0.091367
    23  H    0.087429
    24  H    0.093961
    25  H    0.096151
    26  H    0.087297
    27  H    0.086602
    28  H    0.094351
    29  H    0.090204
    30  H    0.101906
    31  H    0.104357
    32  H    0.098832
 Sum of Mulliken charges =  -0.00000
 Mulliken charges with hydrogens summed into heavy atoms:
               1
     1  O   -0.147621
     2  C    0.556652
     3  C    0.016192
     4  C    0.017801
     5  C    0.014413
     6  C    0.007435
     7  C    0.000739
     8  C    0.012726
     9  C   -0.003538
    10  C    0.008795
    11  C   -0.012377
    12  O   -0.471217
 Electronic spatial extent (au):  <R**2>=           3801.8101
 Charge=              0.0000 electrons
 Dipole moment (field-independent basis, Debye):
    X=              0.1662    Y=              0.8903    Z=              1.2819  Tot=              1.5696
 Quadrupole moment (field-independent basis, Debye-Ang):
   XX=            -74.1679   YY=            -73.7625   ZZ=            -78.9376
   XY=              1.4160   XZ=              3.4689   YZ=             -4.4175
 Traceless Quadrupole moment (field-independent basis, Debye-Ang):
   XX=              1.4547   YY=              1.8602   ZZ=             -3.3149
   XY=              1.4160   XZ=              3.4689   YZ=             -4.4175
 Octapole moment (field-independent basis, Debye-Ang**2):
  XXX=             43.1592  YYY=            -18.6677  ZZZ=              0.6529  XYY=             19.9208
  XXY=             -3.9543  XXZ=              7.4184  XZZ=              1.9315  YZZ=             -0.5160
  YYZ=             12.2326  XYZ=            -14.3750
 Hexadecapole moment (field-independent basis, Debye-Ang**3):
 XXXX=          -3840.3525 YYYY=           -574.0942 ZZZZ=           -483.8967 XXXY=            -48.8672
 XXXZ=             17.2641 YYYX=            -66.8578 YYYZ=            -27.8858 ZZZX=             14.5772
 ZZZY=             -4.9126 XXYY=           -706.3252 XXZZ=           -762.7006 YYZZ=           -179.3649
 XXYZ=            -41.7736 YYXZ=             38.0069 ZZXY=             -8.5693
 N-N= 7.193243661899D+02 E-N=-2.701972931007D+03  KE= 5.384694903250D+02
 Calling FoFJK, ICntrl=      2127 FMM=F ISym2X=0 I1Cent= 0 IOpClX= 0 NMat=1 NMatS=1 NMatT=0.
 ***** Axes restored to original set *****
 -------------------------------------------------------------------
 Center     Atomic                   Forces (Hartrees/Bohr)
 Number     Number              X              Y              Z
 -------------------------------------------------------------------
      1        8          -0.007462607   -0.006733683    0.005230011
      2        6          -0.022943323    0.004835948   -0.000015381
      3        6          -0.000782834   -0.002486231   -0.005758290
      4        6           0.004101830    0.000980025   -0.004042863
      5        6          -0.005112599    0.007657816    0.005304768
      6        6           0.004745318   -0.003581297   -0.004577167
      7        6           0.006623332    0.005679946   -0.000453802
      8        6          -0.006100215   -0.004341306   -0.001040487
      9        6           0.001767712   -0.005169777    0.004191647
     10        6           0.005964717    0.003579191    0.000309695
     11        6          -0.005567875    0.001182073    0.002001817
     12        8           0.010793254   -0.013043978    0.005761686
     13        1           0.010771043    0.009065307   -0.008935515
     14        1          -0.000319763    0.002604455   -0.003804499
     15        1           0.004030031   -0.002970620    0.004003960
     16        1           0.003241568    0.001035288   -0.000872657
     17        1          -0.003893945    0.001274246    0.002928712
     18        1           0.002457889    0.003046669   -0.002119226
     19        1          -0.000230966   -0.004148342    0.000560477
     20        1          -0.001998464   -0.002686914    0.003596896
     21        1           0.001192864    0.003961411   -0.000501738
     22        1           0.000998071   -0.004433761   -0.000345269
     23        1          -0.003977063    0.001746456   -0.000869737
     24        1           0.003527139   -0.002354985    0.000231278
     25        1          -0.000687297    0.003854077    0.001169591
     26        1          -0.004522590    0.000736021    0.001057352
     27        1           0.003501386    0.001416080   -0.002746417
     28        1          -0.001547663   -0.001742865    0.003455573
     29        1          -0.001723261    0.000981793   -0.003491176
     30        1           0.001790841    0.002352932   -0.001682497
     31        1           0.001724596    0.000344016    0.002479739
     32        1          -0.000361124   -0.002639991   -0.001026480
 -------------------------------------------------------------------
 Cartesian Forces:  Max     0.022943323 RMS     0.004727712

 GradGradGradGradGradGradGradGradGradGradGradGradGradGradGradGradGradGrad
 Berny optimization.
 FormGI is forming the generalized inverse of G from B-inverse, IUseBI=4.
 Internal  Forces:  Max     0.016900407 RMS     0.003060848
 Search for a local minimum.
 Step number   1 out of a maximum of  179
 All quantities printed in internal units (Hartrees-Bohrs-Radians)
 Mixed Optimization -- RFO/linear search
 Second derivative matrix not updated -- first step.
 ITU=  0
     Eigenvalues ---    0.00230   0.00230   0.00230   0.00230   0.00230
     Eigenvalues ---    0.00230   0.00230   0.00278   0.00417   0.00894
     Eigenvalues ---    0.02345   0.03086   0.03118   0.03240   0.03258
     Eigenvalues ---    0.03262   0.03272   0.03272   0.03670   0.04636
     Eigenvalues ---    0.04649   0.04681   0.04684   0.04691   0.04694
     Eigenvalues ---    0.04700   0.05150   0.05366   0.05458   0.08520
     Eigenvalues ---    0.08525   0.08537   0.08563   0.08567   0.08808
     Eigenvalues ---    0.08858   0.09804   0.12355   0.12358   0.12368
     Eigenvalues ---    0.12387   0.12389   0.12555   0.12590   0.13096
     Eigenvalues ---    0.16000   0.16000   0.16000   0.16000   0.21894
     Eigenvalues ---    0.21895   0.21896   0.21909   0.21910   0.21914
     Eigenvalues ---    0.21926   0.21946   0.24998   0.25000   0.27546
     Eigenvalues ---    0.28092   0.28223   0.28248   0.28280   0.28287
     Eigenvalues ---    0.28421   0.28797   0.29759   0.34540   0.34625
     Eigenvalues ---    0.34631   0.34648   0.34651   0.34655   0.34655
     Eigenvalues ---    0.34662   0.34669   0.34670   0.34705   0.34726
     Eigenvalues ---    0.34729   0.34747   0.34760   0.34770   0.34793
     Eigenvalues ---    0.34856   0.34888   0.54893   0.56034   0.94415
 RFO step:  Lambda=-5.92979290D-03 EMin= 2.30000000D-03
 Linear search not attempted -- first point.
 Iteration  1 RMS(Cart)=  0.10537967 RMS(Int)=  0.00157814
 Iteration  2 RMS(Cart)=  0.00344763 RMS(Int)=  0.00020989
 Iteration  3 RMS(Cart)=  0.00000428 RMS(Int)=  0.00020987
 Iteration  4 RMS(Cart)=  0.00000000 RMS(Int)=  0.00020987
 Variable       Old X    -DE/DX   Delta X   Delta X   Delta X     New X
                                 (Linear)    (Quad)   (Total)
    R1        2.55227   0.00248   0.00000   0.00447   0.00447   2.55674
    R2        1.80924   0.01622   0.00000   0.02865   0.02865   1.83789
    R3        2.88446  -0.00976   0.00000  -0.03215  -0.03215   2.85231
    R4        2.30962  -0.01690   0.00000  -0.01779  -0.01779   2.29183
    R5        2.93143  -0.00955   0.00000  -0.03393  -0.03393   2.89749
    R6        2.05909   0.00128   0.00000   0.00362   0.00362   2.06270
    R7        2.05858   0.00489   0.00000   0.01380   0.01380   2.07237
    R8        2.91937  -0.00681   0.00000  -0.02374  -0.02374   2.89563
    R9        2.06429   0.00240   0.00000   0.00684   0.00684   2.07113
   R10        2.06279   0.00351   0.00000   0.00997   0.00997   2.07276
   R11        2.91516  -0.00566   0.00000  -0.01961  -0.01961   2.89555
   R12        2.06117   0.00422   0.00000   0.01194   0.01194   2.07311
   R13        2.06245   0.00396   0.00000   0.01124   0.01124   2.07369
   R14        2.91226  -0.00371   0.00000  -0.01280  -0.01280   2.89946
   R15        2.06214   0.00472   0.00000   0.01339   0.01339   2.07553
   R16        2.06239   0.00383   0.00000   0.01088   0.01088   2.07326
   R17        2.91531  -0.00558   0.00000  -0.01932  -0.01932   2.89599
   R18        2.06156   0.00447   0.00000   0.01267   0.01267   2.07423
   R19        2.06228   0.00433   0.00000   0.01228   0.01228   2.07456
   R20        2.91653  -0.00468   0.00000  -0.01623  -0.01623   2.90030
   R21        2.06012   0.00407   0.00000   0.01151   0.01151   2.07163
   R22        2.06288   0.00397   0.00000   0.01126   0.01126   2.07414
   R23        2.91600  -0.00449   0.00000  -0.01556  -0.01556   2.90045
   R24        2.06250   0.00445   0.00000   0.01262   0.01262   2.07512
   R25        2.06239   0.00440   0.00000   0.01249   0.01249   2.07487
   R26        2.90427  -0.00285   0.00000  -0.00968  -0.00968   2.89459
   R27        2.06123   0.00396   0.00000   0.01122   0.01122   2.07245
   R28        2.06215   0.00385   0.00000   0.01092   0.01092   2.07307
   R29        2.06087   0.00331   0.00000   0.00936   0.00936   2.07023
   R30        2.06049   0.00296   0.00000   0.00838   0.00838   2.06887
   R31        2.06067   0.00285   0.00000   0.00807   0.00807   2.06874
    A1        1.81659   0.00697   0.00000   0.04203   0.04203   1.85861
    A2        1.96523  -0.00095   0.00000  -0.00334  -0.00419   1.96104
    A3        2.15303  -0.00617   0.00000  -0.02374  -0.02456   2.12847
    A4        2.16480   0.00714   0.00000   0.02823   0.02734   2.19213
    A5        2.00978  -0.00658   0.00000  -0.03861  -0.03894   1.97084
    A6        1.88397  -0.00096   0.00000  -0.02264  -0.02266   1.86131
    A7        1.87166   0.00404   0.00000   0.01956   0.01926   1.89093
    A8        1.92499   0.00400   0.00000   0.02084   0.02018   1.94517
    A9        1.92234  -0.00110   0.00000  -0.01135  -0.01145   1.91089
   A10        1.84293   0.00123   0.00000   0.03867   0.03868   1.88161
   A11        2.02165  -0.00743   0.00000  -0.04135  -0.04160   1.98005
   A12        1.90513   0.00205   0.00000   0.00290   0.00285   1.90798
   A13        1.89778   0.00003   0.00000  -0.01347  -0.01338   1.88440
   A14        1.90023   0.00196   0.00000   0.00752   0.00713   1.90736
   A15        1.89867   0.00378   0.00000   0.02042   0.01976   1.91844
   A16        1.83083   0.00033   0.00000   0.03124   0.03100   1.86183
   A17        1.99006  -0.00030   0.00000  -0.00428  -0.00431   1.98574
   A18        1.91011  -0.00008   0.00000  -0.00553  -0.00559   1.90453
   A19        1.89518  -0.00046   0.00000  -0.00259  -0.00257   1.89261
   A20        1.91841  -0.00037   0.00000  -0.00630  -0.00636   1.91204
   A21        1.90297   0.00062   0.00000   0.00720   0.00720   1.91018
   A22        1.84103   0.00066   0.00000   0.01303   0.01304   1.85407
   A23        1.99022  -0.00109   0.00000  -0.00792  -0.00797   1.98225
   A24        1.90321  -0.00027   0.00000  -0.00207  -0.00203   1.90118
   A25        1.91909  -0.00024   0.00000  -0.00884  -0.00891   1.91018
   A26        1.89536   0.00099   0.00000   0.01035   0.01035   1.90571
   A27        1.90337   0.00023   0.00000  -0.00263  -0.00275   1.90062
   A28        1.84701   0.00052   0.00000   0.01296   0.01295   1.85996
   A29        1.98963  -0.00109   0.00000  -0.00683  -0.00685   1.98278
   A30        1.90672   0.00002   0.00000  -0.00348  -0.00353   1.90319
   A31        1.89429   0.00088   0.00000   0.00811   0.00811   1.90240
   A32        1.91985   0.00021   0.00000  -0.00322  -0.00327   1.91659
   A33        1.90090  -0.00016   0.00000  -0.00120  -0.00118   1.89972
   A34        1.84684   0.00023   0.00000   0.00792   0.00792   1.85476
   A35        1.99234  -0.00129   0.00000  -0.00827  -0.00830   1.98404
   A36        1.92230  -0.00015   0.00000  -0.00689  -0.00693   1.91537
   A37        1.90097   0.00006   0.00000  -0.00003   0.00000   1.90097
   A38        1.91043   0.00046   0.00000  -0.00037  -0.00046   1.90996
   A39        1.89200   0.00074   0.00000   0.00711   0.00710   1.89910
   A40        1.83926   0.00032   0.00000   0.01021   0.01020   1.84946
   A41        2.01815  -0.00223   0.00000  -0.01391  -0.01396   2.00419
   A42        1.90070   0.00062   0.00000   0.00172   0.00169   1.90239
   A43        1.89842   0.00040   0.00000  -0.00118  -0.00124   1.89718
   A44        1.90015   0.00044   0.00000   0.00025   0.00022   1.90038
   A45        1.90011   0.00051   0.00000  -0.00044  -0.00050   1.89961
   A46        1.83783   0.00049   0.00000   0.01648   0.01647   1.85430
   A47        1.99157  -0.00112   0.00000  -0.00754  -0.00759   1.98398
   A48        1.92143   0.00011   0.00000  -0.00602  -0.00611   1.91532
   A49        1.89582  -0.00030   0.00000  -0.00135  -0.00131   1.89451
   A50        1.91289  -0.00006   0.00000  -0.00542  -0.00552   1.90737
   A51        1.89651   0.00114   0.00000   0.01178   0.01179   1.90830
   A52        1.83916   0.00036   0.00000   0.01034   0.01035   1.84950
   A53        1.94375  -0.00091   0.00000  -0.00708  -0.00709   1.93666
   A54        1.94753   0.00024   0.00000   0.00096   0.00094   1.94847
   A55        1.93544   0.00016   0.00000   0.00298   0.00298   1.93842
   A56        1.88351  -0.00009   0.00000  -0.00432  -0.00434   1.87917
   A57        1.87790   0.00050   0.00000   0.00389   0.00390   1.88179
   A58        1.87251   0.00015   0.00000   0.00389   0.00387   1.87638
    D1       -3.14096  -0.00061   0.00000  -0.03763  -0.03664   3.10559
    D2       -0.01593   0.00061   0.00000   0.03745   0.03646   0.02053
    D3       -1.06695   0.00152   0.00000   0.04966   0.05037  -1.01658
    D4        3.05731   0.00166   0.00000   0.06716   0.06709   3.12440
    D5        1.07903  -0.00127   0.00000   0.02381   0.02408   1.10311
    D6        2.09133   0.00043   0.00000  -0.02543  -0.02532   2.06601
    D7       -0.06759   0.00058   0.00000  -0.00792  -0.00860  -0.07619
    D8       -2.04587  -0.00235   0.00000  -0.05127  -0.05161  -2.09748
    D9       -1.00921   0.00150   0.00000   0.04744   0.04779  -0.96142
   D10        1.14234   0.00031   0.00000   0.02947   0.02979   1.17213
   D11        3.13037   0.00179   0.00000   0.06076   0.06076  -3.09206
   D12        1.12787  -0.00147   0.00000   0.00542   0.00542   1.13329
   D13       -3.00377  -0.00266   0.00000  -0.01255  -0.01258  -3.01635
   D14       -1.01574  -0.00117   0.00000   0.01874   0.01839  -0.99735
   D15       -3.12795   0.00174   0.00000   0.05813   0.05817  -3.06978
   D16       -0.97640   0.00055   0.00000   0.04016   0.04016  -0.93624
   D17        1.01163   0.00203   0.00000   0.07145   0.07113   1.08276
   D18       -1.05592   0.00092   0.00000   0.03388   0.03398  -1.02194
   D19        1.10062   0.00016   0.00000   0.01829   0.01841   1.11903
   D20        3.10195   0.00065   0.00000   0.02940   0.02951   3.13146
   D21        3.07314   0.00204   0.00000   0.05411   0.05421   3.12735
   D22       -1.05350   0.00128   0.00000   0.03852   0.03864  -1.01486
   D23        0.94783   0.00177   0.00000   0.04963   0.04974   0.99757
   D24        1.08722  -0.00136   0.00000   0.00267   0.00244   1.08966
   D25       -3.03943  -0.00211   0.00000  -0.01292  -0.01312  -3.05255
   D26       -1.03810  -0.00162   0.00000  -0.00181  -0.00203  -1.04013
   D27       -3.03682  -0.00044   0.00000  -0.01364  -0.01361  -3.05043
   D28       -0.91529  -0.00010   0.00000  -0.00721  -0.00719  -0.92248
   D29        1.10253   0.00023   0.00000   0.00226   0.00224   1.10478
   D30        1.09432   0.00017   0.00000   0.00159   0.00160   1.09592
   D31       -3.06734   0.00051   0.00000   0.00802   0.00802  -3.05932
   D32       -1.04951   0.00084   0.00000   0.01749   0.01745  -1.03206
   D33       -0.91581  -0.00077   0.00000  -0.01459  -0.01457  -0.93039
   D34        1.20571  -0.00043   0.00000  -0.00816  -0.00815   1.19756
   D35       -3.05965  -0.00010   0.00000   0.00131   0.00128  -3.05837
   D36       -1.15227   0.00033   0.00000   0.01988   0.01985  -1.13242
   D37        1.00326  -0.00015   0.00000   0.00813   0.00812   1.01138
   D38        3.00920   0.00061   0.00000   0.02006   0.02005   3.02925
   D39        3.00505   0.00069   0.00000   0.02027   0.02028   3.02533
   D40       -1.12261   0.00021   0.00000   0.00853   0.00856  -1.11406
   D41        0.88333   0.00097   0.00000   0.02045   0.02048   0.90381
   D42        1.00011  -0.00058   0.00000   0.00077   0.00075   1.00086
   D43       -3.12755  -0.00106   0.00000  -0.01098  -0.01097  -3.13852
   D44       -1.12161  -0.00030   0.00000   0.00095   0.00095  -1.12066
   D45       -3.01776  -0.00053   0.00000  -0.01594  -0.01592  -3.03368
   D46        1.10827  -0.00007   0.00000  -0.00396  -0.00398   1.10429
   D47       -0.90076  -0.00041   0.00000  -0.01239  -0.01238  -0.91315
   D48        1.11704   0.00006   0.00000  -0.00395  -0.00394   1.11309
   D49       -1.04012   0.00053   0.00000   0.00803   0.00800  -1.03212
   D50       -3.04916   0.00019   0.00000  -0.00040  -0.00041  -3.04956
   D51       -0.89970  -0.00025   0.00000  -0.01099  -0.01097  -0.91067
   D52       -3.05685   0.00022   0.00000   0.00099   0.00097  -3.05588
   D53        1.21730  -0.00012   0.00000  -0.00744  -0.00743   1.20987
   D54       -1.07442   0.00024   0.00000   0.01356   0.01356  -1.06086
   D55        1.07095  -0.00029   0.00000   0.00525   0.00525   1.07620
   D56        3.06526   0.00083   0.00000   0.02500   0.02498   3.09024
   D57        1.08913  -0.00054   0.00000  -0.00182  -0.00181   1.08732
   D58       -3.04868  -0.00107   0.00000  -0.01012  -0.01012  -3.05881
   D59       -1.05438   0.00005   0.00000   0.00963   0.00961  -1.04477
   D60        3.08682   0.00048   0.00000   0.01391   0.01393   3.10075
   D61       -1.05100  -0.00005   0.00000   0.00561   0.00562  -1.04537
   D62        0.94331   0.00107   0.00000   0.02535   0.02536   0.96867
   D63       -1.06731   0.00063   0.00000   0.02488   0.02486  -1.04245
   D64        1.09184  -0.00019   0.00000   0.00744   0.00746   1.09930
   D65        3.09738   0.00013   0.00000   0.01578   0.01577   3.11315
   D66        3.07021   0.00107   0.00000   0.03240   0.03238   3.10259
   D67       -1.05382   0.00025   0.00000   0.01496   0.01498  -1.03885
   D68        0.95171   0.00057   0.00000   0.02330   0.02329   0.97500
   D69        1.07530  -0.00002   0.00000   0.01303   0.01302   1.08832
   D70       -3.04873  -0.00084   0.00000  -0.00441  -0.00438  -3.05312
   D71       -1.04320  -0.00052   0.00000   0.00393   0.00393  -1.03927
   D72       -0.97766   0.00007   0.00000  -0.00523  -0.00522  -0.98288
   D73        1.12840  -0.00051   0.00000  -0.01499  -0.01496   1.11343
   D74       -3.06837  -0.00006   0.00000  -0.00744  -0.00741  -3.07579
   D75       -3.14141   0.00079   0.00000   0.01243   0.01241  -3.12899
   D76       -1.03535   0.00021   0.00000   0.00268   0.00267  -1.03268
   D77        1.05106   0.00066   0.00000   0.01023   0.01022   1.06128
   D78        1.14046  -0.00022   0.00000  -0.00340  -0.00342   1.13704
   D79       -3.03667  -0.00080   0.00000  -0.01315  -0.01316  -3.04983
   D80       -0.95026  -0.00035   0.00000  -0.00560  -0.00561  -0.95587
         Item               Value     Threshold  Converged?
 Maximum Force            0.016900     0.000450     NO 
 RMS     Force            0.003061     0.000300     NO 
 Maximum Displacement     0.594582     0.001800     NO 
 RMS     Displacement     0.106335     0.001200     NO 
 Predicted change in Energy=-3.174230D-03
 GradGradGradGradGradGradGradGradGradGradGradGradGradGradGradGradGradGrad

                          Input orientation:                          
 ---------------------------------------------------------------------
 Center     Atomic      Atomic             Coordinates (Angstroms)
 Number     Number       Type             X           Y           Z
 ---------------------------------------------------------------------
      1          8           0        5.833905   -0.852933   -0.400282
      2          6           0        4.541407   -0.464576   -0.304597
      3          6           0        3.745817   -1.342436    0.630613
      4          6           0        3.753298   -2.818387    0.215304
      5          6           0        3.274768   -3.049856   -1.221839
      6          6           0        1.854978   -2.539778   -1.489860
      7          6           0        1.332736   -2.885971   -2.890423
      8          6           0        2.114243   -2.208839   -4.021469
      9          6           0        1.503928   -2.432005   -5.411879
     10          6           0        1.424280   -3.900005   -5.852790
     11          6           0        2.786224   -4.598199   -5.915213
     12          8           0        4.096347    0.452202   -0.962085
     13          1           0        6.254641   -0.256176   -1.042739
     14          1           0        2.731869   -0.938797    0.651542
     15          1           0        4.166922   -1.243842    1.638380
     16          1           0        4.765928   -3.221932    0.329034
     17          1           0        3.114147   -3.370139    0.915410
     18          1           0        3.974949   -2.568372   -1.915683
     19          1           0        3.322832   -4.125292   -1.434689
     20          1           0        1.176389   -2.962603   -0.736835
     21          1           0        1.827437   -1.450773   -1.359507
     22          1           0        1.356287   -3.975404   -3.022290
     23          1           0        0.277910   -2.590258   -2.961736
     24          1           0        3.152001   -2.562144   -4.017685
     25          1           0        2.161861   -1.130051   -3.824872
     26          1           0        0.494877   -1.999330   -5.433011
     27          1           0        2.093811   -1.871826   -6.149301
     28          1           0        0.763563   -4.454785   -5.175732
     29          1           0        0.948725   -3.942399   -6.840469
     30          1           0        3.473512   -4.058321   -6.575767
     31          1           0        3.254141   -4.659475   -4.927345
     32          1           0        2.687669   -5.619498   -6.296885
 ---------------------------------------------------------------------
                    Distance matrix (angstroms):
                    1          2          3          4          5
     1  O    0.000000
     2  C    1.352970   0.000000
     3  C    2.379594   1.509377   0.000000
     4  C    2.927607   2.536108   1.533288   0.000000
     5  C    3.471398   3.021487   2.562957   1.532302   0.000000
     6  C    4.456959   3.595582   3.083068   2.566871   1.532260
     7  C    5.531235   4.779668   4.539070   3.938176   2.565642
     8  C    5.365385   4.769561   5.005453   4.583481   3.145164
     9  C    6.808691   6.259504   6.536432   6.072409   4.590648
[...]
 Alpha virt. eigenvalues --    4.20935   4.22840   4.23902   4.27584   4.33517
 Alpha virt. eigenvalues --    4.35935   4.37711   4.39866   4.40883   4.42110
 Alpha virt. eigenvalues --    4.46153   4.48203   4.51261   4.52388   4.55964
 Alpha virt. eigenvalues --    4.56566   4.57447   4.59910   4.61651   4.63363
 Alpha virt. eigenvalues --    4.67836   4.68736   4.70613   4.72725   4.74840
 Alpha virt. eigenvalues --    4.77317   4.79465   4.80930   4.83869   4.88974
 Alpha virt. eigenvalues --    4.90529   4.98195   5.12435   5.16983   5.20917
 Alpha virt. eigenvalues --    5.22555   5.39192   5.39941   5.51000   5.59346
 Alpha virt. eigenvalues --    5.73449   5.84778   5.87429   6.15613   6.19416
 Alpha virt. eigenvalues --    6.33358   6.34418   6.45799   6.48251   6.63751
 Alpha virt. eigenvalues --    6.69801   6.73730   6.83726   6.88070   7.07435
 Alpha virt. eigenvalues --    7.08565   7.27550  22.42850  22.52633  22.55715
 Alpha virt. eigenvalues --   22.59009  22.59358  22.60447  22.61068  22.65949
 Alpha virt. eigenvalues --   22.66441  23.28285  43.97215  44.02332
          Condensed to atoms (all electrons):
               1          2          3          4          5          6
     1  O    7.959186   0.343622  -0.108934   0.010727  -0.009668   0.000612
     2  C    0.343622   4.525043   0.256635  -0.036937   0.026950  -0.007740
     3  C   -0.108934   0.256635   5.356090   0.195498  -0.076668   0.033557
     4  C    0.010727  -0.036937   0.195498   5.206568   0.227555  -0.044757
     5  C   -0.009668   0.026950  -0.076668   0.227555   5.370619   0.160455
     6  C    0.000612  -0.007740   0.033557  -0.044757   0.160455   5.275458
     7  C    0.000092   0.000669  -0.001487   0.007608  -0.046969   0.252402
     8  C   -0.000066  -0.000628  -0.000419   0.001429   0.005954  -0.044317
     9  C   -0.000002   0.000005   0.000000   0.000033   0.002255   0.005200
    10  C    0.000000   0.000000  -0.000001  -0.000024  -0.000451   0.000557
    11  C   -0.000000  -0.000001  -0.000001   0.000018  -0.000271   0.000480
    12  O   -0.091337   0.648962  -0.086944  -0.002095   0.007521  -0.006377
    13  H    0.287156  -0.022903   0.015667  -0.001832   0.000630  -0.000017
    14  H    0.003983  -0.051450   0.433693  -0.028569  -0.005168  -0.004535
    15  H    0.003653  -0.020536   0.402862  -0.043048   0.010016  -0.000098
    16  H    0.003046  -0.006488  -0.029807   0.440893  -0.063174   0.010152
    17  H   -0.000137   0.007265  -0.055865   0.431642  -0.035024  -0.006965
    18  H    0.004828   0.004552  -0.017704  -0.028849   0.431023  -0.059830
    19  H   -0.000284  -0.000630   0.012069  -0.045818   0.424992  -0.045733
    20  H   -0.000003   0.000938  -0.007164   0.008416  -0.054024   0.424592
    21  H    0.000371  -0.004144   0.010524  -0.015244  -0.047688   0.431500
    22  H   -0.000001  -0.000007   0.000075  -0.000599  -0.013584  -0.030998
    23  H    0.000001  -0.000049   0.000191  -0.000503   0.010485  -0.042652
    24  H   -0.000017  -0.000079   0.000306   0.000283   0.004027  -0.008481
    25  H   -0.000027   0.000055   0.000129  -0.000143  -0.003352   0.007991
    26  H    0.000000  -0.000001   0.000001   0.000003  -0.000046  -0.000349
    27  H    0.000000  -0.000003   0.000003  -0.000007   0.000100  -0.000880
    28  H    0.000000  -0.000000   0.000001   0.000001   0.000213   0.000414
    29  H   -0.000000   0.000000  -0.000000   0.000000  -0.000015   0.000049
    30  H    0.000000  -0.000000   0.000000   0.000000   0.000063  -0.000054
    31  H    0.000000   0.000001  -0.000003  -0.000002  -0.001096   0.000688
    32  H    0.000000  -0.000000   0.000000  -0.000000   0.000005   0.000001
               7          8          9         10         11         12
     1  O    0.000092  -0.000066  -0.000002   0.000000  -0.000000  -0.091337
     2  C    0.000669  -0.000628   0.000005   0.000000  -0.000001   0.648962
     3  C   -0.001487  -0.000419   0.000000  -0.000001  -0.000001  -0.086944
     4  C    0.007608   0.001429   0.000033  -0.000024   0.000018  -0.002095
     5  C   -0.046969   0.005954   0.002255  -0.000451  -0.000271   0.007521
     6  C    0.252402  -0.044317   0.005200   0.000557   0.000480  -0.006377
     7  C    5.265947   0.152066  -0.033019   0.031571  -0.015360  -0.000684
     8  C    0.152066   5.418504   0.190307  -0.075653   0.039108  -0.000341
     9  C   -0.033019   0.190307   5.218889   0.239502  -0.059516   0.000052
    10  C    0.031571  -0.075653   0.239502   5.200468   0.238595   0.000000
    11  C   -0.015360   0.039108  -0.059516   0.238595   5.089398  -0.000000
    12  O   -0.000684  -0.000341   0.000052   0.000000  -0.000000   7.846320
    13  H    0.000008  -0.000017   0.000000  -0.000000   0.000000   0.006679
    14  H    0.000294   0.000186   0.000002   0.000000   0.000000   0.003905
    15  H    0.000030  -0.000003  -0.000000   0.000000  -0.000000   0.003572
    16  H   -0.000790   0.000100  -0.000004   0.000001  -0.000000   0.000127
    17  H   -0.000046  -0.000114   0.000003  -0.000000   0.000000  -0.000489
    18  H   -0.003433   0.000229   0.000075   0.000080   0.000239  -0.004973
    19  H    0.004366  -0.002576  -0.000106  -0.000019   0.000006   0.000051
    20  H   -0.040163   0.009885  -0.000483   0.000158  -0.000012   0.000310
    21  H   -0.028880  -0.010635  -0.000365   0.000002  -0.000020   0.007287
    22  H    0.434353  -0.053926  -0.012757   0.007534  -0.001535  -0.000010
    23  H    0.426830  -0.048898   0.006241  -0.005851   0.000740  -0.000006
    24  H   -0.061642   0.429887  -0.024405  -0.012569  -0.001384   0.000155
    25  H   -0.047895   0.431758  -0.044026   0.009594  -0.000482   0.001490
    26  H   -0.010765  -0.036396   0.433861  -0.058012   0.009726  -0.000001
    27  H    0.012196  -0.075931   0.449260  -0.038293  -0.006961   0.000002
    28  H    0.004761  -0.018271  -0.034201   0.427604  -0.053027  -0.000000
    29  H   -0.001117   0.014892  -0.057506   0.432795  -0.039295   0.000000
    30  H    0.001170  -0.009442   0.009814  -0.051272   0.413245   0.000000
    31  H   -0.004104   0.019991  -0.022149  -0.033241   0.408188  -0.000000
    32  H    0.000328  -0.001809   0.011306  -0.042550   0.416099  -0.000000
              13         14         15         16         17         18
     1  O    0.287156   0.003983   0.003653   0.003046  -0.000137   0.004828
     2  C   -0.022903  -0.051450  -0.020536  -0.006488   0.007265   0.004552
     3  C    0.015667   0.433693   0.402862  -0.029807  -0.055865  -0.017704
     4  C   -0.001832  -0.028569  -0.043048   0.440893   0.431642  -0.028849
     5  C    0.000630  -0.005168   0.010016  -0.063174  -0.035024   0.431023
     6  C   -0.000017  -0.004535  -0.000098   0.010152  -0.006965  -0.059830
     7  C    0.000008   0.000294   0.000030  -0.000790  -0.000046  -0.003433
     8  C   -0.000017   0.000186  -0.000003   0.000100  -0.000114   0.000229
     9  C    0.000000   0.000002  -0.000000  -0.000004   0.000003   0.000075
    10  C   -0.000000   0.000000   0.000000   0.000001  -0.000000   0.000080
    11  C    0.000000   0.000000  -0.000000  -0.000000   0.000000   0.000239
    12  O    0.006679   0.003905   0.003572   0.000127  -0.000489  -0.004973
    13  H    0.380941  -0.000715  -0.000871  -0.000216   0.000078  -0.000077
    14  H   -0.000715   0.487414  -0.014837   0.004423  -0.003966   0.001286
    15  H   -0.000871  -0.014837   0.499784  -0.004640  -0.005017  -0.000585
    16  H   -0.000216   0.004423  -0.004640   0.508351  -0.017614  -0.002266
    17  H    0.000078  -0.003966  -0.005017  -0.017614   0.528250   0.005814
    18  H   -0.000077   0.001286  -0.000585  -0.002266   0.005814   0.518542
    19  H    0.000010  -0.000668  -0.000104  -0.005898  -0.003251  -0.019213
    20  H   -0.000002   0.001854  -0.000152   0.000143   0.000796   0.005025
    21  H   -0.000045  -0.007556   0.000850  -0.000654   0.000920   0.001168
    22  H    0.000000  -0.000034   0.000002  -0.000002   0.000098   0.001406
    23  H    0.000000  -0.000020  -0.000001   0.000012  -0.000017  -0.000540
    24  H    0.000017  -0.000035   0.000001  -0.000035  -0.000018  -0.005721
    25  H    0.000014   0.000029  -0.000000   0.000016   0.000003   0.000785
    26  H   -0.000000  -0.000000   0.000000  -0.000000  -0.000000  -0.000021
    27  H   -0.000000  -0.000000  -0.000000   0.000000  -0.000000  -0.000042
    28  H   -0.000000   0.000000  -0.000000  -0.000000  -0.000000  -0.000036
    29  H   -0.000000  -0.000000   0.000000  -0.000000   0.000000   0.000003
    30  H   -0.000000  -0.000000  -0.000000   0.000000  -0.000000  -0.000023
    31  H   -0.000000   0.000000   0.000000  -0.000000  -0.000000   0.000308
    32  H   -0.000000   0.000000   0.000000   0.000000  -0.000000  -0.000007
              19         20         21         22         23         24
     1  O   -0.000284  -0.000003   0.000371  -0.000001   0.000001  -0.000017
     2  C   -0.000630   0.000938  -0.004144  -0.000007  -0.000049  -0.000079
     3  C    0.012069  -0.007164   0.010524   0.000075   0.000191   0.000306
     4  C   -0.045818   0.008416  -0.015244  -0.000599  -0.000503   0.000283
     5  C    0.424992  -0.054024  -0.047688  -0.013584   0.010485   0.004027
     6  C   -0.045733   0.424592   0.431500  -0.030998  -0.042652  -0.008481
     7  C    0.004366  -0.040163  -0.028880   0.434353   0.426830  -0.061642
     8  C   -0.002576   0.009885  -0.010635  -0.053926  -0.048898   0.429887
     9  C   -0.000106  -0.000483  -0.000365  -0.012757   0.006241  -0.024405
    10  C   -0.000019   0.000158   0.000002   0.007534  -0.005851  -0.012569
    11  C    0.000006  -0.000012  -0.000020  -0.001535   0.000740  -0.001384
    12  O    0.000051   0.000310   0.007287  -0.000010  -0.000006   0.000155
    13  H    0.000010  -0.000002  -0.000045   0.000000   0.000000   0.000017
    14  H   -0.000668   0.001854  -0.007556  -0.000034  -0.000020  -0.000035
    15  H   -0.000104  -0.000152   0.000850   0.000002  -0.000001   0.000001
    16  H   -0.005898   0.000143  -0.000654  -0.000002   0.000012  -0.000035
    17  H   -0.003251   0.000796   0.000920   0.000098  -0.000017  -0.000018
    18  H   -0.019213   0.005025   0.001168   0.001406  -0.000540  -0.005721
    19  H    0.525464  -0.000729   0.004471   0.001819   0.000186   0.000558
    20  H   -0.000729   0.535639  -0.019248  -0.002883  -0.008095  -0.000613
    21  H    0.004471  -0.019248   0.497716   0.005760  -0.002970   0.001209
    22  H    0.001819  -0.002883   0.005760   0.536236  -0.020966  -0.000455
    23  H    0.000186  -0.008095  -0.002970  -0.020966   0.529619   0.005479
    24  H    0.000558  -0.000613   0.001209  -0.000455   0.005479   0.539821
    25  H    0.000136   0.000324   0.000460   0.004956   0.000052  -0.019251
    26  H   -0.000002  -0.000018   0.000124   0.001252   0.001601   0.005888
    27  H    0.000009   0.000013  -0.000004  -0.000644   0.000163  -0.001662
    28  H    0.000002  -0.000017  -0.000024  -0.008785   0.000961   0.002117
    29  H    0.000002  -0.000001   0.000002   0.000623  -0.000258  -0.000873
    30  H   -0.000004   0.000000   0.000000  -0.000195  -0.000010   0.001582
    31  H    0.000266   0.000012   0.000002   0.002110  -0.000120  -0.011601
    32  H    0.000001  -0.000001  -0.000000  -0.000038   0.000006   0.000423
              25         26         27         28         29         30
     1  O   -0.000027   0.000000   0.000000   0.000000  -0.000000   0.000000
     2  C    0.000055  -0.000001  -0.000003  -0.000000   0.000000  -0.000000
     3  C    0.000129   0.000001   0.000003   0.000001  -0.000000   0.000000
     4  C   -0.000143   0.000003  -0.000007   0.000001   0.000000   0.000000
     5  C   -0.003352  -0.000046   0.000100   0.000213  -0.000015   0.000063
     6  C    0.007991  -0.000349  -0.000880   0.000414   0.000049  -0.000054
     7  C   -0.047895  -0.010765   0.012196   0.004761  -0.001117   0.001170
     8  C    0.431758  -0.036396  -0.075931  -0.018271   0.014892  -0.009442
     9  C   -0.044026   0.433861   0.449260  -0.034201  -0.057506   0.009814
    10  C    0.009594  -0.058012  -0.038293   0.427604   0.432795  -0.051272
    11  C   -0.000482   0.009726  -0.006961  -0.053027  -0.039295   0.413245
    12  O    0.001490  -0.000001   0.000002  -0.000000   0.000000   0.000000
    13  H    0.000014  -0.000000  -0.000000  -0.000000  -0.000000  -0.000000
    14  H    0.000029  -0.000000  -0.000000   0.000000  -0.000000  -0.000000
    15  H   -0.000000   0.000000  -0.000000  -0.000000   0.000000  -0.000000
    16  H    0.000016  -0.000000   0.000000  -0.000000  -0.000000   0.000000
    17  H    0.000003  -0.000000  -0.000000  -0.000000   0.000000  -0.000000
    18  H    0.000785  -0.000021  -0.000042  -0.000036   0.000003  -0.000023
    19  H    0.000136  -0.000002   0.000009   0.000002   0.000002  -0.000004
    20  H    0.000324  -0.000018   0.000013  -0.000017  -0.000001   0.000000
    21  H    0.000460   0.000124  -0.000004  -0.000024   0.000002   0.000000
    22  H    0.004956   0.001252  -0.000644  -0.008785   0.000623  -0.000195
    23  H    0.000052   0.001601   0.000163   0.000961  -0.000258  -0.000010
    24  H   -0.019251   0.005888  -0.001662   0.002117  -0.000873   0.001582
    25  H    0.500408  -0.003976  -0.006285  -0.000818  -0.000073  -0.000269
    26  H   -0.003976   0.540022  -0.017958  -0.001477  -0.006294   0.000097
    27  H   -0.006285  -0.017958   0.534260   0.006040  -0.003879   0.001710
    28  H   -0.000818  -0.001477   0.006040   0.552551  -0.023332   0.007423
    29  H   -0.000073  -0.006294  -0.003879  -0.023332   0.549578  -0.003023
    30  H   -0.000269   0.000097   0.001710   0.007423  -0.003023   0.541588
    31  H    0.000574  -0.000615   0.001199  -0.004227   0.006483  -0.031090
    32  H    0.000023  -0.000349  -0.000343  -0.003674  -0.005908  -0.022788
              31         32
     1  O    0.000000   0.000000
     2  C    0.000001  -0.000000
     3  C   -0.000003   0.000000
     4  C   -0.000002  -0.000000
     5  C   -0.001096   0.000005
     6  C    0.000688   0.000001
     7  C   -0.004104   0.000328
     8  C    0.019991  -0.001809
     9  C   -0.022149   0.011306
    10  C   -0.033241  -0.042550
    11  C    0.408188   0.416099
    12  O   -0.000000  -0.000000
    13  H   -0.000000  -0.000000
    14  H    0.000000   0.000000
    15  H    0.000000   0.000000
    16  H   -0.000000   0.000000
    17  H   -0.000000  -0.000000
    18  H    0.000308  -0.000007
    19  H    0.000266   0.000001
    20  H    0.000012  -0.000001
    21  H    0.000002  -0.000000
    22  H    0.002110  -0.000038
    23  H   -0.000120   0.000006
    24  H   -0.011601   0.000423
    25  H    0.000574   0.000023
    26  H   -0.000615  -0.000349
    27  H    0.001199  -0.000343
    28  H   -0.004227  -0.003674
    29  H    0.006483  -0.005908
    30  H   -0.031090  -0.022788
    31  H    0.555332  -0.024744
    32  H   -0.024744   0.531112
 Mulliken charges:
               1
     1  O   -0.406798
     2  C    0.336899
     3  C   -0.332303
     4  C   -0.282246
     5  C   -0.325662
     6  C   -0.300326
     7  C   -0.298336
     8  C   -0.334853
     9  C   -0.278265
    10  C   -0.270526
    11  C   -0.437975
    12  O   -0.333178
    13  H    0.335494
    14  H    0.180484
    15  H    0.169122
    16  H    0.164324
    17  H    0.153655
    18  H    0.167956
    19  H    0.150626
    20  H    0.145502
    21  H    0.175114
    22  H    0.151195
    23  H    0.148393
    24  H    0.157088
    25  H    0.167799
    26  H    0.143704
    27  H    0.147939
    28  H    0.145803
    29  H    0.137146
    30  H    0.141477
    31  H    0.137837
    32  H    0.142908
 Sum of Mulliken charges =  -0.00000
 Mulliken charges with hydrogens summed into heavy atoms:
               1
     1  O   -0.071304
     2  C    0.336899
     3  C    0.017304
     4  C    0.035733
     5  C   -0.007079
     6  C    0.020290
     7  C    0.001252
     8  C   -0.009966
     9  C    0.013378
    10  C    0.012422
    11  C   -0.015752
    12  O   -0.333178
 Electronic spatial extent (au):  <R**2>=           3557.1352
 Charge=             -0.0000 electrons
 Dipole moment (field-independent basis, Debye):
    X=              0.4982    Y=              1.0838    Z=              1.0394  Tot=              1.5822
 Quadrupole moment (field-independent basis, Debye-Ang):
   XX=            -74.9183   YY=            -75.4924   ZZ=            -79.2252
   XY=              1.8543   XZ=              1.8926   YZ=             -4.4945
 Traceless Quadrupole moment (field-independent basis, Debye-Ang):
   XX=              1.6270   YY=              1.0529   ZZ=             -2.6799
   XY=              1.8543   XZ=              1.8926   YZ=             -4.4945
 Octapole moment (field-independent basis, Debye-Ang**2):
  XXX=             38.0926  YYY=            -16.3354  ZZZ=              0.0460  XYY=             17.9439
  XXY=             -2.7245  XXZ=             -0.0523  XZZ=              5.6274  YZZ=             -3.3249
  YYZ=             13.3666  XYZ=            -11.8259
 Hexadecapole moment (field-independent basis, Debye-Ang**3):
 XXXX=          -3656.9386 YYYY=           -591.1112 ZZZZ=           -471.4491 XXXY=            -25.2848
 XXXZ=            -11.6811 YYYX=            -57.1558 YYYZ=            -33.6810 ZZZX=             20.5883
 ZZZY=             -8.2231 XXYY=           -680.8619 XXZZ=           -716.0393 YYZZ=           -174.7517
 XXYZ=            -28.2838 YYXZ=             34.2778 ZZXY=            -12.1780
 N-N= 7.329722926210D+02 E-N=-2.730962123135D+03  KE= 5.405733624595D+02
 Unable to Open any file for archive entry.
 1\1\GINC-NOTCH075\SP\RM062X\def2TZVP\C10H20O2\U6032257\03-Feb-2022\0\\
 # M062X/def2tzvp int=(grid=ultrafine) nmr=giao guess=read geom=check\\
 Ac1.xyz\\0,1\O,0,5.8051545012,-0.6553119663,-0.3162126633\C,0,4.461889
 8803,-0.4607322217,-0.3455361829\C,0,3.7469526384,-1.3322298564,0.6576
 294827\C,0,3.7744410511,-2.8184830056,0.2377079543\C,0,3.2960770894,-3
 .0698533407,-1.1982889384\C,0,1.8768751038,-2.5669154474,-1.4857109891
 \C,0,1.3762447364,-2.9094440002,-2.8948076048\C,0,2.1817502156,-2.2369
 826787,-4.0135615544\C,0,1.5631572989,-2.3994032122,-5.409195673\C,0,1
 .3922951583,-3.8515584377,-5.8816613612\C,0,2.7009113339,-4.644571458,
 -5.9352749657\O,0,3.9371597027,0.3014265343,-1.1287080001\H,0,6.171643
 9775,-0.088913449,-1.016180305\H,0,2.7227668016,-0.9639928639,0.731647
 6446\H,0,4.2279678805,-1.2206919183,1.6344675009\H,0,4.7958235681,-3.1
 965934942,0.3511686193\H,0,3.1475093922,-3.3774510054,0.9427441844\H,0
 ,4.0005454541,-2.5993531001,-1.894589386\H,0,3.3469442386,-4.147923434
 2,-1.4001394321\H,0,1.1904034997,-2.9947142215,-0.7421480002\H,0,1.843
 8308503,-1.4788025321,-1.3573190392\H,0,1.3876536451,-3.9994611053,-3.
 0277365393\H,0,0.3252400304,-2.6030378309,-2.9827227571\H,0,3.20520127
 02,-2.6296300462,-4.021520438\H,0,2.2752569901,-1.1669542,-3.787286004
 7\H,0,0.5822392444,-1.9057339518,-5.4231107128\H,0,2.1866590027,-1.862
 1962621,-6.1364035348\H,0,0.6785400294,-4.3709894288,-5.2304069293\H,0
 ,0.9354352234,-3.841379627,-6.8790166504\H,0,3.4427615282,-4.138504906
 6,-6.5638218556\H,0,3.1410050971,-4.7662839756,-4.9402978611\H,0,2.541
 0635666,-5.6455335566,-6.3484080076\\Version=ES64L-G16RevC.01\State=1-
 A\HF=-543.5428681\RMSD=2.117e-09\Dipole=0.242683,-0.4621325,0.3391234\
 Quadrupole=1.6730827,-4.116808,2.4437252,2.1258637,-0.5073579,-0.6582\
 PG=C01 [X(C10H20O2)]\\@
 The archive entry for this job was punched.


 WHERE THERE IS MUCH DESIRE TO LEARN, THERE OF NECESSITY WILL BE
 MUCH ARGUING, MUCH WRITING, MANY OPINIONS; FOR OPINION IN GOOD MEN
 IS BUT KNOWLEDGE IN THE MAKING. -- JOHN MILTON.
 Job cpu time:       0 days  0 hours 41 minutes  7.7 seconds.
 Elapsed time:       0 days  0 hours  1 minutes 28.3 seconds.
 File lengths (MBytes):  RWF=    140 Int=      0 D2E=      0 Chk=     24 Scr=      1
 Normal termination of Gaussian 16 at Thu Feb  3 07:51:13 2022.
