 Entering Gaussian System, Link 0=/uufs/chpc.utah.edu/sys/installdir/gaussian16/C01/AVX2/g16/g16
 Input=Ac1_clust-28.com
 Output=Ac1_clust-28.log
 Initial command:
 /uufs/chpc.utah.edu/sys/installdir/gaussian16/C01/AVX2/g16/l1.exe "/scratch/general/lustre/u6032257/3857484/notchpeak.peaks/Gau-264953.inp" -scrdir="/scratch/general/lustre/u6032257/3857484/notchpeak.peaks/"
 Entering Link 1 = /uufs/chpc.utah.edu/sys/installdir/gaussian16/C01/AVX2/g16/l1.exe PID=    264955.
  
 Copyright (c) 1988-2019, Gaussian, Inc.  All Rights Reserved.
  
 This is part of the Gaussian(R) 16 program.  It is based on
 the Gaussian(R) 09 system (copyright 2009, Gaussian, Inc.),
 the Gaussian(R) 03 system (copyright 2003, Gaussian, Inc.),
 the Gaussian(R) 98 system (copyright 1998, Gaussian, Inc.),
 the Gaussian(R) 94 system (copyright 1995, Gaussian, Inc.),
 the Gaussian 92(TM) system (copyright 1992, Gaussian, Inc.),
 the Gaussian 90(TM) system (copyright 1990, Gaussian, Inc.),
 the Gaussian 88(TM) system (copyright 1988, Gaussian, Inc.),
 the Gaussian 86(TM) system (copyright 1986, Carnegie Mellon
 University), and the Gaussian 82(TM) system (copyright 1983,
 Carnegie Mellon University). Gaussian is a federally registered
 trademark of Gaussian, Inc.
  
 This software contains proprietary and confidential information,
 including trade secrets, belonging to Gaussian, Inc.
  
 This software is provided under written license and may be
 used, copied, transmitted, or stored only in accord with that
 written license.
  
 The following legend is applicable only to US Government
 contracts under FAR:
  
                    RESTRICTED RIGHTS LEGEND
  
 Use, reproduction and disclosure by the US Government is
 subject to restrictions as set forth in subparagraphs (a)
 and (c) of the Commercial Computer Software - Restricted
 Rights clause in FAR 52.227-19.
  
 Gaussian, Inc.
 340 Quinnipiac St., Bldg. 40, Wallingford CT 06492
  
  
 ---------------------------------------------------------------
 Warning -- This program may not be used in any manner that
 competes with the business of Gaussian, Inc. or will provide
 assistance to any competitor of Gaussian, Inc.  The licensee
 of this program is prohibited from giving any competitor of
 Gaussian, Inc. access to this program.  By using this program,
 the user acknowledges that Gaussian, Inc. is engaged in the
 business of creating and licensing software in the field of
 computational chemistry and represents and warrants to the
 licensee that it is not a competitor of Gaussian, Inc. and that
 it will not use this program in any manner prohibited above.
 ---------------------------------------------------------------
  

 Cite this work as:
 Gaussian 16, Revision C.01,
 M. J. Frisch, G. W. Trucks, H. B. Schlegel, G. E. Scuseria, 
 M. A. Robb, J. R. Cheeseman, G. Scalmani, V. Barone, 
 G. A. Petersson, H. Nakatsuji, X. Li, M. Caricato, A. V. Marenich, 
 J. Bloino, B. G. Janesko, R. Gomperts, B. Mennucci, H. P. Hratchian, 
 J. V. Ortiz, A. F. Izmaylov, J. L. Sonnenberg, D. Williams-Young, 
 F. Ding, F. Lipparini, F. Egidi, J. Goings, B. Peng, A. Petrone, 
 T. Henderson, D. Ranasinghe, V. G. Zakrzewski, J. Gao, N. Rega, 
 G. Zheng, W. Liang, M. Hada, M. Ehara, K. Toyota, R. Fukuda, 
 J. Hasegawa, M. Ishida, T. Nakajima, Y. Honda, O. Kitao, H. Nakai, 
 T. Vreven, K. Throssell, J. A. Montgomery, Jr., J. E. Peralta, 
 F. Ogliaro, M. J. Bearpark, J. J. Heyd, E. N. Brothers, K. N. Kudin, 
 V. N. Staroverov, T. A. Keith, R. Kobayashi, J. Normand, 
 K. Raghavachari, A. P. Rendell, J. C. Burant, S. S. Iyengar, 
 J. Tomasi, M. Cossi, J. M. Millam, M. Klene, C. Adamo, R. Cammi, 
 J. W. Ochterski, R. L. Martin, K. Morokuma, O. Farkas, 
 J. B. Foresman, and D. J. Fox, Gaussian, Inc., Wallingford CT, 2019.
 
 ******************************************
 Gaussian 16:  ES64L-G16RevC.01  3-Jul-2019
                 3-Feb-2022 
 ******************************************
 %NProcShared=32
 Will use up to   32 processors via shared memory.
 %mem=16GB
 %chk=Ac1_clust-28.chk
 ----------------------------------------------------------------------
 # B3LYP/6-31G(d,p) empiricaldispersion=GD3BJ int=(grid=ultrafine) opt 
 freq=noraman
 ----------------------------------------------------------------------
 1/18=20,19=15,26=4,38=1/1,3;
 2/9=110,12=2,17=6,18=5,40=1/2;
 3/5=1,6=6,7=101,11=2,25=1,30=1,71=1,74=-5,75=-5,124=41/1,2,3;
 4//1;
 5/5=2,38=5/2;
 6/7=2,8=2,9=2,10=2,28=1/1;
 7//1,2,3,16;
 1/18=20,19=15,26=4/3(2);
 2/9=110/2;
 99//99;
 2/9=110/2;
 3/5=1,6=6,7=101,11=2,25=1,30=1,71=1,74=-5,75=-5,124=41/1,2,3;
 4/5=5,16=3,69=1/1;
 5/5=2,38=5/2;
 7//1,2,3,16;
 1/18=20,19=15,26=4/3(-5);
 2/9=110/2;
 6/7=2,8=2,9=2,10=2,19=2,28=1/1;
 99/9=1/99;
 -------
 Ac1.xyz
 -------
 Symbolic Z-matrix:
 Charge =  0 Multiplicity = 1
 O                     5.3435    0.0453    0.3587 
 C                     5.3441   -0.9156   -0.5904 
 C                     4.8967   -2.2723   -0.0529 
 C                     3.4656   -2.3076    0.545 
 C                     2.3252   -1.8783   -0.4051 
 C                     2.1979   -2.7493   -1.6694 
 C                     0.9976   -2.3483   -2.5483 
 C                     0.7902   -3.2473   -3.7833 
 C                     1.9159   -3.151    -4.8314 
 C                     1.6275   -3.9853   -6.0912 
 C                     2.7508   -3.8909   -7.1333 
 O                     5.687    -0.7176   -1.7466 
 H                     5.6407    0.8293   -0.1035 
 H                     5.624    -2.5763    0.6989 
 H                     4.988    -2.9999   -0.8589 
 H                     3.2613   -3.318     0.904 
 H                     3.4353   -1.6805    1.4389 
 H                     1.3846   -1.9116    0.1475 
 H                     2.4567   -0.8338   -0.6932 
 H                     3.1154   -2.67     -2.2535 
 H                     2.1056   -3.7983   -1.3831 
 H                     0.0895   -2.3776   -1.9436 
 H                     1.1067   -1.3103   -2.8681 
 H                    -0.1554   -2.9726   -4.2543 
 H                     0.6712   -4.2842   -3.4643 
 H                     2.0619   -2.1065   -5.1129 
 H                     2.8588   -3.4817   -4.3936 
 H                     1.4817   -5.0309   -5.8141 
 H                     0.6901   -3.6571   -6.5436 
 H                     2.8987   -2.8625   -7.4654 
 H                     3.6982   -4.25     -6.7295 
 H                     2.5191   -4.4913   -8.0136 
 

 GradGradGradGradGradGradGradGradGradGradGradGradGradGradGradGradGradGrad
 Berny optimization.
 Initialization pass.
                           ----------------------------
                           !    Initial Parameters    !
                           ! (Angstroms and Degrees)  !
 --------------------------                            --------------------------
 ! Name  Definition              Value          Derivative Info.                !
 --------------------------------------------------------------------------------
 ! R1    R(1,2)                  1.3506         estimate D2E/DX2                !
 ! R2    R(1,13)                 0.9574         estimate D2E/DX2                !
 ! R3    R(2,3)                  1.5263         estimate D2E/DX2                !
 ! R4    R(2,12)                 1.2221         estimate D2E/DX2                !
 ! R5    R(3,4)                  1.5514         estimate D2E/DX2                !
 ! R6    R(3,14)                 1.0893         estimate D2E/DX2                !
 ! R7    R(3,15)                 1.0897         estimate D2E/DX2                !
 ! R8    R(4,5)                  1.5452         estimate D2E/DX2                !
 ! R9    R(4,16)                 1.0916         estimate D2E/DX2                !
 ! R10   R(4,17)                 1.0924         estimate D2E/DX2                !
 ! R11   R(5,6)                  1.5406         estimate D2E/DX2                !
 ! R12   R(5,18)                 1.0914         estimate D2E/DX2                !
 ! R13   R(5,19)                 1.0915         estimate D2E/DX2                !
 ! R14   R(6,7)                  1.5408         estimate D2E/DX2                !
 ! R15   R(6,20)                 1.0905         estimate D2E/DX2                !
 ! R16   R(6,21)                 1.0913         estimate D2E/DX2                !
 ! R17   R(7,8)                  1.5416         estimate D2E/DX2                !
 ! R18   R(7,22)                 1.0914         estimate D2E/DX2                !
 ! R19   R(7,23)                 1.0916         estimate D2E/DX2                !
 ! R20   R(8,9)                  1.5411         estimate D2E/DX2                !
 ! R21   R(8,24)                 1.0915         estimate D2E/DX2                !
 ! R22   R(8,25)                 1.0914         estimate D2E/DX2                !
 ! R23   R(9,10)                 1.5383         estimate D2E/DX2                !
 ! R24   R(9,26)                 1.0916         estimate D2E/DX2                !
 ! R25   R(9,27)                 1.0909         estimate D2E/DX2                !
 ! R26   R(10,11)                1.5352         estimate D2E/DX2                !
 ! R27   R(10,28)                1.0915         estimate D2E/DX2                !
 ! R28   R(10,29)                1.0914         estimate D2E/DX2                !
 ! R29   R(11,30)                1.0908         estimate D2E/DX2                !
 ! R30   R(11,31)                1.0907         estimate D2E/DX2                !
 ! R31   R(11,32)                1.0905         estimate D2E/DX2                !
 ! A1    A(2,1,13)             104.0764         estimate D2E/DX2                !
 ! A2    A(1,2,3)              112.631          estimate D2E/DX2                !
 ! A3    A(1,2,12)             123.3449         estimate D2E/DX2                !
 ! A4    A(3,2,12)             124.0146         estimate D2E/DX2                !
 ! A5    A(2,3,4)              115.2353         estimate D2E/DX2                !
 ! A6    A(2,3,14)             107.1811         estimate D2E/DX2                !
 ! A7    A(2,3,15)             107.9676         estimate D2E/DX2                !
 ! A8    A(4,3,14)             110.0945         estimate D2E/DX2                !
 ! A9    A(4,3,15)             110.3142         estimate D2E/DX2                !
 ! A10   A(14,3,15)            105.5577         estimate D2E/DX2                !
 ! A11   A(3,4,5)              115.9463         estimate D2E/DX2                !
 ! A12   A(3,4,16)             108.691          estimate D2E/DX2                !
 ! A13   A(3,4,17)             109.1418         estimate D2E/DX2                !
 ! A14   A(5,4,16)             108.7397         estimate D2E/DX2                !
 ! A15   A(5,4,17)             108.857          estimate D2E/DX2                !
 ! A16   A(16,4,17)            104.8961         estimate D2E/DX2                !
 ! A17   A(4,5,6)              114.1126         estimate D2E/DX2                !
 ! A18   A(4,5,18)             108.4367         estimate D2E/DX2                !
 ! A19   A(4,5,19)             109.8323         estimate D2E/DX2                !
 ! A20   A(6,5,18)             109.0902         estimate D2E/DX2                !
 ! A21   A(6,5,19)             109.5353         estimate D2E/DX2                !
 ! A22   A(18,5,19)            105.4666         estimate D2E/DX2                !
 ! A23   A(5,6,7)              112.6664         estimate D2E/DX2                !
 ! A24   A(5,6,20)             109.2038         estimate D2E/DX2                !
 ! A25   A(5,6,21)             109.5822         estimate D2E/DX2                !
 ! A26   A(7,6,20)             109.3274         estimate D2E/DX2                !
 ! A27   A(7,6,21)             109.5081         estimate D2E/DX2                !
 ! A28   A(20,6,21)            106.3544         estimate D2E/DX2                !
 ! A29   A(6,7,8)              114.2061         estimate D2E/DX2                !
 ! A30   A(6,7,22)             108.9745         estimate D2E/DX2                !
 ! A31   A(6,7,23)             109.6778         estimate D2E/DX2                !
 ! A32   A(8,7,22)             108.4377         estimate D2E/DX2                !
 ! A33   A(8,7,23)             109.4677         estimate D2E/DX2                !
 ! A34   A(22,7,23)            105.7239         estimate D2E/DX2                !
 ! A35   A(7,8,9)              114.2132         estimate D2E/DX2                !
 ! A36   A(7,8,24)             108.3895         estimate D2E/DX2                !
 ! A37   A(7,8,25)             109.5464         estimate D2E/DX2                !
 ! A38   A(9,8,24)             108.8809         estimate D2E/DX2                !
 ! A39   A(9,8,25)             109.7432         estimate D2E/DX2                !
 ! A40   A(24,8,25)            105.71           estimate D2E/DX2                !
 ! A41   A(8,9,10)             112.7145         estimate D2E/DX2                !
 ! A42   A(8,9,26)             109.4436         estimate D2E/DX2                !
 ! A43   A(8,9,27)             109.8445         estimate D2E/DX2                !
 ! A44   A(10,9,26)            109.4415         estimate D2E/DX2                !
 ! A45   A(10,9,27)            109.0441         estimate D2E/DX2                !
 ! A46   A(26,9,27)            106.1382         estimate D2E/DX2                !
 ! A47   A(9,10,11)            112.6685         estimate D2E/DX2                !
 ! A48   A(9,10,28)            109.6753         estimate D2E/DX2                !
 ! A49   A(9,10,29)            109.7192         estimate D2E/DX2                !
 ! A50   A(11,10,28)           109.2074         estimate D2E/DX2                !
 ! A51   A(11,10,29)           109.1841         estimate D2E/DX2                !
 ! A52   A(28,10,29)           106.1758         estimate D2E/DX2                !
 ! A53   A(10,11,30)           111.3381         estimate D2E/DX2                !
 ! A54   A(10,11,31)           111.3479         estimate D2E/DX2                !
 ! A55   A(10,11,32)           111.0184         estimate D2E/DX2                !
 ! A56   A(30,11,31)           107.7799         estimate D2E/DX2                !
 ! A57   A(30,11,32)           107.586          estimate D2E/DX2                !
 ! A58   A(31,11,32)           107.5876         estimate D2E/DX2                !
 ! D1    D(13,1,2,3)           179.8556         estimate D2E/DX2                !
 ! D2    D(13,1,2,12)            0.9359         estimate D2E/DX2                !
 ! D3    D(1,2,3,4)             59.8695         estimate D2E/DX2                !
 ! D4    D(1,2,3,14)           -63.0381         estimate D2E/DX2                !
 ! D5    D(1,2,3,15)          -176.3289         estimate D2E/DX2                !
 ! D6    D(12,2,3,4)          -121.2192         estimate D2E/DX2                !
 ! D7    D(12,2,3,14)          115.8732         estimate D2E/DX2                !
 ! D8    D(12,2,3,15)            2.5824         estimate D2E/DX2                !
 ! D9    D(2,3,4,5)             57.7789         estimate D2E/DX2                !
 ! D10   D(2,3,4,16)          -179.416          estimate D2E/DX2                !
 ! D11   D(2,3,4,17)           -65.5444         estimate D2E/DX2                !
 ! D12   D(14,3,4,5)           179.1214         estimate D2E/DX2                !
 ! D13   D(14,3,4,16)          -58.0735         estimate D2E/DX2                !
 ! D14   D(14,3,4,17)           55.7981         estimate D2E/DX2                !
 ! D15   D(15,3,4,5)           -64.7769         estimate D2E/DX2                !
 ! D16   D(15,3,4,16)           58.0282         estimate D2E/DX2                !
 ! D17   D(15,3,4,17)          171.8998         estimate D2E/DX2                !
 ! D18   D(3,4,5,6)             60.3564         estimate D2E/DX2                !
 ! D19   D(3,4,5,18)          -177.8461         estimate D2E/DX2                !
 ! D20   D(3,4,5,19)           -63.0709         estimate D2E/DX2                !
 ! D21   D(16,4,5,6)           -62.4231         estimate D2E/DX2                !
 ! D22   D(16,4,5,18)           59.3743         estimate D2E/DX2                !
 ! D23   D(16,4,5,19)          174.1495         estimate D2E/DX2                !
 ! D24   D(17,4,5,6)          -176.1716         estimate D2E/DX2                !
 ! D25   D(17,4,5,18)          -54.3741         estimate D2E/DX2                !
 ! D26   D(17,4,5,19)           60.4011         estimate D2E/DX2                !
 ! D27   D(4,5,6,7)            176.3979         estimate D2E/DX2                !
 ! D28   D(4,5,6,20)           -61.9161         estimate D2E/DX2                !
 ! D29   D(4,5,6,21)            54.212          estimate D2E/DX2                !
 ! D30   D(18,5,6,7)            54.9611         estimate D2E/DX2                !
 ! D31   D(18,5,6,20)          176.6471         estimate D2E/DX2                !
 ! D32   D(18,5,6,21)          -67.2248         estimate D2E/DX2                !
 ! D33   D(19,5,6,7)           -60.0142         estimate D2E/DX2                !
 ! D34   D(19,5,6,20)           61.6717         estimate D2E/DX2                !
 ! D35   D(19,5,6,21)          177.7998         estimate D2E/DX2                !
 ! D36   D(5,6,7,8)           -176.772          estimate D2E/DX2                !
 ! D37   D(5,6,7,22)           -55.3556         estimate D2E/DX2                !
 ! D38   D(5,6,7,23)            59.9412         estimate D2E/DX2                !
 ! D39   D(20,6,7,8)            61.6121         estimate D2E/DX2                !
 ! D40   D(20,6,7,22)         -176.9715         estimate D2E/DX2                !
 ! D41   D(20,6,7,23)          -61.6747         estimate D2E/DX2                !
 ! D42   D(21,6,7,8)           -54.5443         estimate D2E/DX2                !
 ! D43   D(21,6,7,22)           66.8722         estimate D2E/DX2                !
 ! D44   D(21,6,7,23)         -177.8311         estimate D2E/DX2                !
 ! D45   D(6,7,8,9)            -66.4024         estimate D2E/DX2                !
 ! D46   D(6,7,8,24)           172.0361         estimate D2E/DX2                !
 ! D47   D(6,7,8,25)            57.1497         estimate D2E/DX2                !
 ! D48   D(22,7,8,9)           171.8852         estimate D2E/DX2                !
 ! D49   D(22,7,8,24)           50.3238         estimate D2E/DX2                !
 ! D50   D(22,7,8,25)          -64.5626         estimate D2E/DX2                !
 ! D51   D(23,7,8,9)            56.9979         estimate D2E/DX2                !
 ! D52   D(23,7,8,24)          -64.5636         estimate D2E/DX2                !
 ! D53   D(23,7,8,25)         -179.45           estimate D2E/DX2                !
 ! D54   D(7,8,9,10)          -175.9981         estimate D2E/DX2                !
 ! D55   D(7,8,9,26)           -53.9638         estimate D2E/DX2                !
 ! D56   D(7,8,9,27)            62.1896         estimate D2E/DX2                !
 ! D57   D(24,8,9,10)          -54.7078         estimate D2E/DX2                !
 ! D58   D(24,8,9,26)           67.3265         estimate D2E/DX2                !
 ! D59   D(24,8,9,27)         -176.5201         estimate D2E/DX2                !
 ! D60   D(25,8,9,10)           60.5559         estimate D2E/DX2                !
 ! D61   D(25,8,9,26)         -177.4099         estimate D2E/DX2                !
 ! D62   D(25,8,9,27)          -61.2564         estimate D2E/DX2                !
 ! D63   D(8,9,10,11)         -179.8826         estimate D2E/DX2                !
 ! D64   D(8,9,10,28)          -58.0136         estimate D2E/DX2                !
 ! D65   D(8,9,10,29)           58.2468         estimate D2E/DX2                !
 ! D66   D(26,9,10,11)          58.082          estimate D2E/DX2                !
 ! D67   D(26,9,10,28)         179.951          estimate D2E/DX2                !
 ! D68   D(26,9,10,29)         -63.7886         estimate D2E/DX2                !
 ! D69   D(27,9,10,11)         -57.6188         estimate D2E/DX2                !
 ! D70   D(27,9,10,28)          64.2503         estimate D2E/DX2                !
 ! D71   D(27,9,10,29)        -179.4894         estimate D2E/DX2                !
 ! D72   D(9,10,11,30)         -60.1607         estimate D2E/DX2                !
 ! D73   D(9,10,11,31)          60.1487         estimate D2E/DX2                !
 ! D74   D(9,10,11,32)         179.9983         estimate D2E/DX2                !
 ! D75   D(28,10,11,30)        177.706          estimate D2E/DX2                !
 ! D76   D(28,10,11,31)        -61.9846         estimate D2E/DX2                !
 ! D77   D(28,10,11,32)         57.865          estimate D2E/DX2                !
 ! D78   D(29,10,11,30)         62.012          estimate D2E/DX2                !
 ! D79   D(29,10,11,31)       -177.6785         estimate D2E/DX2                !
 ! D80   D(29,10,11,32)        -57.8289         estimate D2E/DX2                !
 --------------------------------------------------------------------------------
 Trust Radius=3.00D-01 FncErr=1.00D-07 GrdErr=1.00D-06 EigMax=2.50D+02 EigMin=1.00D-04
 Number of steps in this run=    179 maximum allowed number of steps=    192.
 GradGradGradGradGradGradGradGradGradGradGradGradGradGradGradGradGradGrad

                          Input orientation:                          
 ---------------------------------------------------------------------
 Center     Atomic      Atomic             Coordinates (Angstroms)
 Number     Number       Type             X           Y           Z
 ---------------------------------------------------------------------
      1          8           0        5.343500    0.045300    0.358700
      2          6           0        5.344100   -0.915600   -0.590400
      3          6           0        4.896700   -2.272300   -0.052900
      4          6           0        3.465600   -2.307600    0.545000
      5          6           0        2.325200   -1.878300   -0.405100
      6          6           0        2.197900   -2.749300   -1.669400
      7          6           0        0.997600   -2.348300   -2.548300
      8          6           0        0.790200   -3.247300   -3.783300
      9          6           0        1.915900   -3.151000   -4.831400
     10          6           0        1.627500   -3.985300   -6.091200
     11          6           0        2.750800   -3.890900   -7.133300
     12          8           0        5.687000   -0.717600   -1.746600
     13          1           0        5.640700    0.829300   -0.103500
     14          1           0        5.624000   -2.576300    0.698900
     15          1           0        4.988000   -2.999900   -0.858900
     16          1           0        3.261300   -3.318000    0.904000
     17          1           0        3.435300   -1.680500    1.438900
     18          1           0        1.384600   -1.911600    0.147500
     19          1           0        2.456700   -0.833800   -0.693200
     20          1           0        3.115400   -2.670000   -2.253500
     21          1           0        2.105600   -3.798300   -1.383100
     22          1           0        0.089500   -2.377600   -1.943600
     23          1           0        1.106700   -1.310300   -2.868100
     24          1           0       -0.155400   -2.972600   -4.254300
     25          1           0        0.671200   -4.284200   -3.464300
     26          1           0        2.061900   -2.106500   -5.112900
     27          1           0        2.858800   -3.481700   -4.393600
     28          1           0        1.481700   -5.030900   -5.814100
     29          1           0        0.690100   -3.657100   -6.543600
     30          1           0        2.898700   -2.862500   -7.465400
     31          1           0        3.698200   -4.250000   -6.729500
     32          1           0        2.519100   -4.491300   -8.013600
 ---------------------------------------------------------------------
                    Distance matrix (angstroms):
                    1          2          3          4          5
     1  O    0.000000
     2  C    1.350600   0.000000
     3  C    2.395895   1.526338   0.000000
     4  C    3.016182   2.599146   1.551379   0.000000
     5  C    3.659749   3.174096   2.625242   1.545154   0.000000
     6  C    4.670950   3.798061   3.181843   2.589542   1.540552
     7  C    5.750375   4.977757   4.629879   3.957422   2.564513
     8  C    6.980682   6.030708   5.632926   5.174455   3.955075
     9  C    6.992990   5.893696   5.700118   5.658495   4.623789
    10  C    8.464963   7.314026   7.076942   7.087485   6.103930
    11  C    8.851318   7.641149   7.573428   7.872361   7.035650
    12  O    2.265457   1.222122   2.431108   3.565690   3.801124
    13  H    0.957399   1.835679   3.189987   3.871919   4.291224
    14  H    2.658421   2.120982   1.089305   2.180499   3.547971
    15  H    3.298814   2.131480   1.089667   2.183556   2.924795
    16  H    3.993081   3.513234   2.164181   1.091571   2.159343
    17  H    2.790420   2.889057   2.170572   1.092351   2.161431
    18  H    4.421194   4.148994   3.536257   2.155315   1.091423
    19  H    3.195767   2.890387   2.903940   2.173271   1.091455
    20  H    4.377313   3.287997   2.858992   2.843515   2.160506
    21  H    5.318940   4.407518   3.447948   2.790942   2.165897
    22  H    6.227001   5.619557   5.166721   4.194768   2.759463
    23  H    5.495486   4.826931   4.818184   4.267115   2.806018
    24  H    7.786231   6.920976   6.608018   6.048731   4.708207
    25  H    7.429017   6.437605   5.791394   5.271632   4.228803
    26  H    6.733316   5.713500   5.802343   5.832894   4.720676
    27  H    6.418553   5.217846   4.945438   5.112386   4.331715
    28  H    8.876078   7.690310   7.243171   7.196553   6.317251
    29  H    9.110633   8.038416   7.857629   7.731287   6.596883
    30  H    8.697637   7.552220   7.699708   8.049584   7.151600
    31  H    8.449804   7.177448   7.065740   7.532952   6.892614
    32  H    9.932441   8.710348   8.599400   8.883358   8.047027
                    6          7          8          9         10
     6  C    0.000000
     7  C    1.540775   0.000000
     8  C    2.588087   1.541571   0.000000
     9  C    3.199864   2.588464   1.541100   0.000000
    10  C    4.626593   3.953313   2.563614   1.538287   0.000000
    11  C    5.609202   5.145440   3.934549   2.557978   1.535150
    12  O    4.038265   5.029153   5.875898   5.445973   6.784759
    13  H    5.206851   6.134539   7.327138   7.215952   8.668258
    14  H    4.168565   5.656843   6.626159   6.683151   8.003921
    15  H    2.916225   4.382003   5.121996   5.024081   6.296105
    16  H    2.841941   4.240640   5.299256   5.893454   7.214389
    17  H    3.512125   4.720816   6.059933   6.617221   8.079768
    18  H    2.159705   2.758227   4.193876   5.158279   6.578800
    19  H    2.165429   2.804297   4.260390   4.773529   6.305389
    20  H    1.090535   2.162285   2.842555   2.883701   4.321088
    21  H    1.091278   2.165146   2.791924   3.513653   4.736006
    22  H    2.158402   1.091406   2.152174   3.503323   4.706669
    23  H    2.167561   1.091613   2.165579   2.810254   4.220809
    24  H    3.502798   2.151649   1.091540   2.157581   2.752907
    25  H    2.812187   2.166403   1.091368   2.168498   2.811486
    26  H    3.505621   2.787180   2.164828   1.091576   2.162328
    27  H    2.897320   2.855485   2.169450   1.090913   2.156747
    28  H    4.785100   4.253956   2.789901   2.165237   1.091477
    29  H    5.182218   4.215440   2.792349   2.165722   1.091375
    30  H    5.839311   5.296834   4.260482   2.826143   2.182901
    31  H    5.487040   5.328427   4.259339   2.826160   2.182955
    32  H    6.586851   6.064397   4.736251   3.505232   2.178671
                   11         12         13         14         15
    11  C    0.000000
    12  O    6.907072   0.000000
    13  H    8.947061   2.257171   0.000000
    14  H    8.445520   3.072329   3.498891   0.000000
    15  H    6.720643   2.546666   3.957198   1.735129   0.000000
    16  H    8.073848   4.435288   4.886379   2.484861   2.488071
    17  H    8.879021   4.018052   3.679930   2.477996   3.071088
    18  H    7.667736   4.850144   5.068523   4.326474   3.896374
    19  H    7.134931   3.399705   3.640261   3.873763   3.335705
    20  H    5.043409   3.268324   4.821280   3.875373   2.358045
    21  H    5.787025   4.738066   5.962297   4.266983   3.036521
    22  H    6.025411   5.841782   6.669782   6.136202   5.055604
    23  H    5.249237   4.752705   5.725212   5.893407   4.685736
    24  H    4.192602   6.745904   8.079502   7.621857   6.163120
    25  H    4.235680   6.389787   7.882816   6.691740   5.203105
    26  H    2.782208   5.138324   6.820617   6.832736   5.239918
    27  H    2.772195   4.758736   6.687948   5.865120   4.154483
    28  H    2.156503   7.268677   9.178790   8.099560   6.401024
    29  H    2.156129   7.524685   9.279607   8.829796   7.156792
    30  H    1.090766   6.714156   8.680180   8.611908   6.930360
    31  H    1.090676   6.423587   8.571842   7.854368   6.139241
    32  H    1.090455   7.971931  10.031094   9.445384   7.714238
                   16         17         18         19         20
    16  H    0.000000
    17  H    1.731416   0.000000
    18  H    2.464195   2.434439   0.000000
    19  H    3.060993   2.494075   1.737190   0.000000
    20  H    3.226608   3.836048   3.055428   2.498010   0.000000
    21  H    2.607136   3.770526   2.534209   3.063902   1.746526
    22  H    4.365031   4.808496   2.503425   3.090381   3.055750
    23  H    4.785593   4.910160   3.087496   2.603794   2.502278
    24  H    6.196870   6.853844   4.782590   4.907032   3.846154
    25  H    5.169546   6.201683   4.379871   4.772030   3.169510
    26  H    6.253749   6.707741   5.307403   4.616208   3.098962
    27  H    5.315390   6.131454   5.025940   4.567934   2.303200
    28  H    7.157784   8.224825   6.729052   6.692525   4.573915
    29  H    7.886241   8.669681   6.949814   6.731945   5.026072
    30  H    8.389625   8.998423   7.820036   7.083338   5.219954
    31  H    7.702586   8.567042   7.623253   7.046181   4.782325
    32  H    9.025025   9.904028   8.633973   8.183487   6.070540
                   21         22         23         24         25
    21  H    0.000000
    22  H    2.529270   0.000000
    23  H    3.064828   1.740266   0.000000
    24  H    3.746691   2.398611   2.505532   0.000000
    25  H    2.573907   2.507195   3.064179   1.740018   0.000000
    26  H    4.095791   3.742769   2.566217   2.530562   3.065013
    27  H    3.119400   3.858829   3.179934   3.060064   2.508625
    28  H    4.641370   4.894792   4.760505   3.057723   2.595387
    29  H    5.352975   4.812259   4.380676   2.534621   3.142563
    30  H    6.204765   6.214258   5.172597   4.432924   4.794975
    31  H    5.596821   6.279605   5.501647   4.754850   4.452576
    32  H    6.679428   6.871360   6.212069   4.857133   4.914647
                   26         27         28         29         30
    26  H    0.000000
    27  H    1.744597   0.000000
    28  H    3.062749   2.512816   0.000000
    29  H    2.516565   3.058844   1.745316   0.000000
    30  H    2.608836   3.133840   3.071911   2.521709   0.000000
    31  H    3.144116   2.598328   2.522030   3.071605   1.762358
    32  H    3.782904   3.773472   2.491017   2.490388   1.760003
                   31         32
    31  H    0.000000
    32  H    1.759948   0.000000
 Stoichiometry    C10H20O2
 Framework group  C1[X(C10H20O2)]
 Deg. of freedom    90
 Full point group                 C1      NOp   1
 Largest Abelian subgroup         C1      NOp   1
 Largest concise Abelian subgroup C1      NOp   1
                         Standard orientation:                         
 ---------------------------------------------------------------------
 Center     Atomic      Atomic             Coordinates (Angstroms)
 Number     Number       Type             X           Y           Z
 ---------------------------------------------------------------------
      1          8           0       -4.102962    0.900550   -0.736425
      2          6           0       -2.968482    1.208807   -0.071556
      3          6           0       -2.719167    0.290505    1.121873
      4          6           0       -2.580113   -1.216194    0.779384
      5          6           0       -1.462634   -1.581222   -0.223361
      6          6           0       -0.046349   -1.196623    0.245168
      7          6           0        1.048783   -1.654120   -0.737365
      8          6           0        2.485845   -1.356779   -0.265263
      9          6           0        2.827099    0.143935   -0.185335
     10          6           0        4.295811    0.399741    0.193840
     11          6           0        4.633859    1.894955    0.275967
     12          8           0       -2.237290    2.136628   -0.384749
     13          1           0       -4.138902    1.542544   -1.445766
     14          1           0       -3.540869    0.441111    1.820951
     15          1           0       -1.827469    0.644943    1.638226
     16          1           0       -2.416129   -1.771575    1.704689
     17          1           0       -3.533624   -1.585704    0.395317
     18          1           0       -1.498982   -2.656953   -0.404151
     19          1           0       -1.666076   -1.116614   -1.189811
     20          1           0        0.009017   -0.114561    0.369036
     21          1           0        0.143289   -1.628655    1.229177
     22          1           0        0.954014   -2.729347   -0.898829
     23          1           0        0.883515   -1.192794   -1.712805
     24          1           0        3.181412   -1.841041   -0.953113
     25          1           0        2.655646   -1.825684    0.705499
     26          1           0        2.611955    0.617121   -1.145204
     27          1           0        2.180620    0.632332    0.545162
     28          1           0        4.514896   -0.071193    1.153811
     29          1           0        4.952855   -0.076949   -0.535653
     30          1           0        4.465481    2.393016   -0.679730
     31          1           0        4.023873    2.399291    1.026391
     32          1           0        5.679584    2.045252    0.546086
 ---------------------------------------------------------------------
 Rotational constants (GHZ):           1.2969568           0.3196817           0.2756746
 Standard basis: 6-31G(d,p) (6D, 7F)
 There are   280 symmetry adapted cartesian basis functions of A   symmetry.
 There are   280 symmetry adapted basis functions of A   symmetry.
   280 basis functions,   476 primitive gaussians,   280 cartesian basis functions
    48 alpha electrons       48 beta electrons
       nuclear repulsion energy       708.0065572359 Hartrees.
 NAtoms=   32 NActive=   32 NUniq=   32 SFac= 1.00D+00 NAtFMM=   60 NAOKFM=F Big=F
 Integral buffers will be    131072 words long.
 Raffenetti 2 integral format.
 Two-electron integral symmetry is turned on.
 Nuclear repulsion after empirical dispersion term =      707.9594870031 Hartrees.
 One-electron integrals computed using PRISM.
 NBasis=   280 RedAO= T EigKep=  2.86D-03  NBF=   280
 NBsUse=   280 1.00D-06 EigRej= -1.00D+00 NBFU=   280
 ExpMin= 1.61D-01 ExpMax= 5.48D+03 ExpMxC= 8.25D+02 IAcc=3 IRadAn=         5 AccDes= 0.00D+00
 Harris functional with IExCor=  402 and IRadAn=       5 diagonalized for initial guess.
 HarFok:  IExCor=  402 AccDes= 0.00D+00 IRadAn=         5 IDoV= 1 UseB2=F ITyADJ=14
 ICtDFT=  3500011 ScaDFX=  1.000000  1.000000  1.000000  1.000000
 FoFCou: FMM=F IPFlag=           0 FMFlag=      100000 FMFlg1=           0
         NFxFlg=           0 DoJE=T BraDBF=F KetDBF=T FulRan=T
         wScrn=  0.000000 ICntrl=       500 IOpCl=  0 I1Cent=   200000004 NGrid=           0
         NMat0=    1 NMatS0=      1 NMatT0=    0 NMatD0=    1 NMtDS0=    0 NMtDT0=    0
 Petite list used in FoFCou.
 Requested convergence on RMS density matrix=1.00D-08 within 128 cycles.
 Requested convergence on MAX density matrix=1.00D-06.
 Requested convergence on             energy=1.00D-06.
 No special actions if energy rises.
 Integral accuracy reduced to 1.0D-05 until final iterations.
 Initial convergence to 1.0D-05 achieved.  Increase integral accuracy.
 SCF Done:  E(RB3LYP) =  -543.665637614     A.U. after   13 cycles
            NFock= 13  Conv=0.49D-08     -V/T= 2.0096

 **********************************************************************

            Population analysis using the SCF Density.

 **********************************************************************

 Orbital symmetries:
       Occupied  (A) (A) (A) (A) (A) (A) (A) (A) (A) (A) (A) (A)
                 (A) (A) (A) (A) (A) (A) (A) (A) (A) (A) (A) (A)
                 (A) (A) (A) (A) (A) (A) (A) (A) (A) (A) (A) (A)
                 (A) (A) (A) (A) (A) (A) (A) (A) (A) (A) (A) (A)
       Virtual   (A) (A) (A) (A) (A) (A) (A) (A) (A) (A) (A) (A)
                 (A) (A) (A) (A) (A) (A) (A) (A) (A) (A) (A) (A)
                 (A) (A) (A) (A) (A) (A) (A) (A) (A) (A) (A) (A)
                 (A) (A) (A) (A) (A) (A) (A) (A) (A) (A) (A) (A)
                 (A) (A) (A) (A) (A) (A) (A) (A) (A) (A) (A) (A)
                 (A) (A) (A) (A) (A) (A) (A) (A) (A) (A) (A) (A)
                 (A) (A) (A) (A) (A) (A) (A) (A) (A) (A) (A) (A)
                 (A) (A) (A) (A) (A) (A) (A) (A) (A) (A) (A) (A)
                 (A) (A) (A) (A) (A) (A) (A) (A) (A) (A) (A) (A)
                 (A) (A) (A) (A) (A) (A) (A) (A) (A) (A) (A) (A)
                 (A) (A) (A) (A) (A) (A) (A) (A) (A) (A) (A) (A)
                 (A) (A) (A) (A) (A) (A) (A) (A) (A) (A) (A) (A)
                 (A) (A) (A) (A) (A) (A) (A) (A) (A) (A) (A) (A)
                 (A) (A) (A) (A) (A) (A) (A) (A) (A) (A) (A) (A)
                 (A) (A) (A) (A) (A) (A) (A) (A) (A) (A) (A) (A)
                 (A) (A) (A) (A) (A) (A) (A) (A) (A) (A) (A) (A)
                 (A) (A) (A) (A) (A) (A) (A) (A) (A) (A) (A) (A)
                 (A) (A) (A) (A) (A) (A) (A) (A) (A) (A) (A) (A)
                 (A) (A) (A) (A) (A) (A) (A) (A) (A) (A) (A) (A)
                 (A) (A) (A) (A)
 The electronic state is 1-A.
 Alpha  occ. eigenvalues --  -19.19961 -19.13718 -10.32064 -10.19895 -10.19135
 Alpha  occ. eigenvalues --  -10.18082 -10.17454 -10.17388 -10.17303 -10.17242
 Alpha  occ. eigenvalues --  -10.17011 -10.16600  -1.10796  -1.01099  -0.81142
 Alpha  occ. eigenvalues --   -0.79321  -0.76416  -0.72760  -0.68433  -0.64374
 Alpha  occ. eigenvalues --   -0.61378  -0.58507  -0.57394  -0.56169  -0.48496
 Alpha  occ. eigenvalues --   -0.48335  -0.47028  -0.46202  -0.45166  -0.43984
 Alpha  occ. eigenvalues --   -0.42207  -0.41726  -0.40610  -0.39954  -0.38966
 Alpha  occ. eigenvalues --   -0.37704  -0.37009  -0.36735  -0.35017  -0.33957
 Alpha  occ. eigenvalues --   -0.33142  -0.32731  -0.32130  -0.31707  -0.31604
 Alpha  occ. eigenvalues --   -0.30507  -0.29839  -0.26930
 Alpha virt. eigenvalues --    0.00732   0.07529   0.09419   0.10268   0.11293
 Alpha virt. eigenvalues --    0.11767   0.12369   0.13829   0.14430   0.15385
 Alpha virt. eigenvalues --    0.15674   0.17389   0.17573   0.17894   0.18175
 Alpha virt. eigenvalues --    0.19081   0.19778   0.20040   0.20416   0.21120
 Alpha virt. eigenvalues --    0.21514   0.21688   0.22535   0.24149   0.24637
 Alpha virt. eigenvalues --    0.25609   0.26737   0.27307   0.29613   0.29989
 Alpha virt. eigenvalues --    0.31290   0.36727   0.48842   0.49553   0.50449
 Alpha virt. eigenvalues --    0.50902   0.52755   0.52948   0.55016   0.55200
 Alpha virt. eigenvalues --    0.55725   0.57668   0.60024   0.61501   0.63095
 Alpha virt. eigenvalues --    0.63865   0.64446   0.65364   0.65944   0.66720
 Alpha virt. eigenvalues --    0.67590   0.68822   0.72434   0.73675   0.74830
 Alpha virt. eigenvalues --    0.75539   0.76571   0.78079   0.79188   0.80584
 Alpha virt. eigenvalues --    0.81354   0.84818   0.85276   0.85541   0.86193
 Alpha virt. eigenvalues --    0.88056   0.88636   0.89753   0.90757   0.90976
 Alpha virt. eigenvalues --    0.91504   0.92515   0.92944   0.93251   0.93268
 Alpha virt. eigenvalues --    0.93858   0.94907   0.95780   0.96129   0.96545
 Alpha virt. eigenvalues --    0.97310   0.98617   0.99461   1.01376   1.05252
 Alpha virt. eigenvalues --    1.06441   1.09581   1.11865   1.12258   1.16562
 Alpha virt. eigenvalues --    1.20811   1.27919   1.30013   1.33511   1.35116
 Alpha virt. eigenvalues --    1.37197   1.37463   1.39407   1.45311   1.47281
 Alpha virt. eigenvalues --    1.49257   1.50736   1.53841   1.54889   1.56044
 Alpha virt. eigenvalues --    1.59335   1.61951   1.63751   1.65885   1.68510
 Alpha virt. eigenvalues --    1.69781   1.70839   1.73101   1.73595   1.74982
 Alpha virt. eigenvalues --    1.76259   1.79341   1.80388   1.81327   1.82426
 Alpha virt. eigenvalues --    1.84461   1.85114   1.85774   1.86945   1.89534
 Alpha virt. eigenvalues --    1.89681   1.90519   1.91122   1.93686   1.95582
 Alpha virt. eigenvalues --    1.99730   2.05630   2.05985   2.07662   2.08119
 Alpha virt. eigenvalues --    2.08676   2.10541   2.11700   2.13286   2.13561
 Alpha virt. eigenvalues --    2.15192   2.15839   2.17316   2.18401   2.19839
 Alpha virt. eigenvalues --    2.21935   2.24124   2.24633   2.26008   2.27142
 Alpha virt. eigenvalues --    2.28066   2.29360   2.30164   2.31517   2.32271
 Alpha virt. eigenvalues --    2.34407   2.36409   2.38559   2.39194   2.39983
 Alpha virt. eigenvalues --    2.41639   2.44507   2.46226   2.46562   2.49614
 Alpha virt. eigenvalues --    2.50762   2.53269   2.54744   2.57449   2.60093
 Alpha virt. eigenvalues --    2.61502   2.61884   2.63589   2.64620   2.66186
 Alpha virt. eigenvalues --    2.68782   2.70426   2.71595   2.74335   2.75757
 Alpha virt. eigenvalues --    2.77106   2.79182   2.80444   2.82160   2.84390
 Alpha virt. eigenvalues --    2.85265   2.85909   2.87689   2.88445   2.90110
 Alpha virt. eigenvalues --    2.90735   2.91420   2.91868   2.92009   2.92986
 Alpha virt. eigenvalues --    2.94155   2.94996   2.97292   3.02178   3.11520
 Alpha virt. eigenvalues --    3.19984   3.24840   3.28363   3.31267   3.31716
 Alpha virt. eigenvalues --    3.32023   3.33208   3.35537   3.37266   3.39753
 Alpha virt. eigenvalues --    3.41665   3.43843   3.45988   3.49094   3.49554
 Alpha virt. eigenvalues --    3.53511   3.55278   3.58039   3.59827   3.61233
 Alpha virt. eigenvalues --    3.91705   4.13012   4.24825   4.29817   4.34024
 Alpha virt. eigenvalues --    4.44311   4.50724   4.56973   4.62091   4.67288
 Alpha virt. eigenvalues --    4.71457   4.76888
          Condensed to atoms (all electrons):
               1          2          3          4          5          6
     1  O    8.121728   0.244697  -0.099549   0.004927  -0.001452   0.000032
     2  C    0.244697   4.381922   0.346168  -0.030260  -0.000302  -0.001823
     3  C   -0.099549   0.346168   5.100212   0.338315  -0.046355  -0.002765
     4  C    0.004927  -0.030260   0.338315   4.924062   0.365618  -0.040489
     5  C   -0.001452  -0.000302  -0.046355   0.365618   4.920818   0.371606
     6  C    0.000032  -0.001823  -0.002765  -0.040489   0.371606   4.911116
     7  C    0.000000   0.000005   0.000103   0.003536  -0.033372   0.378899
     8  C    0.000000   0.000000   0.000002  -0.000134   0.003470  -0.038514
     9  C   -0.000000  -0.000001  -0.000002   0.000002   0.000161  -0.005140
    10  C    0.000000  -0.000000   0.000000  -0.000000  -0.000001   0.000173
    11  C   -0.000000  -0.000000  -0.000000   0.000000  -0.000000   0.000000
    12  O   -0.082808   0.567908  -0.072459   0.000348   0.000979  -0.000703
    13  H    0.268273  -0.009206   0.010900  -0.000381  -0.000057   0.000001
    14  H    0.001474  -0.025421   0.358690  -0.022737   0.004514   0.000020
    15  H    0.003303  -0.033494   0.379068  -0.031832  -0.006014   0.003234
    16  H    0.000008   0.003866  -0.032331   0.379280  -0.040192  -0.006176
    17  H    0.004393  -0.007947  -0.034918   0.377401  -0.031586   0.004452
    18  H   -0.000011   0.000006   0.005117  -0.031754   0.380610  -0.040406
    19  H    0.001153   0.006077  -0.008688  -0.036394   0.380791  -0.039257
    20  H    0.000010   0.000807   0.001462  -0.005375  -0.035097   0.384120
    21  H   -0.000001   0.000120  -0.001002  -0.002705  -0.041676   0.381118
    22  H   -0.000000  -0.000001   0.000005   0.000021  -0.004999  -0.041482
    23  H   -0.000000   0.000007  -0.000016   0.000069  -0.003580  -0.039699
    24  H   -0.000000   0.000000  -0.000000   0.000002  -0.000134   0.004600
    25  H    0.000000   0.000000   0.000000  -0.000000   0.000054  -0.007838
    26  H    0.000000   0.000000   0.000000   0.000000  -0.000024  -0.000850
    27  H    0.000000  -0.000001  -0.000006   0.000010  -0.000096   0.002396
    28  H   -0.000000  -0.000000   0.000000   0.000000  -0.000000  -0.000018
    29  H   -0.000000   0.000000  -0.000000   0.000000   0.000000   0.000001
    30  H   -0.000000  -0.000000  -0.000000   0.000000  -0.000000  -0.000000
    31  H    0.000000   0.000000  -0.000000  -0.000000   0.000000  -0.000002
    32  H    0.000000  -0.000000   0.000000  -0.000000   0.000000   0.000000
               7          8          9         10         11         12
     1  O    0.000000   0.000000  -0.000000   0.000000  -0.000000  -0.082808
     2  C    0.000005   0.000000  -0.000001  -0.000000  -0.000000   0.567908
     3  C    0.000103   0.000002  -0.000002   0.000000  -0.000000  -0.072459
     4  C    0.003536  -0.000134   0.000002  -0.000000   0.000000   0.000348
     5  C   -0.033372   0.003470   0.000161  -0.000001  -0.000000   0.000979
     6  C    0.378899  -0.038514  -0.005140   0.000173   0.000000  -0.000703
     7  C    4.908337   0.361514  -0.038161   0.003606  -0.000137  -0.000000
     8  C    0.361514   4.912970   0.378165  -0.034597   0.003690   0.000000
     9  C   -0.038161   0.378165   4.886848   0.381161  -0.042251  -0.000001
    10  C    0.003606  -0.034597   0.381161   4.870161   0.367693  -0.000000
    11  C   -0.000137   0.003690  -0.042251   0.367693   4.920941  -0.000000
    12  O   -0.000000   0.000000  -0.000001  -0.000000  -0.000000   8.041965
    13  H   -0.000000  -0.000000   0.000000   0.000000   0.000000   0.011367
    14  H   -0.000001  -0.000000   0.000000   0.000000   0.000000   0.001911
    15  H   -0.000113   0.000007  -0.000004   0.000000  -0.000000   0.000901
    16  H    0.000028  -0.000000   0.000000  -0.000000   0.000000  -0.000083
    17  H   -0.000126   0.000002   0.000000  -0.000000  -0.000000   0.000005
    18  H   -0.004392   0.000020   0.000003   0.000000   0.000000   0.000004
    19  H   -0.003258   0.000053  -0.000016  -0.000000   0.000000  -0.000289
    20  H   -0.036537  -0.003719   0.002535  -0.000115   0.000007   0.002325
    21  H   -0.040200  -0.003207  -0.000802  -0.000024  -0.000000   0.000002
    22  H    0.375598  -0.031456   0.004565  -0.000139   0.000002  -0.000000
    23  H    0.381980  -0.037335  -0.007580   0.000051  -0.000002   0.000001
    24  H   -0.031548   0.376070  -0.040382  -0.004876   0.000073   0.000000
    25  H   -0.037765   0.380457  -0.039547  -0.003779   0.000018  -0.000000
    26  H   -0.003329  -0.040342   0.384239  -0.039827  -0.003246   0.000000
    27  H   -0.003854  -0.038865   0.384966  -0.039189  -0.003108  -0.000005
    28  H    0.000084  -0.003625  -0.039281   0.385861  -0.038677  -0.000000
    29  H    0.000010  -0.004101  -0.039208   0.385793  -0.038668   0.000000
    30  H    0.000002   0.000055  -0.004914  -0.034465   0.387714  -0.000000
    31  H    0.000001   0.000053  -0.005008  -0.034364   0.387552   0.000000
    32  H    0.000002  -0.000150   0.004156  -0.026995   0.377788  -0.000000
              13         14         15         16         17         18
     1  O    0.268273   0.001474   0.003303   0.000008   0.004393  -0.000011
     2  C   -0.009206  -0.025421  -0.033494   0.003866  -0.007947   0.000006
     3  C    0.010900   0.358690   0.379068  -0.032331  -0.034918   0.005117
     4  C   -0.000381  -0.022737  -0.031832   0.379280   0.377401  -0.031754
     5  C   -0.000057   0.004514  -0.006014  -0.040192  -0.031586   0.380610
     6  C    0.000001   0.000020   0.003234  -0.006176   0.004452  -0.040406
     7  C   -0.000000  -0.000001  -0.000113   0.000028  -0.000126  -0.004392
     8  C   -0.000000  -0.000000   0.000007  -0.000000   0.000002   0.000020
     9  C    0.000000   0.000000  -0.000004   0.000000   0.000000   0.000003
    10  C    0.000000   0.000000   0.000000  -0.000000  -0.000000   0.000000
    11  C    0.000000   0.000000  -0.000000   0.000000  -0.000000   0.000000
    12  O    0.011367   0.001911   0.000901  -0.000083   0.000005   0.000004
    13  H    0.401144  -0.000455  -0.000319   0.000015  -0.000146   0.000002
    14  H   -0.000455   0.596930  -0.032733  -0.004388  -0.004072  -0.000132
    15  H   -0.000319  -0.032733   0.583963  -0.004317   0.005208   0.000012
    16  H    0.000015  -0.004388  -0.004317   0.634664  -0.036756  -0.004143
    17  H   -0.000146  -0.004072   0.005208  -0.036756   0.621154  -0.003473
    18  H    0.000002  -0.000132   0.000012  -0.004143  -0.003473   0.638815
    19  H    0.000101  -0.000018  -0.000030   0.006046  -0.003397  -0.039475
    20  H   -0.000004   0.000083   0.001642  -0.000425  -0.000052   0.005791
    21  H    0.000000  -0.000026   0.000558   0.004997   0.000015  -0.005408
    22  H    0.000000   0.000000  -0.000000   0.000003  -0.000005   0.005915
    23  H    0.000000  -0.000000   0.000009   0.000006   0.000004  -0.000533
    24  H   -0.000000   0.000000  -0.000000   0.000000  -0.000000  -0.000007
    25  H    0.000000  -0.000000   0.000000  -0.000001   0.000000   0.000004
    26  H   -0.000000  -0.000000  -0.000001  -0.000000  -0.000000   0.000001
    27  H   -0.000000  -0.000000   0.000011   0.000000  -0.000000  -0.000001
    28  H    0.000000  -0.000000  -0.000000   0.000000  -0.000000   0.000000
    29  H   -0.000000  -0.000000   0.000000   0.000000   0.000000  -0.000000
    30  H    0.000000  -0.000000  -0.000000   0.000000  -0.000000  -0.000000
    31  H   -0.000000  -0.000000   0.000000  -0.000000   0.000000  -0.000000
    32  H    0.000000  -0.000000   0.000000  -0.000000   0.000000  -0.000000
              19         20         21         22         23         24
     1  O    0.001153   0.000010  -0.000001  -0.000000  -0.000000  -0.000000
     2  C    0.006077   0.000807   0.000120  -0.000001   0.000007   0.000000
     3  C   -0.008688   0.001462  -0.001002   0.000005  -0.000016  -0.000000
     4  C   -0.036394  -0.005375  -0.002705   0.000021   0.000069   0.000002
     5  C    0.380791  -0.035097  -0.041676  -0.004999  -0.003580  -0.000134
     6  C   -0.039257   0.384120   0.381118  -0.041482  -0.039699   0.004600
     7  C   -0.003258  -0.036537  -0.040200   0.375598   0.381980  -0.031548
     8  C    0.000053  -0.003719  -0.003207  -0.031456  -0.037335   0.376070
     9  C   -0.000016   0.002535  -0.000802   0.004565  -0.007580  -0.040382
    10  C   -0.000000  -0.000115  -0.000024  -0.000139   0.000051  -0.004876
    11  C    0.000000   0.000007  -0.000000   0.000002  -0.000002   0.000073
    12  O   -0.000289   0.002325   0.000002  -0.000000   0.000001   0.000000
    13  H    0.000101  -0.000004   0.000000   0.000000   0.000000  -0.000000
    14  H   -0.000018   0.000083  -0.000026   0.000000  -0.000000   0.000000
    15  H   -0.000030   0.001642   0.000558  -0.000000   0.000009  -0.000000
    16  H    0.006046  -0.000425   0.004997   0.000003   0.000006   0.000000
    17  H   -0.003397  -0.000052   0.000015  -0.000005   0.000004  -0.000000
    18  H   -0.039475   0.005791  -0.005408   0.005915  -0.000533  -0.000007
    19  H    0.634711  -0.006333   0.006052  -0.000531   0.004501   0.000004
    20  H   -0.006333   0.616648  -0.041941   0.005952  -0.006158  -0.000023
    21  H    0.006052  -0.041941   0.651740  -0.005508   0.006116   0.000042
    22  H   -0.000531   0.005952  -0.005508   0.656125  -0.040899  -0.004654
    23  H    0.004501  -0.006158   0.006116  -0.040899   0.643063  -0.003060
    24  H    0.000004  -0.000023   0.000042  -0.004654  -0.003060   0.652953
    25  H    0.000007  -0.000181   0.005517  -0.002991   0.006052  -0.040941
    26  H   -0.000000   0.000530   0.000077   0.000056   0.005528  -0.005348
    27  H    0.000011   0.002139   0.000486  -0.000037  -0.000178   0.006117
    28  H   -0.000000   0.000012  -0.000000   0.000004   0.000008  -0.000570
    29  H    0.000000  -0.000001   0.000001  -0.000005   0.000004   0.005546
    30  H   -0.000000   0.000001  -0.000000   0.000000  -0.000001   0.000001
    31  H    0.000000  -0.000003   0.000000  -0.000000   0.000000   0.000008
    32  H   -0.000000  -0.000000  -0.000000  -0.000000   0.000000   0.000001
              25         26         27         28         29         30
     1  O    0.000000   0.000000   0.000000  -0.000000  -0.000000  -0.000000
     2  C    0.000000   0.000000  -0.000001  -0.000000   0.000000  -0.000000
     3  C    0.000000   0.000000  -0.000006   0.000000  -0.000000  -0.000000
     4  C   -0.000000   0.000000   0.000010   0.000000   0.000000   0.000000
     5  C    0.000054  -0.000024  -0.000096  -0.000000   0.000000  -0.000000
     6  C   -0.007838  -0.000850   0.002396  -0.000018   0.000001  -0.000000
     7  C   -0.037765  -0.003329  -0.003854   0.000084   0.000010   0.000002
     8  C    0.380457  -0.040342  -0.038865  -0.003625  -0.004101   0.000055
     9  C   -0.039547   0.384239   0.384966  -0.039281  -0.039208  -0.004914
    10  C   -0.003779  -0.039827  -0.039189   0.385861   0.385793  -0.034465
    11  C    0.000018  -0.003246  -0.003108  -0.038677  -0.038668   0.387714
    12  O   -0.000000   0.000000  -0.000005  -0.000000   0.000000  -0.000000
    13  H    0.000000  -0.000000  -0.000000   0.000000  -0.000000   0.000000
    14  H   -0.000000  -0.000000  -0.000000  -0.000000  -0.000000  -0.000000
    15  H    0.000000  -0.000001   0.000011  -0.000000   0.000000  -0.000000
    16  H   -0.000001  -0.000000   0.000000   0.000000   0.000000   0.000000
    17  H    0.000000  -0.000000  -0.000000  -0.000000   0.000000  -0.000000
    18  H    0.000004   0.000001  -0.000001   0.000000  -0.000000  -0.000000
    19  H    0.000007  -0.000000   0.000011  -0.000000   0.000000  -0.000000
    20  H   -0.000181   0.000530   0.002139   0.000012  -0.000001   0.000001
    21  H    0.005517   0.000077   0.000486  -0.000000   0.000001  -0.000000
    22  H   -0.002991   0.000056  -0.000037   0.000004  -0.000005   0.000000
    23  H    0.006052   0.005528  -0.000178   0.000008   0.000004  -0.000001
    24  H   -0.040941  -0.005348   0.006117  -0.000570   0.005546   0.000001
    25  H    0.649707   0.006117  -0.006186   0.004820  -0.000521   0.000006
    26  H    0.006117   0.643248  -0.042004   0.006106  -0.006016   0.004746
    27  H   -0.006186  -0.042004   0.637823  -0.006064   0.006055  -0.000508
    28  H    0.004820   0.006106  -0.006064   0.644499  -0.041439   0.005503
    29  H   -0.000521  -0.006016   0.006055  -0.041439   0.644026  -0.005003
    30  H    0.000006   0.004746  -0.000508   0.005503  -0.005003   0.610014
    31  H    0.000001  -0.000482   0.004911  -0.005014   0.005502  -0.033542
    32  H    0.000002  -0.000021  -0.000015  -0.003134  -0.003070  -0.032689
              31         32
     1  O    0.000000   0.000000
     2  C    0.000000  -0.000000
     3  C   -0.000000   0.000000
     4  C   -0.000000  -0.000000
     5  C    0.000000   0.000000
     6  C   -0.000002   0.000000
     7  C    0.000001   0.000002
     8  C    0.000053  -0.000150
     9  C   -0.005008   0.004156
    10  C   -0.034364  -0.026995
    11  C    0.387552   0.377788
    12  O    0.000000  -0.000000
    13  H   -0.000000   0.000000
    14  H   -0.000000  -0.000000
    15  H    0.000000   0.000000
    16  H   -0.000000  -0.000000
    17  H    0.000000   0.000000
    18  H   -0.000000  -0.000000
    19  H    0.000000  -0.000000
    20  H   -0.000003  -0.000000
    21  H    0.000000  -0.000000
    22  H   -0.000000  -0.000000
    23  H    0.000000   0.000000
    24  H    0.000008   0.000001
    25  H    0.000001   0.000002
    26  H   -0.000482  -0.000021
    27  H    0.004911  -0.000015
    28  H   -0.005014  -0.003134
    29  H    0.005502  -0.003070
    30  H   -0.033542  -0.032689
    31  H    0.609763  -0.032604
    32  H   -0.032604   0.619434
 Mulliken charges:
               1
     1  O   -0.466175
     2  C    0.556872
     3  C   -0.241951
     4  C   -0.191531
     5  C   -0.183682
     6  C   -0.176606
     7  C   -0.180908
     8  C   -0.180485
     9  C   -0.164500
    10  C   -0.176128
    11  C   -0.319391
    12  O   -0.471367
    13  H    0.318767
    14  H    0.126362
    15  H    0.130941
    16  H    0.099896
    17  H    0.109846
    18  H    0.093435
    19  H    0.098181
    20  H    0.111900
    21  H    0.085659
    22  H    0.084461
    23  H    0.091642
    24  H    0.086125
    25  H    0.086988
    26  H    0.090841
    27  H    0.095191
    28  H    0.090923
    29  H    0.091096
    30  H    0.103078
    31  H    0.103227
    32  H    0.097294
 Sum of Mulliken charges =  -0.00000
 Mulliken charges with hydrogens summed into heavy atoms:
               1
     1  O   -0.147409
     2  C    0.556872
     3  C    0.015352
     4  C    0.018211
     5  C    0.007934
     6  C    0.020953
     7  C   -0.004805
     8  C   -0.007372
     9  C    0.021532
    10  C    0.005891
    11  C   -0.015793
    12  O   -0.471367
 Electronic spatial extent (au):  <R**2>=           4056.0704
 Charge=             -0.0000 electrons
 Dipole moment (field-independent basis, Debye):
    X=             -0.9328    Y=             -1.3158    Z=              0.1783  Tot=              1.6227
 Quadrupole moment (field-independent basis, Debye-Ang):
   XX=            -71.8103   YY=            -80.2109   ZZ=            -72.2962
   XY=             -0.9765   XZ=              1.0534   YZ=             -1.0600
 Traceless Quadrupole moment (field-independent basis, Debye-Ang):
   XX=              2.9622   YY=             -5.4385   ZZ=              2.4763
   XY=             -0.9765   XZ=              1.0534   YZ=             -1.0600
 Octapole moment (field-independent basis, Debye-Ang**2):
  XXX=            -48.2992  YYY=             -1.9208  ZZZ=             -8.1205  XYY=            -11.8713
  XXY=             18.7316  XXZ=            -12.3639  XZZ=            -22.8747  YZZ=              9.4546
  YYZ=             -2.2421  XYZ=              7.1258
 Hexadecapole moment (field-independent basis, Debye-Ang**3):
 XXXX=          -4070.4484 YYYY=           -982.0404 ZZZZ=           -276.7536 XXXY=           -127.7588
 XXXZ=             67.7147 YYYX=            -29.2114 YYYZ=             -8.4194 ZZZX=             33.4714
 ZZZY=            -17.8988 XXYY=           -823.2178 XXZZ=           -671.5215 YYZZ=           -197.8893
 XXYZ=            -40.3287 YYXZ=             16.5956 ZZXY=            -34.4653
 N-N= 7.079594870031D+02 E-N=-2.679287114805D+03  KE= 5.384851341444D+02
 Calling FoFJK, ICntrl=      2127 FMM=F ISym2X=0 I1Cent= 0 IOpClX= 0 NMat=1 NMatS=1 NMatT=0.
 ***** Axes restored to original set *****
 -------------------------------------------------------------------
 Center     Atomic                   Forces (Hartrees/Bohr)
 Number     Number              X              Y              Z
 -------------------------------------------------------------------
      1        8          -0.004192738   -0.010203162    0.002905310
      2        6          -0.001314064   -0.017407888   -0.015433428
      3        6          -0.005834513    0.002371040   -0.002277701
      4        6          -0.000294721    0.006122373   -0.000576049
      5        6           0.007309705   -0.007076652   -0.002875524
      6        6          -0.003314066    0.009350458    0.000079127
      7        6           0.003631476   -0.008169856   -0.000346984
      8        6           0.006484423    0.007524453   -0.000038239
      9        6          -0.008741178   -0.006808189    0.000427848
     10        6           0.008200158    0.004963165    0.000438334
     11        6          -0.004451326   -0.001551919    0.001993685
     12        8          -0.004683864    0.002998531    0.016858096
     13        1           0.004749449    0.015316124   -0.004571660
     14        1           0.001036452    0.000309846    0.006350624
     15        1          -0.000098236    0.002465849   -0.003937334
     16        1           0.001629949   -0.004520926   -0.001211422
     17        1           0.001125013    0.003231796    0.000710459
     18        1          -0.002803258   -0.000992697    0.002719182
     19        1           0.001880999    0.003939304   -0.001878782
     20        1           0.002960614    0.000592826   -0.001875426
     21        1          -0.001173225   -0.004590185    0.001685855
     22        1          -0.003226889   -0.000482807    0.003261844
     23        1           0.001749203    0.003878880   -0.001613816
     24        1          -0.003230598    0.001335487   -0.002525076
     25        1           0.000713781   -0.004493238    0.001595523
     26        1           0.000096068    0.004310752   -0.001152267
     27        1           0.003547758   -0.001357687    0.001365822
     28        1          -0.000669602   -0.003687533    0.002001192
     29        1          -0.003866219    0.001752948   -0.000811521
     30        1           0.000459362    0.003081233   -0.000318879
     31        1           0.002657006   -0.000636824    0.001656567
     32        1          -0.000336920   -0.001565501   -0.002605362
 -------------------------------------------------------------------
 Cartesian Forces:  Max     0.017407888 RMS     0.004939100

 GradGradGradGradGradGradGradGradGradGradGradGradGradGradGradGradGradGrad
 Berny optimization.
 FormGI is forming the generalized inverse of G from B-inverse, IUseBI=4.
 Internal  Forces:  Max     0.016777264 RMS     0.003007412
 Search for a local minimum.
 Step number   1 out of a maximum of  179
 All quantities printed in internal units (Hartrees-Bohrs-Radians)
 Mixed Optimization -- RFO/linear search
 Second derivative matrix not updated -- first step.
 ITU=  0
     Eigenvalues ---    0.00230   0.00230   0.00230   0.00230   0.00230
     Eigenvalues ---    0.00230   0.00259   0.00301   0.00418   0.00895
     Eigenvalues ---    0.02345   0.03076   0.03249   0.03249   0.03251
     Eigenvalues ---    0.03412   0.03413   0.03446   0.03661   0.04634
     Eigenvalues ---    0.04683   0.04688   0.04688   0.04730   0.04733
     Eigenvalues ---    0.04760   0.05149   0.05413   0.05460   0.08281
     Eigenvalues ---    0.08305   0.08314   0.08552   0.08557   0.08559
     Eigenvalues ---    0.08876   0.09817   0.12181   0.12196   0.12198
     Eigenvalues ---    0.12379   0.12382   0.12384   0.12603   0.13106
     Eigenvalues ---    0.16000   0.16000   0.16000   0.16000   0.21891
     Eigenvalues ---    0.21891   0.21897   0.21898   0.21910   0.21910
     Eigenvalues ---    0.21917   0.21947   0.24997   0.25000   0.27534
     Eigenvalues ---    0.28067   0.28380   0.28422   0.28450   0.28470
     Eigenvalues ---    0.28671   0.28953   0.29764   0.34542   0.34627
     Eigenvalues ---    0.34631   0.34632   0.34635   0.34643   0.34645
     Eigenvalues ---    0.34649   0.34651   0.34654   0.34655   0.34665
     Eigenvalues ---    0.34707   0.34724   0.34735   0.34751   0.34760
     Eigenvalues ---    0.34851   0.34893   0.54894   0.56037   0.94449
 RFO step:  Lambda=-5.58795218D-03 EMin= 2.30000000D-03
 Linear search not attempted -- first point.
 Iteration  1 RMS(Cart)=  0.09684914 RMS(Int)=  0.00146387
 Iteration  2 RMS(Cart)=  0.00386555 RMS(Int)=  0.00020802
 Iteration  3 RMS(Cart)=  0.00000729 RMS(Int)=  0.00020800
 Iteration  4 RMS(Cart)=  0.00000000 RMS(Int)=  0.00020800
 Variable       Old X    -DE/DX   Delta X   Delta X   Delta X     New X
                                 (Linear)    (Quad)   (Total)
    R1        2.55226   0.00247   0.00000   0.00445   0.00445   2.55671
    R2        1.80922   0.01622   0.00000   0.02867   0.02867   1.83789
    R3        2.88436  -0.00977   0.00000  -0.03223  -0.03223   2.85213
    R4        2.30948  -0.01678   0.00000  -0.01766  -0.01766   2.29182
    R5        2.93168  -0.00959   0.00000  -0.03414  -0.03414   2.89754
    R6        2.05849   0.00499   0.00000   0.01407   0.01407   2.07256
    R7        2.05917   0.00126   0.00000   0.00355   0.00355   2.06272
    R8        2.91992  -0.00673   0.00000  -0.02352  -0.02352   2.89640
    R9        2.06277   0.00348   0.00000   0.00989   0.00989   2.07266
   R10        2.06424   0.00241   0.00000   0.00685   0.00685   2.07110
   R11        2.91122  -0.00471   0.00000  -0.01623  -0.01623   2.89499
   R12        2.06249   0.00382   0.00000   0.01086   0.01086   2.07335
   R13        2.06255   0.00449   0.00000   0.01276   0.01276   2.07531
   R14        2.91164  -0.00475   0.00000  -0.01636  -0.01636   2.89528
   R15        2.06081   0.00354   0.00000   0.01002   0.01002   2.07083
   R16        2.06222   0.00495   0.00000   0.01406   0.01406   2.07628
   R17        2.91315  -0.00341   0.00000  -0.01179  -0.01179   2.90136
   R18        2.06246   0.00451   0.00000   0.01280   0.01280   2.07525
   R19        2.06285   0.00434   0.00000   0.01232   0.01232   2.07517
   R20        2.91226  -0.00440   0.00000  -0.01517  -0.01517   2.89708
   R21        2.06271   0.00422   0.00000   0.01200   0.01200   2.07472
   R22        2.06239   0.00466   0.00000   0.01323   0.01323   2.07561
   R23        2.90694  -0.00358   0.00000  -0.01224  -0.01224   2.89470
   R24        2.06278   0.00443   0.00000   0.01260   0.01260   2.07538
   R25        2.06153   0.00403   0.00000   0.01142   0.01142   2.07294
   R26        2.90101  -0.00176   0.00000  -0.00595  -0.00595   2.89506
   R27        2.06259   0.00413   0.00000   0.01173   0.01173   2.07432
   R28        2.06240   0.00418   0.00000   0.01188   0.01188   2.07428
   R29        2.06125   0.00306   0.00000   0.00868   0.00868   2.06993
   R30        2.06108   0.00313   0.00000   0.00887   0.00887   2.06995
   R31        2.06066   0.00304   0.00000   0.00860   0.00860   2.06926
    A1        1.81648   0.00697   0.00000   0.04209   0.04209   1.85856
    A2        1.96578  -0.00103   0.00000  -0.00362  -0.00449   1.96130
    A3        2.15277  -0.00607   0.00000  -0.02332  -0.02415   2.12862
    A4        2.16446   0.00712   0.00000   0.02826   0.02736   2.19182
    A5        2.01124  -0.00631   0.00000  -0.03735  -0.03767   1.97357
    A6        1.87066   0.00390   0.00000   0.01868   0.01840   1.88907
    A7        1.88439  -0.00108   0.00000  -0.02326  -0.02325   1.86114
    A8        1.92151  -0.00113   0.00000  -0.01132  -0.01143   1.91008
    A9        1.92535   0.00400   0.00000   0.02129   0.02065   1.94600
   A10        1.84233   0.00123   0.00000   0.03834   0.03834   1.88067
   A11        2.02364  -0.00721   0.00000  -0.04030  -0.04054   1.98310
   A12        1.89702   0.00000   0.00000  -0.01386  -0.01381   1.88321
   A13        1.90488   0.00199   0.00000   0.00324   0.00322   1.90810
   A14        1.89787   0.00364   0.00000   0.01913   0.01847   1.91634
   A15        1.89991   0.00194   0.00000   0.00805   0.00770   1.90762
   A16        1.83078   0.00034   0.00000   0.03093   0.03070   1.86148
   A17        1.99164   0.00022   0.00000  -0.00170  -0.00175   1.98989
   A18        1.89258  -0.00072   0.00000  -0.00269  -0.00269   1.88989
   A19        1.91694  -0.00019   0.00000  -0.00710  -0.00717   1.90976
   A20        1.90398   0.00073   0.00000   0.01007   0.01009   1.91407
   A21        1.91175  -0.00071   0.00000  -0.00950  -0.00956   1.90219
   A22        1.84074   0.00072   0.00000   0.01234   0.01237   1.85311
   A23        1.96640   0.00003   0.00000  -0.00112  -0.00113   1.96527
   A24        1.90597  -0.00008   0.00000   0.00073   0.00073   1.90669
   A25        1.91257  -0.00010   0.00000  -0.00303  -0.00304   1.90953
   A26        1.90812   0.00012   0.00000   0.00243   0.00243   1.91055
   A27        1.91128  -0.00027   0.00000  -0.00427  -0.00428   1.90700
   A28        1.85623   0.00032   0.00000   0.00570   0.00571   1.86194
   A29        1.99327  -0.00028   0.00000  -0.00338  -0.00343   1.98984
   A30        1.90196  -0.00032   0.00000   0.00006   0.00006   1.90203
   A31        1.91424  -0.00048   0.00000  -0.01055  -0.01061   1.90363
   A32        1.89260   0.00077   0.00000   0.01099   0.01099   1.90359
   A33        1.91057  -0.00007   0.00000  -0.00506  -0.00516   1.90542
   A34        1.84523   0.00045   0.00000   0.00928   0.00929   1.85452
   A35        1.99340   0.00023   0.00000  -0.00077  -0.00081   1.99259
   A36        1.89175   0.00049   0.00000   0.00860   0.00861   1.90036
   A37        1.91195  -0.00027   0.00000  -0.00562  -0.00567   1.90628
   A38        1.90033  -0.00039   0.00000  -0.00014  -0.00014   1.90019
   A39        1.91538  -0.00052   0.00000  -0.00938  -0.00942   1.90596
   A40        1.84499   0.00050   0.00000   0.00836   0.00837   1.85336
   A41        1.96724   0.00115   0.00000   0.00503   0.00503   1.97227
   A42        1.91015  -0.00063   0.00000  -0.00469  -0.00469   1.90546
   A43        1.91715  -0.00006   0.00000   0.00201   0.00201   1.91916
   A44        1.91012  -0.00026   0.00000  -0.00203  -0.00202   1.90809
   A45        1.90318  -0.00057   0.00000  -0.00220  -0.00221   1.90096
   A46        1.85246   0.00032   0.00000   0.00168   0.00168   1.85414
   A47        1.96644   0.00103   0.00000   0.00463   0.00465   1.97108
   A48        1.91419  -0.00090   0.00000  -0.00815  -0.00817   1.90603
   A49        1.91496  -0.00098   0.00000  -0.00852  -0.00855   1.90641
   A50        1.90603   0.00022   0.00000   0.00483   0.00484   1.91086
   A51        1.90562   0.00032   0.00000   0.00589   0.00590   1.91152
   A52        1.85312   0.00028   0.00000   0.00123   0.00115   1.85427
   A53        1.94322  -0.00066   0.00000  -0.00519  -0.00521   1.93800
   A54        1.94339  -0.00063   0.00000  -0.00498  -0.00500   1.93839
   A55        1.93764   0.00089   0.00000   0.00769   0.00770   1.94533
   A56        1.88111   0.00017   0.00000  -0.00333  -0.00338   1.87774
   A57        1.87773   0.00014   0.00000   0.00298   0.00299   1.88072
   A58        1.87776   0.00013   0.00000   0.00305   0.00306   1.88082
    D1        3.13907   0.00060   0.00000   0.03730   0.03631  -3.10780
    D2        0.01633  -0.00062   0.00000  -0.03824  -0.03725  -0.02092
    D3        1.04492  -0.00150   0.00000  -0.04920  -0.04990   0.99502
    D4       -1.10022   0.00123   0.00000  -0.02362  -0.02389  -1.12412
    D5       -3.07752  -0.00157   0.00000  -0.06587  -0.06580   3.13986
    D6       -2.11567  -0.00044   0.00000   0.02628   0.02618  -2.08950
    D7        2.02237   0.00229   0.00000   0.05186   0.05218   2.07455
    D8        0.04507  -0.00051   0.00000   0.00960   0.01028   0.05535
    D9        1.00843  -0.00142   0.00000  -0.04496  -0.04531   0.96312
   D10       -3.13140  -0.00176   0.00000  -0.05956  -0.05955   3.09223
   D11       -1.14397  -0.00031   0.00000  -0.02868  -0.02899  -1.17295
   D12        3.12626  -0.00167   0.00000  -0.05585  -0.05590   3.07036
   D13       -1.01357  -0.00201   0.00000  -0.07045  -0.07014  -1.08372
   D14        0.97386  -0.00056   0.00000  -0.03957  -0.03957   0.93429
   D15       -1.13057   0.00152   0.00000  -0.00331  -0.00331  -1.13388
   D16        1.01278   0.00117   0.00000  -0.01791  -0.01755   0.99523
   D17        3.00022   0.00262   0.00000   0.01297   0.01301   3.01323
   D18        1.05342  -0.00111   0.00000  -0.04186  -0.04194   1.01147
   D19       -3.10400  -0.00056   0.00000  -0.03204  -0.03213  -3.13614
   D20       -1.10080  -0.00020   0.00000  -0.02263  -0.02274  -1.12353
   D21       -1.08949   0.00115   0.00000  -0.00988  -0.00966  -1.09915
   D22        1.03628   0.00171   0.00000  -0.00006   0.00014   1.03642
   D23        3.03948   0.00206   0.00000   0.00935   0.00954   3.04903
   D24       -3.07477  -0.00217   0.00000  -0.06050  -0.06060  -3.13537
   D25       -0.94901  -0.00161   0.00000  -0.05068  -0.05079  -0.99980
   D26        1.05420  -0.00125   0.00000  -0.04127  -0.04139   1.01281
   D27        3.07872  -0.00007   0.00000   0.00002   0.00001   3.07874
   D28       -1.08064   0.00005   0.00000   0.00287   0.00286  -1.07778
   D29        0.94618   0.00034   0.00000   0.00843   0.00841   0.95459
   D30        0.95925   0.00017   0.00000  -0.00277  -0.00278   0.95648
   D31        3.08307   0.00029   0.00000   0.00008   0.00008   3.08315
   D32       -1.17329   0.00057   0.00000   0.00564   0.00563  -1.16767
   D33       -1.04745  -0.00070   0.00000  -0.01787  -0.01785  -1.06529
   D34        1.07637  -0.00058   0.00000  -0.01502  -0.01500   1.06138
   D35        3.10319  -0.00030   0.00000  -0.00946  -0.00945   3.09375
   D36       -3.08525  -0.00036   0.00000  -0.01270  -0.01268  -3.09794
   D37       -0.96614   0.00021   0.00000  -0.00079  -0.00079  -0.96693
   D38        1.04617   0.00031   0.00000   0.00454   0.00451   1.05069
   D39        1.07533  -0.00036   0.00000  -0.01459  -0.01457   1.06077
   D40       -3.08873   0.00021   0.00000  -0.00268  -0.00268  -3.09141
   D41       -1.07643   0.00031   0.00000   0.00265   0.00263  -1.07380
   D42       -0.95198  -0.00066   0.00000  -0.02040  -0.02038  -0.97236
   D43        1.16714  -0.00010   0.00000  -0.00849  -0.00849   1.15865
   D44       -3.10374   0.00000   0.00000  -0.00316  -0.00318  -3.10692
   D45       -1.15894   0.00062   0.00000   0.02796   0.02795  -1.13099
   D46        3.00260   0.00061   0.00000   0.02235   0.02234   3.02493
   D47        0.99745  -0.00011   0.00000   0.01072   0.01072   1.00817
   D48        2.99996   0.00066   0.00000   0.02208   0.02208   3.02204
   D49        0.87832   0.00065   0.00000   0.01647   0.01647   0.89478
   D50       -1.12683  -0.00007   0.00000   0.00484   0.00485  -1.12198
   D51        0.99480  -0.00026   0.00000   0.00778   0.00779   1.00259
   D52       -1.12685  -0.00027   0.00000   0.00218   0.00218  -1.12467
   D53       -3.13199  -0.00099   0.00000  -0.00945  -0.00944  -3.14143
   D54       -3.07175  -0.00039   0.00000  -0.01129  -0.01127  -3.08301
   D55       -0.94185  -0.00039   0.00000  -0.01382  -0.01381  -0.95565
   D56        1.08541  -0.00040   0.00000  -0.01335  -0.01334   1.07208
   D57       -0.95483   0.00011   0.00000  -0.00083  -0.00083  -0.95566
   D58        1.17507   0.00010   0.00000  -0.00337  -0.00337   1.17170
   D59       -3.08086   0.00009   0.00000  -0.00290  -0.00290  -3.08376
   D60        1.05690   0.00020   0.00000   0.00395   0.00394   1.06084
   D61       -3.09639   0.00020   0.00000   0.00141   0.00140  -3.09499
   D62       -1.06913   0.00019   0.00000   0.00189   0.00187  -1.06726
   D63       -3.13954  -0.00013   0.00000  -0.00137  -0.00137  -3.14091
   D64       -1.01253   0.00020   0.00000   0.00214   0.00212  -1.01040
   D65        1.01660  -0.00054   0.00000  -0.00597  -0.00594   1.01065
   D66        1.01372   0.00008   0.00000   0.00267   0.00267   1.01639
   D67        3.14074   0.00041   0.00000   0.00618   0.00616  -3.13629
   D68       -1.11332  -0.00033   0.00000  -0.00193  -0.00191  -1.11523
   D69       -1.00564   0.00016   0.00000   0.00301   0.00301  -1.00263
   D70        1.12138   0.00049   0.00000   0.00652   0.00650   1.12788
   D71       -3.13268  -0.00025   0.00000  -0.00159  -0.00157  -3.13425
   D72       -1.05000   0.00034   0.00000   0.00560   0.00559  -1.04442
   D73        1.04979  -0.00033   0.00000  -0.00556  -0.00555   1.04425
   D74        3.14156   0.00001   0.00000   0.00014   0.00014  -3.14148
   D75        3.10155   0.00064   0.00000   0.00944   0.00943   3.11098
   D76       -1.08183  -0.00002   0.00000  -0.00172  -0.00171  -1.08354
   D77        1.00993   0.00032   0.00000   0.00398   0.00398   1.01391
   D78        1.08231   0.00001   0.00000   0.00204   0.00202   1.08434
   D79       -3.10107  -0.00065   0.00000  -0.00912  -0.00911  -3.11019
   D80       -1.00931  -0.00031   0.00000  -0.00342  -0.00342  -1.01273
         Item               Value     Threshold  Converged?
 Maximum Force            0.016777     0.000450     NO 
 RMS     Force            0.003007     0.000300     NO 
 Maximum Displacement     0.430417     0.001800     NO 
 RMS     Displacement     0.097632     0.001200     NO 
 Predicted change in Energy=-2.979444D-03
 GradGradGradGradGradGradGradGradGradGradGradGradGradGradGradGradGradGrad

                          Input orientation:                          
 ---------------------------------------------------------------------
 Center     Atomic      Atomic             Coordinates (Angstroms)
 Number     Number       Type             X           Y           Z
 ---------------------------------------------------------------------
      1          8           0        5.199666   -0.007535    0.159700
      2          6           0        5.227866   -1.019583   -0.737767
      3          6           0        4.857957   -2.345934   -0.119790
      4          6           0        3.478095   -2.333546    0.548700
      5          6           0        2.347275   -1.887782   -0.384969
      6          6           0        2.206530   -2.744712   -1.647020
      7          6           0        1.013579   -2.326529   -2.512682
      8          6           0        0.806029   -3.203271   -3.755859
      9          6           0        1.946151   -3.123417   -4.777647
     10          6           0        1.674785   -3.943509   -6.042654
     11          6           0        2.815455   -3.863374   -7.062200
     12          8           0        5.468258   -0.830413   -1.911333
     13          1           0        5.418642    0.802953   -0.331267
     14          1           0        5.621706   -2.602817    0.624227
     15          1           0        4.908721   -3.087931   -0.918749
     16          1           0        3.275077   -3.344835    0.921608
     17          1           0        3.505296   -1.675346    1.424598
     18          1           0        1.407064   -1.905614    0.180243
     19          1           0        2.507552   -0.841942   -0.679231
     20          1           0        3.127822   -2.674096   -2.236168
     21          1           0        2.094927   -3.799765   -1.361371
     22          1           0        0.102205   -2.350628   -1.900467
     23          1           0        1.146038   -1.282351   -2.825804
     24          1           0       -0.131277   -2.908793   -4.245867
     25          1           0        0.673284   -4.247905   -3.443562
     26          1           0        2.110302   -2.073163   -5.053627
     27          1           0        2.881856   -3.470764   -4.322548
     28          1           0        1.505638   -4.991708   -5.764119
     29          1           0        0.743032   -3.594915   -6.506532
     30          1           0        2.985431   -2.829515   -7.381672
     31          1           0        3.752553   -4.235944   -6.634560
     32          1           0        2.596583   -4.457318   -7.955711
 ---------------------------------------------------------------------
                    Distance matrix (angstroms):
                    1          2          3          4          5
     1  O    0.000000
     2  C    1.352954   0.000000
     3  C    2.379703   1.509283   0.000000
     4  C    2.919838   2.538345   1.533314   0.000000
     5  C    3.459498   3.029198   2.565882   1.532709   0.000000
     6  C    4.440185   3.596009   3.085697   2.570432   1.531963
     7  C    5.481120   4.755906   4.528306   3.930133   2.549197
     8  C    6.696893   5.781870   5.511275   5.140583   3.933046
     9  C    6.683672   5.613946   5.547858   5.598278   4.580754
[...]
 Alpha virt. eigenvalues --    4.10875   4.13723   4.15561   4.17045   4.19593
 Alpha virt. eigenvalues --    4.22618   4.26416   4.28537   4.31264   4.31767
 Alpha virt. eigenvalues --    4.33972   4.36571   4.39416   4.42198   4.45741
 Alpha virt. eigenvalues --    4.49172   4.49459   4.51056   4.53095   4.54819
 Alpha virt. eigenvalues --    4.56481   4.59205   4.60167   4.61886   4.63235
 Alpha virt. eigenvalues --    4.64726   4.67005   4.68091   4.69792   4.74493
 Alpha virt. eigenvalues --    4.76745   4.79531   4.81369   4.81854   4.90551
 Alpha virt. eigenvalues --    4.98701   5.10009   5.16824   5.17356   5.20820
 Alpha virt. eigenvalues --    5.22589   5.39169   5.39937   5.51018   5.59356
 Alpha virt. eigenvalues --    5.73436   5.84816   5.87402   6.15568   6.19475
 Alpha virt. eigenvalues --    6.33578   6.34285   6.45673   6.48286   6.63808
 Alpha virt. eigenvalues --    6.69699   6.73679   6.83202   6.88090   7.07202
 Alpha virt. eigenvalues --    7.09043   7.27528  22.41346  22.48938  22.50344
 Alpha virt. eigenvalues --   22.57693  22.58649  22.59394  22.62173  22.63468
 Alpha virt. eigenvalues --   22.66150  23.28139  43.96179  44.01249
          Condensed to atoms (all electrons):
               1          2          3          4          5          6
     1  O    7.956426   0.347701  -0.108673   0.007866  -0.005922   0.000606
     2  C    0.347701   4.513644   0.263055  -0.038149   0.022984  -0.005959
     3  C   -0.108673   0.263055   5.345724   0.198575  -0.076666   0.039211
     4  C    0.007866  -0.038149   0.198575   5.220232   0.227533  -0.054782
     5  C   -0.005922   0.022984  -0.076666   0.227533   5.310980   0.155281
     6  C    0.000606  -0.005959   0.039211  -0.054782   0.155281   5.436369
     7  C    0.000099  -0.000255  -0.002703   0.010947  -0.029768   0.186177
     8  C    0.000005   0.000130   0.000046  -0.000816   0.006767  -0.053602
     9  C   -0.000003  -0.000030  -0.000088   0.000065   0.000683   0.020786
    10  C    0.000000   0.000002   0.000017  -0.000013  -0.000016  -0.000499
    11  C   -0.000000  -0.000000  -0.000002   0.000001  -0.000004   0.000107
    12  O   -0.091040   0.653154  -0.087439  -0.001923   0.003628  -0.003946
    13  H    0.287296  -0.023228   0.015685  -0.001665   0.000502  -0.000028
    14  H    0.003459  -0.020841   0.403734  -0.042804   0.010380  -0.000819
    15  H    0.003986  -0.051076   0.432270  -0.027134  -0.008490  -0.001861
    16  H   -0.000131   0.007395  -0.056448   0.428883  -0.031681  -0.007339
    17  H    0.003233  -0.005879  -0.030864   0.442247  -0.065212   0.012266
    18  H   -0.000251  -0.000573   0.011668  -0.048968   0.433165  -0.039817
    19  H    0.002555   0.004647  -0.015115  -0.031699   0.442140  -0.070204
    20  H    0.000368  -0.004665   0.008668  -0.015997  -0.025060   0.417448
    21  H   -0.000014   0.000682  -0.007321   0.011064  -0.055242   0.414705
    22  H   -0.000000   0.000027  -0.000057  -0.000158  -0.006930  -0.046232
    23  H   -0.000022  -0.000078   0.000322  -0.000315  -0.001566  -0.066618
    24  H    0.000000   0.000002  -0.000007   0.000035  -0.000394   0.011985
    25  H   -0.000000  -0.000007   0.000041  -0.000037  -0.000152  -0.012701
    26  H   -0.000000   0.000021   0.000004   0.000010  -0.000127  -0.004208
    27  H    0.000003   0.000032  -0.000062   0.000034   0.000572   0.004973
    28  H   -0.000000   0.000000  -0.000001   0.000001  -0.000006   0.000024
    29  H    0.000000   0.000000  -0.000000  -0.000000   0.000006  -0.000039
    30  H   -0.000000  -0.000000  -0.000000   0.000000  -0.000000   0.000019
    31  H    0.000000   0.000001  -0.000000  -0.000000   0.000001  -0.000038
    32  H   -0.000000  -0.000000   0.000000  -0.000000   0.000000   0.000001
               7          8          9         10         11         12
     1  O    0.000099   0.000005  -0.000003   0.000000  -0.000000  -0.091040
     2  C   -0.000255   0.000130  -0.000030   0.000002  -0.000000   0.653154
     3  C   -0.002703   0.000046  -0.000088   0.000017  -0.000002  -0.087439
     4  C    0.010947  -0.000816   0.000065  -0.000013   0.000001  -0.001923
     5  C   -0.029768   0.006767   0.000683  -0.000016  -0.000004   0.003628
     6  C    0.186177  -0.053602   0.020786  -0.000499   0.000107  -0.003946
     7  C    5.181081   0.256486  -0.050568   0.008488  -0.001152  -0.000804
     8  C    0.256486   5.200825   0.196876  -0.034179   0.011952   0.000271
     9  C   -0.050568   0.196876   5.322863   0.234419  -0.058361  -0.000353
    10  C    0.008488  -0.034179   0.234419   5.123381   0.272185   0.000015
    11  C   -0.001152   0.011952  -0.058361   0.272185   5.033359  -0.000005
    12  O   -0.000804   0.000271  -0.000353   0.000015  -0.000005   7.842309
    13  H   -0.000002  -0.000001   0.000001  -0.000000   0.000000   0.006646
    14  H    0.000045  -0.000003   0.000002  -0.000000   0.000000   0.003623
    15  H    0.000354   0.000091  -0.000028  -0.000005   0.000000   0.003540
    16  H   -0.000059  -0.000065   0.000034  -0.000000   0.000000  -0.000484
    17  H   -0.000679   0.000030  -0.000001   0.000000  -0.000000   0.000100
    18  H   -0.006843   0.000325  -0.000153   0.000007  -0.000000   0.000031
    19  H    0.001039  -0.000572   0.000232  -0.000011   0.000001  -0.003061
    20  H   -0.031607  -0.005572  -0.002795   0.000998  -0.000044   0.007698
    21  H   -0.040934   0.003468  -0.002783  -0.000144   0.000011   0.000332
    22  H    0.440357  -0.048782   0.010157  -0.000350   0.000026  -0.000012
    23  H    0.444144  -0.034752  -0.010934  -0.000247   0.000013   0.000381
    24  H   -0.053223   0.436567  -0.041552  -0.004962   0.000018   0.000002
    25  H   -0.031844   0.437814  -0.063997  -0.003645  -0.000386  -0.000004
    26  H    0.007267  -0.048773   0.420238  -0.042328  -0.004359   0.000036
    27  H   -0.011255  -0.043323   0.424871  -0.038495  -0.002838   0.000429
    28  H    0.000009  -0.004107  -0.046237   0.423523  -0.039946  -0.000000
    29  H   -0.000342  -0.006115  -0.054458   0.434005  -0.038757   0.000000
    30  H   -0.000056  -0.000208  -0.005545  -0.041604   0.414596  -0.000000
    31  H    0.000018  -0.000265  -0.007542  -0.039829   0.415349   0.000001
    32  H    0.000039  -0.000829   0.013888  -0.052967   0.422046  -0.000000
              13         14         15         16         17         18
     1  O    0.287296   0.003459   0.003986  -0.000131   0.003233  -0.000251
     2  C   -0.023228  -0.020841  -0.051076   0.007395  -0.005879  -0.000573
     3  C    0.015685   0.403734   0.432270  -0.056448  -0.030864   0.011668
     4  C   -0.001665  -0.042804  -0.027134   0.428883   0.442247  -0.048968
     5  C    0.000502   0.010380  -0.008490  -0.031681  -0.065212   0.433165
     6  C   -0.000028  -0.000819  -0.001861  -0.007339   0.012266  -0.039817
     7  C   -0.000002   0.000045   0.000354  -0.000059  -0.000679  -0.006843
     8  C   -0.000001  -0.000003   0.000091  -0.000065   0.000030   0.000325
     9  C    0.000001   0.000002  -0.000028   0.000034  -0.000001  -0.000153
    10  C   -0.000000  -0.000000  -0.000005  -0.000000   0.000000   0.000007
    11  C    0.000000   0.000000   0.000000   0.000000  -0.000000  -0.000000
    12  O    0.006646   0.003623   0.003540  -0.000484   0.000100   0.000031
    13  H    0.381152  -0.000855  -0.000721   0.000078  -0.000236   0.000008
    14  H   -0.000855   0.498940  -0.015367  -0.005249  -0.004448  -0.000124
    15  H   -0.000721  -0.015367   0.490480  -0.004031   0.004475  -0.000675
    16  H    0.000078  -0.005249  -0.004031   0.529227  -0.017155  -0.003394
    17  H   -0.000236  -0.004448   0.004475  -0.017155   0.505261  -0.005593
    18  H    0.000008  -0.000124  -0.000675  -0.003394  -0.005593   0.525482
    19  H    0.000016  -0.000601   0.001358   0.005514  -0.001895  -0.019570
    20  H   -0.000047   0.001048  -0.009187   0.001015  -0.000743   0.004291
    21  H   -0.000001  -0.000209   0.002456   0.000141   0.000209  -0.001211
    22  H    0.000000   0.000003  -0.000045   0.000155  -0.000044   0.001564
    23  H    0.000001  -0.000003   0.000019  -0.000027   0.000015   0.001265
    24  H   -0.000000   0.000000   0.000003  -0.000001  -0.000000  -0.000066
    25  H    0.000000  -0.000000  -0.000014   0.000001  -0.000001   0.000134
    26  H    0.000000  -0.000000  -0.000008   0.000000  -0.000001   0.000015
    27  H   -0.000001  -0.000001   0.000328  -0.000013   0.000004  -0.000041
    28  H    0.000000  -0.000000  -0.000000   0.000000  -0.000000   0.000000
    29  H   -0.000000   0.000000   0.000000  -0.000000   0.000000  -0.000000
    30  H   -0.000000  -0.000000  -0.000000  -0.000000  -0.000000  -0.000000
    31  H   -0.000000   0.000000   0.000001  -0.000000   0.000000   0.000000
    32  H    0.000000  -0.000000  -0.000000   0.000000   0.000000   0.000000
              19         20         21         22         23         24
     1  O    0.002555   0.000368  -0.000014  -0.000000  -0.000022   0.000000
     2  C    0.004647  -0.004665   0.000682   0.000027  -0.000078   0.000002
     3  C   -0.015115   0.008668  -0.007321  -0.000057   0.000322  -0.000007
     4  C   -0.031699  -0.015997   0.011064  -0.000158  -0.000315   0.000035
     5  C    0.442140  -0.025060  -0.055242  -0.006930  -0.001566  -0.000394
     6  C   -0.070204   0.417448   0.414705  -0.046232  -0.066618   0.011985
     7  C    0.001039  -0.031607  -0.040934   0.440357   0.444144  -0.053223
     8  C   -0.000572  -0.005572   0.003468  -0.048782  -0.034752   0.436567
     9  C    0.000232  -0.002795  -0.002783   0.010157  -0.010934  -0.041552
    10  C   -0.000011   0.000998  -0.000144  -0.000350  -0.000247  -0.004962
    11  C    0.000001  -0.000044   0.000011   0.000026   0.000013   0.000018
    12  O   -0.003061   0.007698   0.000332  -0.000012   0.000381   0.000002
    13  H    0.000016  -0.000047  -0.000001   0.000000   0.000001  -0.000000
    14  H   -0.000601   0.001048  -0.000209   0.000003  -0.000003   0.000000
    15  H    0.001358  -0.009187   0.002456  -0.000045   0.000019   0.000003
    16  H    0.005514   0.001015   0.000141   0.000155  -0.000027  -0.000001
    17  H   -0.001895  -0.000743   0.000209  -0.000044   0.000015  -0.000000
    18  H   -0.019570   0.004291  -0.001211   0.001564   0.001265  -0.000066
    19  H    0.514533  -0.001759   0.005854   0.000828   0.000610   0.000016
    20  H   -0.001759   0.510026  -0.026956   0.004989  -0.001728  -0.000618
    21  H    0.005854  -0.026956   0.544947  -0.003152   0.006378   0.000370
    22  H    0.000828   0.004989  -0.003152   0.539845  -0.022897  -0.007598
    23  H    0.000610  -0.001728   0.006378  -0.022897   0.527589  -0.001971
    24  H    0.000016  -0.000618   0.000370  -0.007598  -0.001971   0.537257
    25  H   -0.000027   0.001622   0.001415  -0.001934   0.006001  -0.022902
    26  H   -0.000019   0.001756   0.000030   0.000433   0.000667  -0.002477
    27  H    0.000006  -0.009503   0.001077  -0.000622   0.001740   0.005542
    28  H    0.000000   0.000118  -0.000027   0.000028  -0.000054   0.000537
    29  H    0.000000  -0.000089   0.000014  -0.000058   0.000165   0.002035
    30  H    0.000000   0.000017  -0.000001   0.000000  -0.000014   0.000121
    31  H   -0.000000  -0.000014   0.000003  -0.000000   0.000006  -0.000048
    32  H   -0.000000   0.000001  -0.000000  -0.000000  -0.000001   0.000002
              25         26         27         28         29         30
     1  O   -0.000000  -0.000000   0.000003  -0.000000   0.000000  -0.000000
     2  C   -0.000007   0.000021   0.000032   0.000000   0.000000  -0.000000
     3  C    0.000041   0.000004  -0.000062  -0.000001  -0.000000  -0.000000
     4  C   -0.000037   0.000010   0.000034   0.000001  -0.000000   0.000000
     5  C   -0.000152  -0.000127   0.000572  -0.000006   0.000006  -0.000000
     6  C   -0.012701  -0.004208   0.004973   0.000024  -0.000039   0.000019
     7  C   -0.031844   0.007267  -0.011255   0.000009  -0.000342  -0.000056
     8  C    0.437814  -0.048773  -0.043323  -0.004107  -0.006115  -0.000208
     9  C   -0.063997   0.420238   0.424871  -0.046237  -0.054458  -0.005545
    10  C   -0.003645  -0.042328  -0.038495   0.423523   0.434005  -0.041604
    11  C   -0.000386  -0.004359  -0.002838  -0.039946  -0.038757   0.414596
    12  O   -0.000004   0.000036   0.000429  -0.000000   0.000000  -0.000000
    13  H    0.000000   0.000000  -0.000001   0.000000  -0.000000  -0.000000
    14  H   -0.000000  -0.000000  -0.000001  -0.000000   0.000000  -0.000000
    15  H   -0.000014  -0.000008   0.000328  -0.000000   0.000000  -0.000000
    16  H    0.000001   0.000000  -0.000013   0.000000  -0.000000  -0.000000
    17  H   -0.000001  -0.000001   0.000004  -0.000000   0.000000  -0.000000
    18  H    0.000134   0.000015  -0.000041   0.000000  -0.000000  -0.000000
    19  H   -0.000027  -0.000019   0.000006   0.000000   0.000000   0.000000
    20  H    0.001622   0.001756  -0.009503   0.000118  -0.000089   0.000017
    21  H    0.001415   0.000030   0.001077  -0.000027   0.000014  -0.000001
    22  H   -0.001934   0.000433  -0.000622   0.000028  -0.000058   0.000000
    23  H    0.006001   0.000667   0.001740  -0.000054   0.000165  -0.000014
    24  H   -0.022902  -0.002477   0.005542   0.000537   0.002035   0.000121
    25  H    0.539744   0.006656  -0.002047   0.001464   0.000816  -0.000051
    26  H    0.006656   0.551447  -0.030027   0.007548  -0.005577   0.002378
    27  H   -0.002047  -0.030027   0.554329  -0.006243   0.008005  -0.000013
    28  H    0.001464   0.007548  -0.006243   0.572985  -0.034674   0.007648
    29  H    0.000816  -0.005577   0.008005  -0.034674   0.568426  -0.005701
    30  H   -0.000051   0.002378  -0.000013   0.007648  -0.005701   0.548190
    31  H    0.000137   0.000377   0.002461  -0.005623   0.007380  -0.030850
    32  H    0.000006  -0.000132  -0.000091  -0.004256  -0.004025  -0.025177
              31         32
     1  O    0.000000  -0.000000
     2  C    0.000001  -0.000000
     3  C   -0.000000   0.000000
     4  C   -0.000000  -0.000000
     5  C    0.000001   0.000000
     6  C   -0.000038   0.000001
     7  C    0.000018   0.000039
     8  C   -0.000265  -0.000829
     9  C   -0.007542   0.013888
    10  C   -0.039829  -0.052967
    11  C    0.415349   0.422046
    12  O    0.000001  -0.000000
    13  H   -0.000000   0.000000
    14  H    0.000000  -0.000000
    15  H    0.000001  -0.000000
    16  H   -0.000000   0.000000
    17  H    0.000000   0.000000
    18  H    0.000000   0.000000
    19  H   -0.000000  -0.000000
    20  H   -0.000014   0.000001
    21  H    0.000003  -0.000000
    22  H   -0.000000  -0.000000
    23  H    0.000006  -0.000001
    24  H   -0.000048   0.000002
    25  H    0.000137   0.000006
    26  H    0.000377  -0.000132
    27  H    0.002461  -0.000091
    28  H   -0.005623  -0.004256
    29  H    0.007380  -0.004025
    30  H   -0.030850  -0.025177
    31  H    0.547284  -0.025050
    32  H   -0.025050   0.537153
 Mulliken charges:
               1
     1  O   -0.407547
     2  C    0.337267
     3  C   -0.333574
     4  C   -0.283032
     5  C   -0.307386
     6  C   -0.331266
     7  C   -0.274456
     8  C   -0.269689
     9  C   -0.299688
    10  C   -0.237747
    11  C   -0.423810
    12  O   -0.333123
    13  H    0.335400
    14  H    0.170088
    15  H    0.179280
    16  H    0.153634
    17  H    0.164912
    18  H    0.149323
    19  H    0.165186
    20  H    0.176320
    21  H    0.144838
    22  H    0.140459
    23  H    0.151910
    24  H    0.141329
    25  H    0.143902
    26  H    0.139153
    27  H    0.140166
    28  H    0.127286
    29  H    0.128981
    30  H    0.136249
    31  H    0.136241
    32  H    0.139392
 Sum of Mulliken charges =  -0.00000
 Mulliken charges with hydrogens summed into heavy atoms:
               1
     1  O   -0.072147
     2  C    0.337267
     3  C    0.015794
     4  C    0.035514
     5  C    0.007123
     6  C   -0.010108
     7  C    0.017913
     8  C    0.015543
     9  C   -0.020369
    10  C    0.018520
    11  C   -0.011927
    12  O   -0.333123
 Electronic spatial extent (au):  <R**2>=           3826.3021
 Charge=             -0.0000 electrons
 Dipole moment (field-independent basis, Debye):
    X=             -1.1834    Y=             -1.1819    Z=              0.3510  Tot=              1.7090
 Quadrupole moment (field-independent basis, Debye-Ang):
   XX=            -74.2928   YY=            -79.9609   ZZ=            -73.4639
   XY=             -1.3722   XZ=              0.4452   YZ=             -1.2669
 Traceless Quadrupole moment (field-independent basis, Debye-Ang):
   XX=              1.6131   YY=             -4.0550   ZZ=              2.4419
   XY=             -1.3722   XZ=              0.4452   YZ=             -1.2669
 Octapole moment (field-independent basis, Debye-Ang**2):
  XXX=            -34.6509  YYY=              3.7689  ZZZ=             -7.9848  XYY=            -17.4627
  XXY=             14.9917  XXZ=             -9.4436  XZZ=            -21.7821  YZZ=             10.2200
  YYZ=             -3.5167  XYZ=              7.9681
 Hexadecapole moment (field-independent basis, Debye-Ang**3):
 XXXX=          -3957.0220 YYYY=           -967.4019 ZZZZ=           -286.1943 XXXY=            -84.3821
 XXXZ=             40.6329 YYYX=            -49.9759 YYYZ=            -15.3277 ZZZX=             29.8357
 ZZZY=            -22.3536 XXYY=           -788.8324 XXZZ=           -644.5759 YYZZ=           -197.4084
 XXYZ=            -37.8448 YYXZ=             20.8315 ZZXY=            -36.6667
 N-N= 7.194360813038D+02 E-N=-2.703921156605D+03  KE= 5.405759145967D+02
 Unable to Open any file for archive entry.
 1\1\GINC-NOTCH075\SP\RM062X\def2TZVP\C10H20O2\U6032257\03-Feb-2022\0\\
 # M062X/def2tzvp int=(grid=ultrafine) nmr=giao guess=read geom=check\\
 Ac1.xyz\\0,1\O,0,5.4181626124,-0.0550716494,0.1079813258\C,0,5.1940827
 027,-1.0614423692,-0.7753647352\C,0,4.8511677055,-2.3541799412,-0.0772
 943586\C,0,3.4507785876,-2.2977822146,0.5705230412\C,0,2.3293752351,-1
 .87360371,-0.3873232257\C,0,2.2071274827,-2.7395314182,-1.6448660766\C
 ,0,0.9956561872,-2.3633099985,-2.5039014262\C,0,0.8129789403,-3.236667
 5836,-3.751994026\C,0,1.9451140643,-3.1190872022,-4.7776911341\C,0,1.6
 914898598,-3.9330860858,-6.0497759936\C,0,2.8257697129,-3.8177266058,-
 7.0700227512\O,0,5.2365726738,-0.8893266433,-1.9744908801\H,0,5.590580
 7964,0.7369863562,-0.428625188\H,0,5.6011058852,-2.5509977706,0.695385
 9691\H,0,4.9063345465,-3.147864608,-0.8237860914\H,0,3.2316929325,-3.2
 9210769,0.9777449955\H,0,3.4836724615,-1.6072537774,1.4197608218\H,0,1
 .3801241266,-1.8916222164,0.1634634238\H,0,2.4828571727,-0.8283980312,
 -0.6881256801\H,0,3.1206279323,-2.6381228825,-2.2392155094\H,0,2.13220
 59267,-3.7982818285,-1.3558721961\H,0,0.0886021373,-2.4250582662,-1.88
 77718622\H,0,1.0862355184,-1.3114343673,-2.8092291019\H,0,-0.133896084
 4,-2.967090148,-4.2385259657\H,0,0.7081796978,-4.2876947275,-3.4470352
 312\H,0,2.084082002,-2.0616429481,-5.0438115355\H,0,2.8931786057,-3.44
 33310981,-4.3305100954\H,0,1.5449805354,-4.9877860874,-5.7800845087\H,
 0,0.7488631203,-3.604236385,-6.5077527963\H,0,2.972629065,-2.776881609
 6,-7.3792768482\H,0,3.7729752949,-4.1709255284,-6.6473665692\H,0,2.620
 7925627,-4.4074409645,-7.9692457904\\Version=ES64L-G16RevC.01\State=1-
 A\HF=-543.5432724\RMSD=2.045e-09\Dipole=-0.1465134,-0.0593501,0.653515
 5\Quadrupole=-1.6245145,2.2517661,-0.6272516,0.1742743,2.2045131,0.086
 3124\PG=C01 [X(C10H20O2)]\\@
 The archive entry for this job was punched.


 THERE IS MUCH PLEASURE TO BE GAINED FROM USELESS KNOWLEDGE

                                       -- BERTRAND RUSSELL
 Job cpu time:       0 days  0 hours 38 minutes  9.5 seconds.
 Elapsed time:       0 days  0 hours  1 minutes 22.9 seconds.
 File lengths (MBytes):  RWF=    140 Int=      0 D2E=      0 Chk=     24 Scr=      1
 Normal termination of Gaussian 16 at Thu Feb  3 09:12:41 2022.
