 Entering Gaussian System, Link 0=/uufs/chpc.utah.edu/sys/installdir/gaussian16/C01/AVX2/g16/g16
 Input=Ac1_clust-35.com
 Output=Ac1_clust-35.log
 Initial command:
 /uufs/chpc.utah.edu/sys/installdir/gaussian16/C01/AVX2/g16/l1.exe "/scratch/general/lustre/u6032257/3857492/notchpeak.peaks/Gau-24924.inp" -scrdir="/scratch/general/lustre/u6032257/3857492/notchpeak.peaks/"
 Entering Link 1 = /uufs/chpc.utah.edu/sys/installdir/gaussian16/C01/AVX2/g16/l1.exe PID=     24926.
  
 Copyright (c) 1988-2019, Gaussian, Inc.  All Rights Reserved.
  
 This is part of the Gaussian(R) 16 program.  It is based on
 the Gaussian(R) 09 system (copyright 2009, Gaussian, Inc.),
 the Gaussian(R) 03 system (copyright 2003, Gaussian, Inc.),
 the Gaussian(R) 98 system (copyright 1998, Gaussian, Inc.),
 the Gaussian(R) 94 system (copyright 1995, Gaussian, Inc.),
 the Gaussian 92(TM) system (copyright 1992, Gaussian, Inc.),
 the Gaussian 90(TM) system (copyright 1990, Gaussian, Inc.),
 the Gaussian 88(TM) system (copyright 1988, Gaussian, Inc.),
 the Gaussian 86(TM) system (copyright 1986, Carnegie Mellon
 University), and the Gaussian 82(TM) system (copyright 1983,
 Carnegie Mellon University). Gaussian is a federally registered
 trademark of Gaussian, Inc.
  
 This software contains proprietary and confidential information,
 including trade secrets, belonging to Gaussian, Inc.
  
 This software is provided under written license and may be
 used, copied, transmitted, or stored only in accord with that
 written license.
  
 The following legend is applicable only to US Government
 contracts under FAR:
  
                    RESTRICTED RIGHTS LEGEND
  
 Use, reproduction and disclosure by the US Government is
 subject to restrictions as set forth in subparagraphs (a)
 and (c) of the Commercial Computer Software - Restricted
 Rights clause in FAR 52.227-19.
  
 Gaussian, Inc.
 340 Quinnipiac St., Bldg. 40, Wallingford CT 06492
  
  
 ---------------------------------------------------------------
 Warning -- This program may not be used in any manner that
 competes with the business of Gaussian, Inc. or will provide
 assistance to any competitor of Gaussian, Inc.  The licensee
 of this program is prohibited from giving any competitor of
 Gaussian, Inc. access to this program.  By using this program,
 the user acknowledges that Gaussian, Inc. is engaged in the
 business of creating and licensing software in the field of
 computational chemistry and represents and warrants to the
 licensee that it is not a competitor of Gaussian, Inc. and that
 it will not use this program in any manner prohibited above.
 ---------------------------------------------------------------
  

 Cite this work as:
 Gaussian 16, Revision C.01,
 M. J. Frisch, G. W. Trucks, H. B. Schlegel, G. E. Scuseria, 
 M. A. Robb, J. R. Cheeseman, G. Scalmani, V. Barone, 
 G. A. Petersson, H. Nakatsuji, X. Li, M. Caricato, A. V. Marenich, 
 J. Bloino, B. G. Janesko, R. Gomperts, B. Mennucci, H. P. Hratchian, 
 J. V. Ortiz, A. F. Izmaylov, J. L. Sonnenberg, D. Williams-Young, 
 F. Ding, F. Lipparini, F. Egidi, J. Goings, B. Peng, A. Petrone, 
 T. Henderson, D. Ranasinghe, V. G. Zakrzewski, J. Gao, N. Rega, 
 G. Zheng, W. Liang, M. Hada, M. Ehara, K. Toyota, R. Fukuda, 
 J. Hasegawa, M. Ishida, T. Nakajima, Y. Honda, O. Kitao, H. Nakai, 
 T. Vreven, K. Throssell, J. A. Montgomery, Jr., J. E. Peralta, 
 F. Ogliaro, M. J. Bearpark, J. J. Heyd, E. N. Brothers, K. N. Kudin, 
 V. N. Staroverov, T. A. Keith, R. Kobayashi, J. Normand, 
 K. Raghavachari, A. P. Rendell, J. C. Burant, S. S. Iyengar, 
 J. Tomasi, M. Cossi, J. M. Millam, M. Klene, C. Adamo, R. Cammi, 
 J. W. Ochterski, R. L. Martin, K. Morokuma, O. Farkas, 
 J. B. Foresman, and D. J. Fox, Gaussian, Inc., Wallingford CT, 2019.
 
 ******************************************
 Gaussian 16:  ES64L-G16RevC.01  3-Jul-2019
                 3-Feb-2022 
 ******************************************
 %NProcShared=32
 Will use up to   32 processors via shared memory.
 %mem=16GB
 %chk=Ac1_clust-35.chk
 ----------------------------------------------------------------------
 # B3LYP/6-31G(d,p) empiricaldispersion=GD3BJ int=(grid=ultrafine) opt 
 freq=noraman
 ----------------------------------------------------------------------
 1/18=20,19=15,26=4,38=1/1,3;
 2/9=110,12=2,17=6,18=5,40=1/2;
 3/5=1,6=6,7=101,11=2,25=1,30=1,71=1,74=-5,75=-5,124=41/1,2,3;
 4//1;
 5/5=2,38=5/2;
 6/7=2,8=2,9=2,10=2,28=1/1;
 7//1,2,3,16;
 1/18=20,19=15,26=4/3(2);
 2/9=110/2;
 99//99;
 2/9=110/2;
 3/5=1,6=6,7=101,11=2,25=1,30=1,71=1,74=-5,75=-5,124=41/1,2,3;
 4/5=5,16=3,69=1/1;
 5/5=2,38=5/2;
 7//1,2,3,16;
 1/18=20,19=15,26=4/3(-5);
 2/9=110/2;
 6/7=2,8=2,9=2,10=2,19=2,28=1/1;
 99/9=1/99;
 -------
 Ac1.xyz
 -------
 Symbolic Z-matrix:
 Charge =  0 Multiplicity = 1
 O                     5.5985    0.5595   -0.1164 
 C                     4.7766   -0.4541    0.2282 
 C                     3.3865   -0.2902   -0.3871 
 C                     2.4467   -1.5186   -0.2633 
 C                     2.8911   -2.7836   -1.0309 
 C                     2.96     -2.6044   -2.5596 
 C                     3.3133   -3.9131   -3.2938 
 C                     3.3901   -3.7776   -4.8308 
 C                     2.0924   -4.1182   -5.5948 
 C                     0.8949   -3.2008   -5.2901 
 C                    -0.3063   -3.4716   -6.207 
 O                     5.1176   -1.3684    0.9657 
 H                     6.4211    0.3522    0.3282 
 H                     3.496     0.0034   -1.4302 
 H                     2.9308    0.5587    0.1211 
 H                     2.323    -1.7717    0.7924 
 H                     1.4493   -1.2356   -0.6046 
 H                     3.8578   -3.1251   -0.6566 
 H                     2.1912   -3.5885   -0.7998 
 H                     2.0095   -2.2117   -2.9182 
 H                     3.7086   -1.8505   -2.8062 
 H                     4.2834   -4.2539   -2.9271 
 H                     2.6093   -4.7024   -3.0238 
 H                     4.1666   -4.4545   -5.1916 
 H                     3.7371   -2.7804   -5.1076 
 H                     2.3074   -4.0744   -6.6641 
 H                     1.8151   -5.1546   -5.3942 
 H                     0.5806   -3.3387   -4.255 
 H                     1.1947   -2.156    -5.3879 
 H                    -0.0527   -3.3044   -7.2545 
 H                    -0.657    -4.4997   -6.1082 
 H                    -1.1409   -2.814    -5.9617 
 

 GradGradGradGradGradGradGradGradGradGradGradGradGradGradGradGradGradGrad
 Berny optimization.
 Initialization pass.
                           ----------------------------
                           !    Initial Parameters    !
                           ! (Angstroms and Degrees)  !
 --------------------------                            --------------------------
 ! Name  Definition              Value          Derivative Info.                !
 --------------------------------------------------------------------------------
 ! R1    R(1,2)                  1.3497         estimate D2E/DX2                !
 ! R2    R(1,13)                 0.9578         estimate D2E/DX2                !
 ! R3    R(2,3)                  1.529          estimate D2E/DX2                !
 ! R4    R(2,12)                 1.2232         estimate D2E/DX2                !
 ! R5    R(3,4)                  1.5516         estimate D2E/DX2                !
 ! R6    R(3,14)                 1.0892         estimate D2E/DX2                !
 ! R7    R(3,15)                 1.0893         estimate D2E/DX2                !
 ! R8    R(4,5)                  1.545          estimate D2E/DX2                !
 ! R9    R(4,16)                 1.0926         estimate D2E/DX2                !
 ! R10   R(4,17)                 1.0915         estimate D2E/DX2                !
 ! R11   R(5,6)                  1.5407         estimate D2E/DX2                !
 ! R12   R(5,18)                 1.0914         estimate D2E/DX2                !
 ! R13   R(5,19)                 1.0914         estimate D2E/DX2                !
 ! R14   R(6,7)                  1.5416         estimate D2E/DX2                !
 ! R15   R(6,20)                 1.0892         estimate D2E/DX2                !
 ! R16   R(6,21)                 1.0907         estimate D2E/DX2                !
 ! R17   R(7,8)                  1.5449         estimate D2E/DX2                !
 ! R18   R(7,22)                 1.0917         estimate D2E/DX2                !
 ! R19   R(7,23)                 1.0916         estimate D2E/DX2                !
 ! R20   R(8,9)                  1.5439         estimate D2E/DX2                !
 ! R21   R(8,24)                 1.0915         estimate D2E/DX2                !
 ! R22   R(8,25)                 1.0915         estimate D2E/DX2                !
 ! R23   R(9,10)                 1.539          estimate D2E/DX2                !
 ! R24   R(9,26)                 1.0916         estimate D2E/DX2                !
 ! R25   R(9,27)                 1.0914         estimate D2E/DX2                !
 ! R26   R(10,11)                1.5352         estimate D2E/DX2                !
 ! R27   R(10,28)                1.0905         estimate D2E/DX2                !
 ! R28   R(10,29)                1.0914         estimate D2E/DX2                !
 ! R29   R(11,30)                1.0907         estimate D2E/DX2                !
 ! R30   R(11,31)                1.0908         estimate D2E/DX2                !
 ! R31   R(11,32)                1.0905         estimate D2E/DX2                !
 ! A1    A(2,1,13)             104.0018         estimate D2E/DX2                !
 ! A2    A(1,2,3)              111.7397         estimate D2E/DX2                !
 ! A3    A(1,2,12)             123.0609         estimate D2E/DX2                !
 ! A4    A(3,2,12)             125.1853         estimate D2E/DX2                !
 ! A5    A(2,3,4)              115.7023         estimate D2E/DX2                !
 ! A6    A(2,3,14)             108.8383         estimate D2E/DX2                !
 ! A7    A(2,3,15)             106.0296         estimate D2E/DX2                !
 ! A8    A(4,3,14)             110.5315         estimate D2E/DX2                !
 ! A9    A(4,3,15)             109.0481         estimate D2E/DX2                !
 ! A10   A(14,3,15)            106.1884         estimate D2E/DX2                !
 ! A11   A(3,4,5)              115.7446         estimate D2E/DX2                !
 ! A12   A(3,4,16)             109.2111         estimate D2E/DX2                !
 ! A13   A(3,4,17)             108.86           estimate D2E/DX2                !
 ! A14   A(5,4,16)             108.8409         estimate D2E/DX2                !
 ! A15   A(5,4,17)             108.6496         estimate D2E/DX2                !
 ! A16   A(16,4,17)            104.9943         estimate D2E/DX2                !
 ! A17   A(4,5,6)              114.2423         estimate D2E/DX2                !
 ! A18   A(4,5,18)             109.9118         estimate D2E/DX2                !
 ! A19   A(4,5,19)             108.3118         estimate D2E/DX2                !
 ! A20   A(6,5,18)             109.6974         estimate D2E/DX2                !
 ! A21   A(6,5,19)             108.9386         estimate D2E/DX2                !
 ! A22   A(18,5,19)            105.3448         estimate D2E/DX2                !
 ! A23   A(5,6,7)              112.585          estimate D2E/DX2                !
 ! A24   A(5,6,20)             109.2439         estimate D2E/DX2                !
 ! A25   A(5,6,21)             109.5984         estimate D2E/DX2                !
 ! A26   A(7,6,20)             110.4431         estimate D2E/DX2                !
 ! A27   A(7,6,21)             108.7725         estimate D2E/DX2                !
 ! A28   A(20,6,21)            105.9811         estimate D2E/DX2                !
 ! A29   A(6,7,8)              114.2528         estimate D2E/DX2                !
 ! A30   A(6,7,22)             107.9808         estimate D2E/DX2                !
 ! A31   A(6,7,23)             110.3795         estimate D2E/DX2                !
 ! A32   A(8,7,22)             108.5061         estimate D2E/DX2                !
 ! A33   A(8,7,23)             109.9729         estimate D2E/DX2                !
 ! A34   A(22,7,23)            105.3256         estimate D2E/DX2                !
 ! A35   A(7,8,9)              115.5428         estimate D2E/DX2                !
 ! A36   A(7,8,24)             108.0501         estimate D2E/DX2                !
 ! A37   A(7,8,25)             110.3791         estimate D2E/DX2                !
 ! A38   A(9,8,24)             107.3119         estimate D2E/DX2                !
 ! A39   A(9,8,25)             110.0754         estimate D2E/DX2                !
 ! A40   A(24,8,25)            104.8675         estimate D2E/DX2                !
 ! A41   A(8,9,10)             115.1214         estimate D2E/DX2                !
 ! A42   A(8,9,26)             108.0796         estimate D2E/DX2                !
 ! A43   A(8,9,27)             109.3949         estimate D2E/DX2                !
 ! A44   A(10,9,26)            108.8618         estimate D2E/DX2                !
 ! A45   A(10,9,27)            109.3879         estimate D2E/DX2                !
 ! A46   A(26,9,27)            105.5562         estimate D2E/DX2                !
 ! A47   A(9,10,11)            112.6698         estimate D2E/DX2                !
 ! A48   A(9,10,28)            109.6824         estimate D2E/DX2                !
 ! A49   A(9,10,29)            109.8273         estimate D2E/DX2                !
 ! A50   A(11,10,28)           108.6073         estimate D2E/DX2                !
 ! A51   A(11,10,29)           109.2859         estimate D2E/DX2                !
 ! A52   A(28,10,29)           106.5763         estimate D2E/DX2                !
 ! A53   A(10,11,30)           111.3853         estimate D2E/DX2                !
 ! A54   A(10,11,31)           111.3293         estimate D2E/DX2                !
 ! A55   A(10,11,32)           110.9841         estimate D2E/DX2                !
 ! A56   A(30,11,31)           107.8336         estimate D2E/DX2                !
 ! A57   A(30,11,32)           107.5511         estimate D2E/DX2                !
 ! A58   A(31,11,32)           107.5744         estimate D2E/DX2                !
 ! D1    D(13,1,2,3)           179.4973         estimate D2E/DX2                !
 ! D2    D(13,1,2,12)            0.8015         estimate D2E/DX2                !
 ! D3    D(1,2,3,4)            169.5628         estimate D2E/DX2                !
 ! D4    D(1,2,3,14)            44.4299         estimate D2E/DX2                !
 ! D5    D(1,2,3,15)           -69.4307         estimate D2E/DX2                !
 ! D6    D(12,2,3,4)           -11.7746         estimate D2E/DX2                !
 ! D7    D(12,2,3,14)         -136.9076         estimate D2E/DX2                !
 ! D8    D(12,2,3,15)          109.2318         estimate D2E/DX2                !
 ! D9    D(2,3,4,5)            -65.4106         estimate D2E/DX2                !
 ! D10   D(2,3,4,16)            57.7992         estimate D2E/DX2                !
 ! D11   D(2,3,4,17)           171.9133         estimate D2E/DX2                !
 ! D12   D(14,3,4,5)            58.8473         estimate D2E/DX2                !
 ! D13   D(14,3,4,16)         -177.9429         estimate D2E/DX2                !
 ! D14   D(14,3,4,17)          -63.8288         estimate D2E/DX2                !
 ! D15   D(15,3,4,5)           175.2232         estimate D2E/DX2                !
 ! D16   D(15,3,4,16)          -61.567          estimate D2E/DX2                !
 ! D17   D(15,3,4,17)           52.5472         estimate D2E/DX2                !
 ! D18   D(3,4,5,6)            -62.701          estimate D2E/DX2                !
 ! D19   D(3,4,5,18)            61.0971         estimate D2E/DX2                !
 ! D20   D(3,4,5,19)           175.701          estimate D2E/DX2                !
 ! D21   D(16,4,5,6)           173.8949         estimate D2E/DX2                !
 ! D22   D(16,4,5,18)          -62.307          estimate D2E/DX2                !
 ! D23   D(16,4,5,19)           52.297          estimate D2E/DX2                !
 ! D24   D(17,4,5,6)            60.0862         estimate D2E/DX2                !
 ! D25   D(17,4,5,18)         -176.1158         estimate D2E/DX2                !
 ! D26   D(17,4,5,19)          -61.5118         estimate D2E/DX2                !
 ! D27   D(4,5,6,7)           -176.0929         estimate D2E/DX2                !
 ! D28   D(4,5,6,20)           -53.0079         estimate D2E/DX2                !
 ! D29   D(4,5,6,21)            62.7038         estimate D2E/DX2                !
 ! D30   D(18,5,6,7)            59.994          estimate D2E/DX2                !
 ! D31   D(18,5,6,20)         -176.921          estimate D2E/DX2                !
 ! D32   D(18,5,6,21)          -61.2093         estimate D2E/DX2                !
 ! D33   D(19,5,6,7)           -54.8407         estimate D2E/DX2                !
 ! D34   D(19,5,6,20)           68.2443         estimate D2E/DX2                !
 ! D35   D(19,5,6,21)         -176.044          estimate D2E/DX2                !
 ! D36   D(5,6,7,8)            179.892          estimate D2E/DX2                !
 ! D37   D(5,6,7,22)           -59.2959         estimate D2E/DX2                !
 ! D38   D(5,6,7,23)            55.3493         estimate D2E/DX2                !
 ! D39   D(20,6,7,8)            57.4799         estimate D2E/DX2                !
 ! D40   D(20,6,7,22)          178.292          estimate D2E/DX2                !
 ! D41   D(20,6,7,23)          -67.0629         estimate D2E/DX2                !
 ! D42   D(21,6,7,8)           -58.4346         estimate D2E/DX2                !
 ! D43   D(21,6,7,22)           62.3775         estimate D2E/DX2                !
 ! D44   D(21,6,7,23)          177.0226         estimate D2E/DX2                !
 ! D45   D(6,7,8,9)            -93.7083         estimate D2E/DX2                !
 ! D46   D(6,7,8,24)           146.1184         estimate D2E/DX2                !
 ! D47   D(6,7,8,25)            31.9797         estimate D2E/DX2                !
 ! D48   D(22,7,8,9)           145.7716         estimate D2E/DX2                !
 ! D49   D(22,7,8,24)           25.5983         estimate D2E/DX2                !
 ! D50   D(22,7,8,25)          -88.5404         estimate D2E/DX2                !
 ! D51   D(23,7,8,9)            31.0506         estimate D2E/DX2                !
 ! D52   D(23,7,8,24)          -89.1227         estimate D2E/DX2                !
 ! D53   D(23,7,8,25)          156.7386         estimate D2E/DX2                !
 ! D54   D(7,8,9,10)            63.3491         estimate D2E/DX2                !
 ! D55   D(7,8,9,26)          -174.7347         estimate D2E/DX2                !
 ! D56   D(7,8,9,27)           -60.2773         estimate D2E/DX2                !
 ! D57   D(24,8,9,10)         -176.076          estimate D2E/DX2                !
 ! D58   D(24,8,9,26)          -54.1598         estimate D2E/DX2                !
 ! D59   D(24,8,9,27)           60.2976         estimate D2E/DX2                !
 ! D60   D(25,8,9,10)          -62.4942         estimate D2E/DX2                !
 ! D61   D(25,8,9,26)           59.422          estimate D2E/DX2                !
 ! D62   D(25,8,9,27)          173.8794         estimate D2E/DX2                !
 ! D63   D(8,9,10,11)          172.5819         estimate D2E/DX2                !
 ! D64   D(8,9,10,28)          -66.3094         estimate D2E/DX2                !
 ! D65   D(8,9,10,29)           50.5026         estimate D2E/DX2                !
 ! D66   D(26,9,10,11)          51.0887         estimate D2E/DX2                !
 ! D67   D(26,9,10,28)         172.1974         estimate D2E/DX2                !
 ! D68   D(26,9,10,29)         -70.9907         estimate D2E/DX2                !
 ! D69   D(27,9,10,11)         -63.7879         estimate D2E/DX2                !
 ! D70   D(27,9,10,28)          57.3208         estimate D2E/DX2                !
 ! D71   D(27,9,10,29)         174.1327         estimate D2E/DX2                !
 ! D72   D(9,10,11,30)         -60.7189         estimate D2E/DX2                !
 ! D73   D(9,10,11,31)          59.6783         estimate D2E/DX2                !
 ! D74   D(9,10,11,32)         179.4757         estimate D2E/DX2                !
 ! D75   D(28,10,11,30)        177.5613         estimate D2E/DX2                !
 ! D76   D(28,10,11,31)        -62.0415         estimate D2E/DX2                !
 ! D77   D(28,10,11,32)         57.7559         estimate D2E/DX2                !
 ! D78   D(29,10,11,30)         61.6655         estimate D2E/DX2                !
 ! D79   D(29,10,11,31)       -177.9373         estimate D2E/DX2                !
 ! D80   D(29,10,11,32)        -58.1398         estimate D2E/DX2                !
 --------------------------------------------------------------------------------
 Trust Radius=3.00D-01 FncErr=1.00D-07 GrdErr=1.00D-06 EigMax=2.50D+02 EigMin=1.00D-04
 Number of steps in this run=    179 maximum allowed number of steps=    192.
 GradGradGradGradGradGradGradGradGradGradGradGradGradGradGradGradGradGrad

                          Input orientation:                          
 ---------------------------------------------------------------------
 Center     Atomic      Atomic             Coordinates (Angstroms)
 Number     Number       Type             X           Y           Z
 ---------------------------------------------------------------------
      1          8           0        5.598500    0.559500   -0.116400
      2          6           0        4.776600   -0.454100    0.228200
      3          6           0        3.386500   -0.290200   -0.387100
      4          6           0        2.446700   -1.518600   -0.263300
      5          6           0        2.891100   -2.783600   -1.030900
      6          6           0        2.960000   -2.604400   -2.559600
      7          6           0        3.313300   -3.913100   -3.293800
      8          6           0        3.390100   -3.777600   -4.830800
      9          6           0        2.092400   -4.118200   -5.594800
     10          6           0        0.894900   -3.200800   -5.290100
     11          6           0       -0.306300   -3.471600   -6.207000
     12          8           0        5.117600   -1.368400    0.965700
     13          1           0        6.421100    0.352200    0.328200
     14          1           0        3.496000    0.003400   -1.430200
     15          1           0        2.930800    0.558700    0.121100
     16          1           0        2.323000   -1.771700    0.792400
     17          1           0        1.449300   -1.235600   -0.604600
     18          1           0        3.857800   -3.125100   -0.656600
     19          1           0        2.191200   -3.588500   -0.799800
     20          1           0        2.009500   -2.211700   -2.918200
     21          1           0        3.708600   -1.850500   -2.806200
     22          1           0        4.283400   -4.253900   -2.927100
     23          1           0        2.609300   -4.702400   -3.023800
     24          1           0        4.166600   -4.454500   -5.191600
     25          1           0        3.737100   -2.780400   -5.107600
     26          1           0        2.307400   -4.074400   -6.664100
     27          1           0        1.815100   -5.154600   -5.394200
     28          1           0        0.580600   -3.338700   -4.255000
     29          1           0        1.194700   -2.156000   -5.387900
     30          1           0       -0.052700   -3.304400   -7.254500
     31          1           0       -0.657000   -4.499700   -6.108200
     32          1           0       -1.140900   -2.814000   -5.961700
 ---------------------------------------------------------------------
                    Distance matrix (angstroms):
                    1          2          3          4          5
     1  O    0.000000
     2  C    1.349687   0.000000
     3  C    2.384997   1.528998   0.000000
     4  C    3.778084   2.608288   1.551618   0.000000
     5  C    4.398027   3.250694   2.622393   1.544968   0.000000
     6  C    4.789694   3.961774   3.202683   2.591415   1.540709
     7  C    5.943245   5.148826   4.645392   3.958353   2.564125
     8  C    6.775916   6.209792   5.648756   5.182195   3.959328
     9  C    8.011647   7.384977   6.591541   5.942082   4.821645
    10  C    7.939199   7.284476   6.222465   5.523278   4.722251
    11  C    9.392116   8.738019   7.591397   6.835261   6.122803
    12  O    2.262522   1.223165   2.447303   2.943927   3.308550
    13  H    0.957765   1.834257   3.183258   4.432338   4.913379
    14  H    2.540831   2.144652   1.089151   2.186131   2.879707
    15  H    2.678251   2.108130   1.089294   2.167324   3.535484
    16  H    4.121809   2.841574   2.171887   1.092641   2.161273
    17  H    4.547151   3.517844   2.166525   1.091504   2.157967
    18  H    4.110733   2.959950   2.886419   2.174104   1.091436
    19  H    5.411343   4.191126   3.532400   2.153508   1.091390
    20  H    5.330155   4.543769   3.463345   2.778493   2.160136
    21  H    4.076131   3.506870   2.896607   2.858127   2.165796
    22  H    5.726984   4.963632   4.792384   4.236881   2.774141
    23  H    6.713858   5.772413   5.198436   4.217035   2.780801
    24  H    7.276551   6.763840   6.405714   5.988798   4.661570
    25  H    6.287433   5.912951   5.348564   5.169576   4.163557
    26  H    8.670452   8.167455   7.408465   6.893603   5.808598
    27  H    8.649869   7.904212   7.155609   6.320249   5.081122
    28  H    7.583093   6.784277   5.668075   4.767469   4.005168
    29  H    7.386211   6.875104   5.770026   5.313691   4.717532
    30  H    9.890311   9.350783   8.250738   7.636292   6.904375
    31  H   10.031373   9.275821   8.173174   7.258290   6.427518
    32  H    9.537691   8.882612   7.612035   6.857164   6.369516
                    6          7          8          9         10
     6  C    0.000000
     7  C    1.541612   0.000000
     8  C    2.592245   1.544871   0.000000
     9  C    3.500965   2.612903   1.543933   0.000000
    10  C    3.475048   3.215780   2.601860   1.538984   0.000000
    11  C    4.972351   4.667243   3.956126   2.558641   1.535226
    12  O    4.314009   5.279615   6.510600   7.730032   7.766847
    13  H    5.390741   6.400788   7.270316   8.590928   8.644535
    14  H    2.891965   4.341124   5.086379   6.025079   5.650792
    15  H    4.146349   5.639578   6.598164   7.432888   6.896362
    16  H    3.512131   4.718402   6.064876   6.808492   6.409259
    17  H    2.824509   4.227919   5.299928   5.798712   5.111094
    18  H    2.167621   2.805753   4.250699   5.337481   5.500348
    19  H    2.157870   2.753999   4.209760   4.825181   4.689723
    20  H    1.089154   2.176174   2.831278   3.287218   2.801171
    21  H    1.090678   2.156000   2.813212   3.940921   3.988731
    22  H    2.146461   1.091654   2.156135   3.454782   4.263182
    23  H    2.177172   1.091563   2.174891   2.686730   3.214045
    24  H    3.436012   2.150088   1.091477   2.139620   3.505066
    25  H    2.669675   2.180020   1.091529   2.175342   2.878914
    26  H    4.408368   3.520905   2.149725   1.091580   2.155507
    27  H    3.981115   2.863146   2.166604   1.091449   2.162161
    28  H    3.012494   2.953217   2.901287   2.165231   1.090520
    29  H    3.364020   3.458485   2.785629   2.167695   1.091353
    30  H    5.622139   5.233318   4.236875   2.831665   2.183471
    31  H    5.409937   4.901860   4.304904   2.822822   2.182847
    32  H    5.332504   5.307128   4.768377   3.505679   2.178335
                   11         12         13         14         15
    11  C    0.000000
    12  O    9.235246   0.000000
    13  H   10.128583   2.250774   0.000000
    14  H    7.025022   3.201837   3.430720   0.000000
    15  H    8.171107   3.034659   3.502531   1.741936   0.000000
    16  H    7.667756   2.828864   4.639058   3.076826   2.500166
    17  H    6.282413   3.992481   5.301888   2.530952   2.437416
    18  H    6.947426   2.702767   4.430796   3.242972   3.877438
    19  H    5.957263   4.075494   5.890123   3.873197   4.312115
    20  H    4.215031   5.045406   6.047719   3.054586   4.214410
    21  H    5.505709   4.055235   4.694040   2.318517   3.870181
    22  H    5.695181   4.916899   6.031824   4.580973   5.855098
    23  H    4.488692   5.772628   7.163428   5.046816   6.137828
    24  H    4.690838   6.952752   7.658677   5.871176   7.408384
    25  H    4.246825   6.386274   6.823852   4.618543   6.256118
    26  H    2.720981   8.569335   9.241730   6.740544   8.239732
    27  H    2.827273   8.104946   9.180738   6.718905   8.019047
    28  H    2.148152   7.191812   8.290953   5.258202   6.313748
    29  H    2.157482   7.508508   8.141261   5.061855   6.382219
    30  H    1.090653   9.902110  10.619706   7.580058   8.844450
    31  H    1.090753   9.653554  10.726960   7.707724   8.789989
    32  H    1.090489   9.447087  10.333030   7.069164   8.059423
                   16         17         18         19         20
    16  H    0.000000
    17  H    1.732733   0.000000
    18  H    2.507370   3.061664   0.000000
    19  H    2.419346   2.474804   1.735742   0.000000
    20  H    3.749725   2.572808   3.060285   2.533024   0.000000
    21  H    3.856944   3.213967   2.503527   3.057579   1.740675
    22  H    4.882537   4.747238   2.571088   3.057035   3.056351
    23  H    4.820203   4.383701   3.106487   2.522252   2.564078
    24  H    6.812087   6.227809   4.735915   4.892859   3.853775
    25  H    6.150378   5.281803   4.465959   4.647577   2.846312
    26  H    7.803977   6.746307   6.276541   5.885543   4.194063
    27  H    7.069370   6.199406   5.544037   4.868535   3.850848
    28  H    5.564862   4.301522   4.871770   3.820319   2.258078
    29  H    6.294192   4.877696   5.515112   4.908740   2.601234
    30  H    8.529110   7.124402   7.671795   6.839514   4.924445
    31  H    7.996291   6.736502   7.210609   6.092753   4.745658
    32  H    7.661779   6.156217   7.295743   6.192572   4.421615
                   21         22         23         24         25
    21  H    0.000000
    22  H    2.474135   0.000000
    23  H    3.064171   1.735832   0.000000
    24  H    3.560999   2.276366   2.680671   0.000000
    25  H    2.482331   2.687792   3.050941   1.730357   0.000000
    26  H    4.668242   4.231071   3.706388   2.401949   2.478138
    27  H    4.604363   3.604213   2.540479   2.461857   3.068069
    28  H    3.754750   4.038767   2.736997   3.870610   3.316944
    29  H    3.616379   4.471777   3.751562   3.762157   2.632915
    30  H    6.004047   6.199170   5.190325   4.835368   4.387065
    31  H    6.081112   5.881103   4.497035   4.910124   4.823412
    32  H    5.865421   6.380058   5.124579   5.608373   4.952323
                   26         27         28         29         30
    26  H    0.000000
    27  H    1.738343   0.000000
    28  H    3.053990   2.473714   0.000000
    29  H    2.558720   3.062113   1.749103   0.000000
    30  H    2.551773   3.220657   3.065819   2.521711   0.000000
    31  H    3.045911   2.655178   2.512752   3.072549   1.762931
    32  H    3.738014   3.812925   2.480262   2.493439   1.759546
                   31         32
    31  H    0.000000
    32  H    1.759888   0.000000
 Stoichiometry    C10H20O2
 Framework group  C1[X(C10H20O2)]
 Deg. of freedom    90
 Full point group                 C1      NOp   1
 Largest Abelian subgroup         C1      NOp   1
 Largest concise Abelian subgroup C1      NOp   1
                         Standard orientation:                         
 ---------------------------------------------------------------------
 Center     Atomic      Atomic             Coordinates (Angstroms)
 Number     Number       Type             X           Y           Z
 ---------------------------------------------------------------------
      1          8           0        4.205844   -0.329843   -1.524138
      2          6           0        3.665054   -0.022794   -0.326257
      3          6           0        2.621621    1.088599   -0.444106
      4          6           0        1.762759    1.342394    0.822962
      5          6           0        0.824291    0.188085    1.239824
      6          6           0       -0.259535   -0.153215    0.199334
      7          6           0       -1.232243   -1.242499    0.693163
      8          6           0       -2.337681   -1.612969   -0.320437
      9          6           0       -3.671308   -0.852030   -0.158753
     10          6           0       -3.586320    0.668993   -0.377239
     11          6           0       -4.965239    1.343876   -0.383203
     12          8           0        4.003540   -0.564017    0.717120
     13          1           0        4.838761   -1.019862   -1.322633
     14          1           0        1.984051    0.882789   -1.302823
     15          1           0        3.174194    1.995488   -0.686544
     16          1           0        2.421049    1.582265    1.661401
     17          1           0        1.163152    2.241288    0.668553
     18          1           0        1.410542   -0.704177    1.466562
     19          1           0        0.340133    0.461875    2.178846
     20          1           0       -0.804197    0.753007   -0.062128
     21          1           0        0.212870   -0.496019   -0.722022
     22          1           0       -0.650068   -2.139147    0.914074
     23          1           0       -1.681245   -0.948589    1.643702
     24          1           0       -2.555252   -2.676802   -0.209778
     25          1           0       -1.967614   -1.507558   -1.341894
     26          1           0       -4.388334   -1.270805   -0.867306
     27          1           0       -4.085824   -1.053346    0.830645
     28          1           0       -2.981604    1.119958    0.410277
     29          1           0       -3.077776    0.879759   -1.319583
     30          1           0       -5.594739    0.955279   -1.184606
     31          1           0       -5.489052    1.184457    0.560167
     32          1           0       -4.872508    2.420385   -0.530503
 ---------------------------------------------------------------------
 Rotational constants (GHZ):           1.7784200           0.2751858           0.2665406
 Standard basis: 6-31G(d,p) (6D, 7F)
 There are   280 symmetry adapted cartesian basis functions of A   symmetry.
 There are   280 symmetry adapted basis functions of A   symmetry.
   280 basis functions,   476 primitive gaussians,   280 cartesian basis functions
    48 alpha electrons       48 beta electrons
       nuclear repulsion energy       706.9841993336 Hartrees.
 NAtoms=   32 NActive=   32 NUniq=   32 SFac= 1.00D+00 NAtFMM=   60 NAOKFM=F Big=F
 Integral buffers will be    131072 words long.
 Raffenetti 2 integral format.
 Two-electron integral symmetry is turned on.
 Nuclear repulsion after empirical dispersion term =      706.9365368266 Hartrees.
 One-electron integrals computed using PRISM.
 NBasis=   280 RedAO= T EigKep=  3.22D-03  NBF=   280
 NBsUse=   280 1.00D-06 EigRej= -1.00D+00 NBFU=   280
 ExpMin= 1.61D-01 ExpMax= 5.48D+03 ExpMxC= 8.25D+02 IAcc=3 IRadAn=         5 AccDes= 0.00D+00
 Harris functional with IExCor=  402 and IRadAn=       5 diagonalized for initial guess.
 HarFok:  IExCor=  402 AccDes= 0.00D+00 IRadAn=         5 IDoV= 1 UseB2=F ITyADJ=14
 ICtDFT=  3500011 ScaDFX=  1.000000  1.000000  1.000000  1.000000
 FoFCou: FMM=F IPFlag=           0 FMFlag=      100000 FMFlg1=           0
         NFxFlg=           0 DoJE=T BraDBF=F KetDBF=T FulRan=T
         wScrn=  0.000000 ICntrl=       500 IOpCl=  0 I1Cent=   200000004 NGrid=           0
         NMat0=    1 NMatS0=      1 NMatT0=    0 NMatD0=    1 NMtDS0=    0 NMtDT0=    0
 Petite list used in FoFCou.
 Requested convergence on RMS density matrix=1.00D-08 within 128 cycles.
 Requested convergence on MAX density matrix=1.00D-06.
 Requested convergence on             energy=1.00D-06.
 No special actions if energy rises.
 Integral accuracy reduced to 1.0D-05 until final iterations.
 Initial convergence to 1.0D-05 achieved.  Increase integral accuracy.
 SCF Done:  E(RB3LYP) =  -543.663216762     A.U. after   13 cycles
            NFock= 13  Conv=0.82D-08     -V/T= 2.0096

 **********************************************************************

            Population analysis using the SCF Density.

 **********************************************************************

 Orbital symmetries:
       Occupied  (A) (A) (A) (A) (A) (A) (A) (A) (A) (A) (A) (A)
                 (A) (A) (A) (A) (A) (A) (A) (A) (A) (A) (A) (A)
                 (A) (A) (A) (A) (A) (A) (A) (A) (A) (A) (A) (A)
                 (A) (A) (A) (A) (A) (A) (A) (A) (A) (A) (A) (A)
       Virtual   (A) (A) (A) (A) (A) (A) (A) (A) (A) (A) (A) (A)
                 (A) (A) (A) (A) (A) (A) (A) (A) (A) (A) (A) (A)
                 (A) (A) (A) (A) (A) (A) (A) (A) (A) (A) (A) (A)
                 (A) (A) (A) (A) (A) (A) (A) (A) (A) (A) (A) (A)
                 (A) (A) (A) (A) (A) (A) (A) (A) (A) (A) (A) (A)
                 (A) (A) (A) (A) (A) (A) (A) (A) (A) (A) (A) (A)
                 (A) (A) (A) (A) (A) (A) (A) (A) (A) (A) (A) (A)
                 (A) (A) (A) (A) (A) (A) (A) (A) (A) (A) (A) (A)
                 (A) (A) (A) (A) (A) (A) (A) (A) (A) (A) (A) (A)
                 (A) (A) (A) (A) (A) (A) (A) (A) (A) (A) (A) (A)
                 (A) (A) (A) (A) (A) (A) (A) (A) (A) (A) (A) (A)
                 (A) (A) (A) (A) (A) (A) (A) (A) (A) (A) (A) (A)
                 (A) (A) (A) (A) (A) (A) (A) (A) (A) (A) (A) (A)
                 (A) (A) (A) (A) (A) (A) (A) (A) (A) (A) (A) (A)
                 (A) (A) (A) (A) (A) (A) (A) (A) (A) (A) (A) (A)
                 (A) (A) (A) (A) (A) (A) (A) (A) (A) (A) (A) (A)
                 (A) (A) (A) (A) (A) (A) (A) (A) (A) (A) (A) (A)
                 (A) (A) (A) (A) (A) (A) (A) (A) (A) (A) (A) (A)
                 (A) (A) (A) (A) (A) (A) (A) (A) (A) (A) (A) (A)
                 (A) (A) (A) (A)
 The electronic state is 1-A.
 Alpha  occ. eigenvalues --  -19.19938 -19.13893 -10.32231 -10.20079 -10.18534
 Alpha  occ. eigenvalues --  -10.17559 -10.17391 -10.17380 -10.17364 -10.17350
 Alpha  occ. eigenvalues --  -10.17308 -10.16940  -1.10881  -1.01167  -0.80881
 Alpha  occ. eigenvalues --   -0.79282  -0.76331  -0.72886  -0.68843  -0.64560
 Alpha  occ. eigenvalues --   -0.61254  -0.58786  -0.56303  -0.55859  -0.49180
 Alpha  occ. eigenvalues --   -0.47973  -0.47724  -0.46799  -0.45176  -0.43498
 Alpha  occ. eigenvalues --   -0.42389  -0.41868  -0.40453  -0.39681  -0.39360
 Alpha  occ. eigenvalues --   -0.37672  -0.36843  -0.36148  -0.35346  -0.34034
 Alpha  occ. eigenvalues --   -0.33476  -0.32493  -0.32071  -0.31826  -0.31609
 Alpha  occ. eigenvalues --   -0.30168  -0.29629  -0.27251
 Alpha virt. eigenvalues --    0.00879   0.08178   0.08600   0.09624   0.11042
 Alpha virt. eigenvalues --    0.11534   0.12817   0.13642   0.14107   0.15599
 Alpha virt. eigenvalues --    0.16188   0.16373   0.17187   0.18181   0.18619
 Alpha virt. eigenvalues --    0.19006   0.19339   0.19781   0.20109   0.21926
 Alpha virt. eigenvalues --    0.22610   0.22739   0.23299   0.23770   0.24560
 Alpha virt. eigenvalues --    0.25470   0.26524   0.28359   0.29092   0.30642
 Alpha virt. eigenvalues --    0.31214   0.36426   0.48661   0.50090   0.50417
 Alpha virt. eigenvalues --    0.51816   0.52721   0.53239   0.54596   0.54945
 Alpha virt. eigenvalues --    0.57036   0.58152   0.58602   0.61329   0.62825
 Alpha virt. eigenvalues --    0.63644   0.64409   0.65332   0.66137   0.67366
 Alpha virt. eigenvalues --    0.68152   0.70540   0.71261   0.72192   0.74547
 Alpha virt. eigenvalues --    0.74897   0.77545   0.78263   0.79283   0.81178
 Alpha virt. eigenvalues --    0.83590   0.84236   0.84771   0.86311   0.86407
 Alpha virt. eigenvalues --    0.87589   0.88368   0.89515   0.89874   0.90287
 Alpha virt. eigenvalues --    0.90759   0.91362   0.92140   0.93518   0.93790
 Alpha virt. eigenvalues --    0.94036   0.94696   0.95409   0.96476   0.96982
 Alpha virt. eigenvalues --    0.98152   0.98657   0.99507   1.01716   1.02845
 Alpha virt. eigenvalues --    1.05147   1.09003   1.11484   1.12578   1.16893
 Alpha virt. eigenvalues --    1.18222   1.27710   1.29529   1.33173   1.36231
 Alpha virt. eigenvalues --    1.37906   1.38199   1.40863   1.44233   1.46045
 Alpha virt. eigenvalues --    1.48260   1.52574   1.55054   1.56111   1.57470
 Alpha virt. eigenvalues --    1.60441   1.62701   1.64100   1.66094   1.66674
 Alpha virt. eigenvalues --    1.69406   1.70728   1.72068   1.73811   1.74802
 Alpha virt. eigenvalues --    1.76328   1.77727   1.79167   1.81840   1.83384
 Alpha virt. eigenvalues --    1.84882   1.86189   1.87325   1.88297   1.88773
 Alpha virt. eigenvalues --    1.90226   1.90943   1.91954   1.92942   1.96257
 Alpha virt. eigenvalues --    1.97940   2.01344   2.03499   2.05711   2.07323
 Alpha virt. eigenvalues --    2.07837   2.11932   2.12411   2.12784   2.14698
 Alpha virt. eigenvalues --    2.15025   2.15339   2.18114   2.19218   2.22241
 Alpha virt. eigenvalues --    2.22543   2.23098   2.24010   2.25449   2.26242
 Alpha virt. eigenvalues --    2.26931   2.29433   2.30085   2.30364   2.32662
 Alpha virt. eigenvalues --    2.33452   2.36329   2.36932   2.40056   2.41787
 Alpha virt. eigenvalues --    2.43061   2.44138   2.45527   2.48801   2.49560
 Alpha virt. eigenvalues --    2.51941   2.53425   2.55621   2.57171   2.58614
 Alpha virt. eigenvalues --    2.60561   2.61886   2.63305   2.64936   2.65735
 Alpha virt. eigenvalues --    2.67814   2.70699   2.72191   2.73323   2.75002
 Alpha virt. eigenvalues --    2.77290   2.77854   2.79579   2.81238   2.81830
 Alpha virt. eigenvalues --    2.84110   2.85730   2.86791   2.87049   2.89991
 Alpha virt. eigenvalues --    2.90814   2.91358   2.91766   2.91930   2.93147
 Alpha virt. eigenvalues --    2.93672   2.95064   2.98068   3.01171   3.14932
 Alpha virt. eigenvalues --    3.19637   3.25577   3.28654   3.31011   3.32421
 Alpha virt. eigenvalues --    3.32705   3.34055   3.36162   3.37857   3.38474
 Alpha virt. eigenvalues --    3.41377   3.44709   3.45412   3.48116   3.49709
 Alpha virt. eigenvalues --    3.52403   3.55207   3.58040   3.59183   3.61509
 Alpha virt. eigenvalues --    3.92636   4.14190   4.24970   4.27633   4.32545
 Alpha virt. eigenvalues --    4.44688   4.51449   4.58508   4.62807   4.66419
 Alpha virt. eigenvalues --    4.72985   4.76131
          Condensed to atoms (all electrons):
               1          2          3          4          5          6
     1  O    8.112669   0.257874  -0.094465   0.002619  -0.000050   0.000003
     2  C    0.257874   4.381856   0.323893  -0.033646  -0.002702  -0.000721
     3  C   -0.094465   0.323893   5.141617   0.344913  -0.039319  -0.004759
     4  C    0.002619  -0.033646   0.344913   4.914775   0.367690  -0.039768
     5  C   -0.000050  -0.002702  -0.039319   0.367690   4.917468   0.370507
     6  C    0.000003  -0.000721  -0.004759  -0.039768   0.370507   4.910555
     7  C    0.000000  -0.000000   0.000135   0.003538  -0.035537   0.381176
     8  C    0.000000  -0.000000   0.000002  -0.000131   0.003584  -0.034395
     9  C   -0.000000   0.000000  -0.000000   0.000001  -0.000019  -0.001348
    10  C    0.000000  -0.000000   0.000000  -0.000000  -0.000049  -0.001151
    11  C    0.000000  -0.000000  -0.000000  -0.000000  -0.000001   0.000099
    12  O   -0.080330   0.564598  -0.084466   0.005098  -0.004434   0.000023
    13  H    0.267667  -0.009411   0.011285  -0.000319   0.000013  -0.000001
    14  H    0.003300  -0.026472   0.365200  -0.036186  -0.005602   0.003602
    15  H    0.001793  -0.026597   0.366880  -0.027193   0.003827   0.000104
    16  H    0.000091  -0.006141  -0.036136   0.377170  -0.027576   0.004343
    17  H   -0.000048   0.004773  -0.031678   0.372801  -0.039353  -0.007135
    18  H   -0.000032   0.004545  -0.009010  -0.034913   0.383732  -0.039021
    19  H   -0.000000   0.000012   0.004875  -0.032370   0.378274  -0.041128
    20  H   -0.000000   0.000046  -0.000773  -0.002673  -0.040186   0.382911
    21  H   -0.000036   0.000573   0.001749  -0.004720  -0.038210   0.380444
    22  H    0.000000  -0.000001  -0.000012   0.000075  -0.003818  -0.039616
    23  H   -0.000000  -0.000000   0.000003   0.000039  -0.003757  -0.040442
    24  H    0.000000   0.000000   0.000000   0.000002  -0.000163   0.004102
    25  H   -0.000000   0.000000  -0.000004  -0.000001   0.000225  -0.008820
    26  H   -0.000000  -0.000000   0.000000  -0.000000   0.000002  -0.000116
    27  H   -0.000000   0.000000  -0.000000  -0.000000   0.000008  -0.000110
    28  H   -0.000000  -0.000000   0.000000  -0.000015   0.000147  -0.002960
    29  H    0.000000   0.000000  -0.000000  -0.000000   0.000012  -0.000168
    30  H   -0.000000  -0.000000   0.000000  -0.000000   0.000000  -0.000004
    31  H    0.000000  -0.000000   0.000000   0.000000   0.000000  -0.000001
    32  H    0.000000  -0.000000  -0.000000   0.000000  -0.000000   0.000003
               7          8          9         10         11         12
     1  O    0.000000   0.000000  -0.000000   0.000000   0.000000  -0.080330
     2  C   -0.000000  -0.000000   0.000000  -0.000000  -0.000000   0.564598
     3  C    0.000135   0.000002  -0.000000   0.000000  -0.000000  -0.084466
     4  C    0.003538  -0.000131   0.000001  -0.000000  -0.000000   0.005098
     5  C   -0.035537   0.003584  -0.000019  -0.000049  -0.000001  -0.004434
     6  C    0.381176  -0.034395  -0.001348  -0.001151   0.000099   0.000023
     7  C    4.905178   0.359452  -0.037500  -0.002459  -0.000019   0.000001
     8  C    0.359452   4.925984   0.376776  -0.042239   0.004111   0.000000
     9  C   -0.037500   0.376776   4.880678   0.385728  -0.041236   0.000000
    10  C   -0.002459  -0.042239   0.385728   4.868743   0.368221  -0.000000
    11  C   -0.000019   0.004111  -0.041236   0.368221   4.923950  -0.000000
    12  O    0.000001   0.000000   0.000000  -0.000000  -0.000000   8.045280
    13  H   -0.000000  -0.000000  -0.000000  -0.000000   0.000000   0.011346
    14  H   -0.000156   0.000007   0.000000  -0.000000   0.000000   0.002069
    15  H   -0.000001  -0.000000   0.000000   0.000000  -0.000000   0.000334
    16  H   -0.000128   0.000002   0.000000  -0.000000   0.000000   0.004629
    17  H    0.000050  -0.000000  -0.000000  -0.000005   0.000000   0.000223
    18  H   -0.003009   0.000008  -0.000002  -0.000001   0.000000   0.007474
    19  H   -0.004537   0.000053  -0.000002   0.000008  -0.000000   0.000061
    20  H   -0.041995  -0.001463  -0.000037   0.001491  -0.000021  -0.000003
    21  H   -0.036404  -0.005128  -0.000049   0.000024  -0.000005   0.000047
    22  H    0.379786  -0.032756   0.003960   0.000037   0.000001  -0.000004
    23  H    0.384645  -0.042916  -0.007462  -0.000650  -0.000080   0.000000
    24  H   -0.032803   0.370393  -0.032702   0.005156  -0.000163  -0.000000
    25  H   -0.043675   0.382707  -0.036800  -0.007242   0.000037  -0.000000
    26  H    0.004881  -0.034099   0.379443  -0.043108  -0.005323   0.000000
    27  H   -0.007582  -0.036390   0.381441  -0.040585  -0.002936  -0.000000
    28  H    0.004237  -0.004033  -0.036707   0.387516  -0.038536   0.000000
    29  H   -0.001413  -0.003178  -0.040804   0.387611  -0.039158  -0.000000
    30  H    0.000006  -0.000008  -0.005155  -0.033916   0.386271   0.000000
    31  H   -0.000010   0.000057  -0.004524  -0.033950   0.386302   0.000000
    32  H    0.000004  -0.000165   0.004174  -0.028032   0.379203  -0.000000
              13         14         15         16         17         18
     1  O    0.267667   0.003300   0.001793   0.000091  -0.000048  -0.000032
     2  C   -0.009411  -0.026472  -0.026597  -0.006141   0.004773   0.004545
     3  C    0.011285   0.365200   0.366880  -0.036136  -0.031678  -0.009010
     4  C   -0.000319  -0.036186  -0.027193   0.377170   0.372801  -0.034913
     5  C    0.000013  -0.005602   0.003827  -0.027576  -0.039353   0.383732
     6  C   -0.000001   0.003602   0.000104   0.004343  -0.007135  -0.039021
     7  C   -0.000000  -0.000156  -0.000001  -0.000128   0.000050  -0.003009
     8  C   -0.000000   0.000007  -0.000000   0.000002  -0.000000   0.000008
     9  C   -0.000000   0.000000   0.000000   0.000000  -0.000000  -0.000002
    10  C   -0.000000  -0.000000   0.000000  -0.000000  -0.000005  -0.000001
    11  C    0.000000   0.000000  -0.000000   0.000000   0.000000   0.000000
    12  O    0.011346   0.002069   0.000334   0.004629   0.000223   0.007474
    13  H    0.401380  -0.000413  -0.000385  -0.000008   0.000004   0.000007
    14  H   -0.000413   0.584999  -0.027633   0.005263  -0.002512  -0.000137
    15  H   -0.000385  -0.027633   0.579374  -0.002593  -0.003621   0.000066
    16  H   -0.000008   0.005263  -0.002593   0.618099  -0.038724  -0.003290
    17  H    0.000004  -0.002512  -0.003621  -0.038724   0.646723   0.005848
    18  H    0.000007  -0.000137   0.000066  -0.003290   0.005848   0.605741
    19  H   -0.000000   0.000006  -0.000137  -0.004119  -0.003597  -0.037078
    20  H    0.000000   0.000507  -0.000046   0.000026   0.005452   0.005732
    21  H   -0.000001   0.002169  -0.000036  -0.000060  -0.000232  -0.006049
    22  H    0.000000   0.000011  -0.000000   0.000004   0.000008   0.004883
    23  H   -0.000000   0.000001   0.000000  -0.000005   0.000003  -0.000551
    24  H    0.000000  -0.000000   0.000000  -0.000000   0.000000  -0.000002
    25  H   -0.000000   0.000003   0.000000   0.000000   0.000000   0.000005
    26  H    0.000000   0.000000   0.000000   0.000000   0.000000  -0.000000
    27  H    0.000000   0.000000  -0.000000   0.000000  -0.000000   0.000000
    28  H   -0.000000  -0.000000  -0.000000   0.000000   0.000001  -0.000003
    29  H   -0.000000   0.000000  -0.000000   0.000000  -0.000001  -0.000000
    30  H   -0.000000  -0.000000   0.000000   0.000000  -0.000000  -0.000000
    31  H   -0.000000  -0.000000   0.000000   0.000000  -0.000000  -0.000000
    32  H    0.000000   0.000000   0.000000   0.000000   0.000000  -0.000000
              19         20         21         22         23         24
     1  O   -0.000000  -0.000000  -0.000036   0.000000  -0.000000   0.000000
     2  C    0.000012   0.000046   0.000573  -0.000001  -0.000000   0.000000
     3  C    0.004875  -0.000773   0.001749  -0.000012   0.000003   0.000000
     4  C   -0.032370  -0.002673  -0.004720   0.000075   0.000039   0.000002
     5  C    0.378274  -0.040186  -0.038210  -0.003818  -0.003757  -0.000163
     6  C   -0.041128   0.382911   0.380444  -0.039616  -0.040442   0.004102
     7  C   -0.004537  -0.041995  -0.036404   0.379786   0.384645  -0.032803
     8  C    0.000053  -0.001463  -0.005128  -0.032756  -0.042916   0.370393
     9  C   -0.000002  -0.000037  -0.000049   0.003960  -0.007462  -0.032702
    10  C    0.000008   0.001491   0.000024   0.000037  -0.000650   0.005156
    11  C   -0.000000  -0.000021  -0.000005   0.000001  -0.000080  -0.000163
    12  O    0.000061  -0.000003   0.000047  -0.000004   0.000000  -0.000000
    13  H   -0.000000   0.000000  -0.000001   0.000000  -0.000000   0.000000
    14  H    0.000006   0.000507   0.002169   0.000011   0.000001  -0.000000
    15  H   -0.000137  -0.000046  -0.000036  -0.000000   0.000000   0.000000
    16  H   -0.004119   0.000026  -0.000060   0.000004  -0.000005  -0.000000
    17  H   -0.003597   0.005452  -0.000232   0.000008   0.000003   0.000000
    18  H   -0.037078   0.005732  -0.006049   0.004883  -0.000551  -0.000002
    19  H    0.644835  -0.005547   0.006161  -0.000674   0.005551   0.000002
    20  H   -0.005547   0.642114  -0.043407   0.006285  -0.005366  -0.000035
    21  H    0.006161  -0.043407   0.650561  -0.006833   0.005955   0.000147
    22  H   -0.000674   0.006285  -0.006833   0.646010  -0.040285  -0.009893
    23  H    0.005551  -0.005366   0.005955  -0.040285   0.642463   0.001391
    24  H    0.000002  -0.000035   0.000147  -0.009893   0.001391   0.656275
    25  H    0.000012   0.000417   0.005245   0.001243   0.005476  -0.039940
    26  H    0.000000  -0.000057   0.000014  -0.000220   0.000180  -0.004226
    27  H   -0.000004   0.000112   0.000007   0.000112   0.004894  -0.004376
    28  H    0.000090   0.002505   0.000076  -0.000063   0.001102  -0.000067
    29  H    0.000001   0.001862   0.000088  -0.000011   0.000181   0.000006
    30  H    0.000000   0.000004   0.000000   0.000000   0.000000  -0.000006
    31  H   -0.000000   0.000005   0.000000  -0.000000   0.000002   0.000003
    32  H    0.000000  -0.000008   0.000000  -0.000000   0.000002   0.000003
              25         26         27         28         29         30
     1  O   -0.000000  -0.000000  -0.000000  -0.000000   0.000000  -0.000000
     2  C    0.000000  -0.000000   0.000000  -0.000000   0.000000  -0.000000
     3  C   -0.000004   0.000000  -0.000000   0.000000  -0.000000   0.000000
     4  C   -0.000001  -0.000000  -0.000000  -0.000015  -0.000000  -0.000000
     5  C    0.000225   0.000002   0.000008   0.000147   0.000012   0.000000
     6  C   -0.008820  -0.000116  -0.000110  -0.002960  -0.000168  -0.000004
     7  C   -0.043675   0.004881  -0.007582   0.004237  -0.001413   0.000006
     8  C    0.382707  -0.034099  -0.036390  -0.004033  -0.003178  -0.000008
     9  C   -0.036800   0.379443   0.381441  -0.036707  -0.040804  -0.005155
    10  C   -0.007242  -0.043108  -0.040585   0.387516   0.387611  -0.033916
    11  C    0.000037  -0.005323  -0.002936  -0.038536  -0.039158   0.386271
    12  O   -0.000000   0.000000  -0.000000   0.000000  -0.000000   0.000000
    13  H   -0.000000   0.000000   0.000000  -0.000000  -0.000000  -0.000000
    14  H    0.000003   0.000000   0.000000  -0.000000   0.000000  -0.000000
    15  H    0.000000   0.000000  -0.000000  -0.000000  -0.000000   0.000000
    16  H    0.000000   0.000000   0.000000   0.000000   0.000000   0.000000
    17  H    0.000000   0.000000  -0.000000   0.000001  -0.000001  -0.000000
    18  H    0.000005  -0.000000   0.000000  -0.000003  -0.000000  -0.000000
    19  H    0.000012   0.000000  -0.000004   0.000090   0.000001   0.000000
    20  H    0.000417  -0.000057   0.000112   0.002505   0.001862   0.000004
    21  H    0.005245   0.000014   0.000007   0.000076   0.000088   0.000000
    22  H    0.001243  -0.000220   0.000112  -0.000063  -0.000011   0.000000
    23  H    0.005476   0.000180   0.004894   0.001102   0.000181   0.000000
    24  H   -0.039940  -0.004226  -0.004376  -0.000067   0.000006  -0.000006
    25  H    0.646182  -0.003974   0.005962  -0.000264   0.005200  -0.000002
    26  H   -0.003974   0.654481  -0.040876   0.006260  -0.004694   0.005583
    27  H    0.005962  -0.040876   0.648413  -0.007497   0.006265  -0.000436
    28  H   -0.000264   0.006260  -0.007497   0.636186  -0.043468   0.005420
    29  H    0.005200  -0.004694   0.006265  -0.043468   0.643379  -0.005089
    30  H   -0.000002   0.005583  -0.000436   0.005420  -0.005089   0.611194
    31  H    0.000007  -0.000468   0.004492  -0.005289   0.005512  -0.033470
    32  H   -0.000001   0.000054  -0.000076  -0.002976  -0.003087  -0.032676
              31         32
     1  O    0.000000   0.000000
     2  C   -0.000000  -0.000000
     3  C    0.000000  -0.000000
     4  C    0.000000   0.000000
     5  C    0.000000  -0.000000
     6  C   -0.000001   0.000003
     7  C   -0.000010   0.000004
     8  C    0.000057  -0.000165
     9  C   -0.004524   0.004174
    10  C   -0.033950  -0.028032
    11  C    0.386302   0.379203
    12  O    0.000000  -0.000000
    13  H   -0.000000   0.000000
    14  H   -0.000000   0.000000
    15  H    0.000000   0.000000
    16  H    0.000000   0.000000
    17  H   -0.000000   0.000000
    18  H   -0.000000  -0.000000
    19  H   -0.000000   0.000000
    20  H    0.000005  -0.000008
    21  H    0.000000   0.000000
    22  H   -0.000000  -0.000000
    23  H    0.000002   0.000002
    24  H    0.000003   0.000003
    25  H    0.000007  -0.000001
    26  H   -0.000468   0.000054
    27  H    0.004492  -0.000076
    28  H   -0.005289  -0.002976
    29  H    0.005512  -0.003087
    30  H   -0.033470  -0.032676
    31  H    0.611627  -0.032594
    32  H   -0.032594   0.618061
 Mulliken charges:
               1
     1  O   -0.471056
     2  C    0.567522
     3  C   -0.259933
     4  C   -0.176784
     5  C   -0.184713
     6  C   -0.176208
     7  C   -0.175860
     8  C   -0.186235
     9  C   -0.167854
    10  C   -0.171147
    11  C   -0.320716
    12  O   -0.471947
    13  H    0.318836
    14  H    0.131974
    15  H    0.135864
    16  H    0.109155
    17  H    0.091021
    18  H    0.115058
    19  H    0.089252
    20  H    0.092149
    21  H    0.087912
    22  H    0.091773
    23  H    0.089625
    24  H    0.086898
    25  H    0.088002
    26  H    0.086263
    27  H    0.089162
    28  H    0.098338
    29  H    0.090954
    30  H    0.102282
    31  H    0.102300
    32  H    0.098111
 Sum of Mulliken charges =  -0.00000
 Mulliken charges with hydrogens summed into heavy atoms:
               1
     1  O   -0.152220
     2  C    0.567522
     3  C    0.007906
     4  C    0.023392
     5  C    0.019598
     6  C    0.003853
     7  C    0.005538
     8  C   -0.011336
     9  C    0.007572
    10  C    0.018145
    11  C   -0.018023
    12  O   -0.471947
 Electronic spatial extent (au):  <R**2>=           4237.4805
 Charge=             -0.0000 electrons
 Dipole moment (field-independent basis, Debye):
    X=             -0.3580    Y=              0.4972    Z=             -1.2131  Tot=              1.3590
 Quadrupole moment (field-independent basis, Debye-Ang):
   XX=            -76.4459   YY=            -73.8803   ZZ=            -78.4825
   XY=              0.4918   XZ=             -6.4030   YZ=              2.2069
 Traceless Quadrupole moment (field-independent basis, Debye-Ang):
   XX=             -0.1763   YY=              2.3893   ZZ=             -2.2130
   XY=              0.4918   XZ=             -6.4030   YZ=              2.2069
 Octapole moment (field-independent basis, Debye-Ang**2):
  XXX=             61.8691  YYY=             -3.5211  ZZZ=             -0.3462  XYY=             22.8686
  XXY=            -10.3702  XXZ=            -31.7990  XZZ=              1.0253  YZZ=             -1.4811
  YYZ=             -4.3323  XYZ=             10.6359
 Hexadecapole moment (field-independent basis, Debye-Ang**3):
 XXXX=          -4400.2319 YYYY=           -582.3942 ZZZZ=           -391.8121 XXXY=            -67.5955
 XXXZ=           -178.6230 YYYX=            -18.5301 YYYZ=              1.7486 ZZZX=             -7.0603
 ZZZY=              6.1319 XXYY=           -817.2470 XXZZ=           -846.3672 YYZZ=           -161.2181
 XXYZ=             57.3884 YYXZ=            -21.9034 ZZXY=            -10.4947
 N-N= 7.069365368266D+02 E-N=-2.677220302562D+03  KE= 5.384743379959D+02
 Calling FoFJK, ICntrl=      2127 FMM=F ISym2X=0 I1Cent= 0 IOpClX= 0 NMat=1 NMatS=1 NMatT=0.
 ***** Axes restored to original set *****
 -------------------------------------------------------------------
 Center     Atomic                   Forces (Hartrees/Bohr)
 Number     Number              X              Y              Z
 -------------------------------------------------------------------
      1        8          -0.009731311   -0.000002728   -0.004550727
      2        6          -0.014529022   -0.019159869    0.005168597
      3        6          -0.000954950   -0.011017208    0.002294195
      4        6           0.009757458   -0.002422276    0.001465616
      5        6           0.000745382    0.007013366   -0.003546295
      6        6           0.000265784   -0.008241706    0.006907992
      7        6           0.001679249    0.010013674   -0.002993786
      8        6          -0.004629989   -0.008386899    0.000908331
      9        6           0.002107126    0.009509919    0.004573815
     10        6          -0.000934390   -0.007226516   -0.005362533
     11        6           0.002858481    0.002050942    0.003530674
     12        8          -0.001590402    0.014704564   -0.010755989
     13        1           0.015184796    0.000124838    0.006341677
     14        1           0.002079488    0.002372908   -0.002722761
     15        1          -0.001758754    0.005080905    0.001388818
     16        1           0.003007872   -0.000022530    0.002234850
     17        1          -0.001621875    0.003957764   -0.003322631
     18        1           0.003309934    0.001138206    0.001353991
     19        1          -0.003884830   -0.001976858    0.000472996
     20        1          -0.004472539    0.001102797   -0.001872566
     21        1           0.003613333    0.002401178   -0.001884899
     22        1           0.003242043   -0.000378969    0.002220825
     23        1          -0.004235908   -0.001910553    0.000622060
     24        1           0.002080661   -0.002846356   -0.001872341
     25        1          -0.000762435    0.004985749    0.000332321
     26        1           0.000354350    0.001018751   -0.004496944
     27        1          -0.001347432   -0.003925680    0.002194060
     28        1          -0.000238102    0.000025095    0.004076729
     29        1           0.002051895    0.003594782   -0.000331867
     30        1           0.001304333    0.000035062   -0.003012499
     31        1          -0.000452724   -0.003183466    0.000127028
     32        1          -0.002497520    0.001571114    0.000511265
 -------------------------------------------------------------------
 Cartesian Forces:  Max     0.019159869 RMS     0.005123503

 GradGradGradGradGradGradGradGradGradGradGradGradGradGradGradGradGradGrad
 Berny optimization.
 FormGI is forming the generalized inverse of G from B-inverse, IUseBI=4.
 Internal  Forces:  Max     0.017920740 RMS     0.003085616
 Search for a local minimum.
 Step number   1 out of a maximum of  179
 All quantities printed in internal units (Hartrees-Bohrs-Radians)
 Mixed Optimization -- RFO/linear search
 Second derivative matrix not updated -- first step.
 ITU=  0
     Eigenvalues ---    0.00230   0.00230   0.00230   0.00230   0.00230
     Eigenvalues ---    0.00230   0.00250   0.00300   0.00382   0.00860
     Eigenvalues ---    0.02357   0.03082   0.03096   0.03175   0.03218
     Eigenvalues ---    0.03230   0.03403   0.03457   0.03615   0.04639
     Eigenvalues ---    0.04665   0.04675   0.04680   0.04689   0.04722
     Eigenvalues ---    0.04767   0.05183   0.05407   0.05465   0.08283
     Eigenvalues ---    0.08297   0.08579   0.08581   0.08718   0.08811
     Eigenvalues ---    0.08839   0.09843   0.12183   0.12186   0.12399
     Eigenvalues ---    0.12408   0.12495   0.12577   0.12577   0.13142
     Eigenvalues ---    0.16000   0.16000   0.16000   0.16000   0.21880
     Eigenvalues ---    0.21896   0.21896   0.21907   0.21909   0.21916
     Eigenvalues ---    0.21924   0.21984   0.24996   0.25000   0.27514
     Eigenvalues ---    0.28083   0.28092   0.28173   0.28377   0.28456
     Eigenvalues ---    0.28609   0.28946   0.29516   0.34509   0.34622
     Eigenvalues ---    0.34631   0.34633   0.34637   0.34639   0.34642
     Eigenvalues ---    0.34646   0.34647   0.34653   0.34657   0.34726
     Eigenvalues ---    0.34734   0.34737   0.34753   0.34756   0.34894
     Eigenvalues ---    0.34911   0.34911   0.55088   0.55957   0.93995
 RFO step:  Lambda=-5.56942016D-03 EMin= 2.30000000D-03
 Linear search not attempted -- first point.
 Iteration  1 RMS(Cart)=  0.06928661 RMS(Int)=  0.00052057
 Iteration  2 RMS(Cart)=  0.00089597 RMS(Int)=  0.00012079
 Iteration  3 RMS(Cart)=  0.00000045 RMS(Int)=  0.00012079
 Variable       Old X    -DE/DX   Delta X   Delta X   Delta X     New X
                                 (Linear)    (Quad)   (Total)
    R1        2.55054   0.00296   0.00000   0.00531   0.00531   2.55585
    R2        1.80991   0.01596   0.00000   0.02824   0.02824   1.83815
    R3        2.88939  -0.01076   0.00000  -0.03578  -0.03578   2.85360
    R4        2.31145  -0.01792   0.00000  -0.01895  -0.01895   2.29249
    R5        2.93213  -0.01287   0.00000  -0.04584  -0.04584   2.88629
    R6        2.05820   0.00346   0.00000   0.00975   0.00975   2.06794
    R7        2.05847   0.00534   0.00000   0.01507   0.01507   2.07354
    R8        2.91957  -0.00640   0.00000  -0.02235  -0.02235   2.89722
    R9        2.06479   0.00182   0.00000   0.00520   0.00520   2.06999
   R10        2.06264   0.00355   0.00000   0.01008   0.01008   2.07272
   R11        2.91152  -0.00412   0.00000  -0.01421  -0.01421   2.89730
   R12        2.06251   0.00304   0.00000   0.00864   0.00864   2.07115
   R13        2.06243   0.00405   0.00000   0.01150   0.01150   2.07393
   R14        2.91322  -0.00455   0.00000  -0.01574  -0.01574   2.89749
   R15        2.05820   0.00492   0.00000   0.01386   0.01386   2.07207
   R16        2.06108   0.00457   0.00000   0.01294   0.01294   2.07402
   R17        2.91938  -0.00142   0.00000  -0.00497  -0.00497   2.91441
   R18        2.06293   0.00375   0.00000   0.01065   0.01065   2.07357
   R19        2.06276   0.00427   0.00000   0.01213   0.01213   2.07488
   R20        2.91761  -0.00436   0.00000  -0.01516  -0.01516   2.90245
   R21        2.06259   0.00386   0.00000   0.01098   0.01098   2.07357
   R22        2.06269   0.00423   0.00000   0.01201   0.01201   2.07470
   R23        2.90826  -0.00359   0.00000  -0.01230  -0.01230   2.89596
   R24        2.06279   0.00452   0.00000   0.01283   0.01283   2.07562
   R25        2.06254   0.00447   0.00000   0.01271   0.01271   2.07525
   R26        2.90116  -0.00172   0.00000  -0.00584  -0.00584   2.89532
   R27        2.06078   0.00394   0.00000   0.01114   0.01114   2.07193
   R28        2.06236   0.00403   0.00000   0.01146   0.01146   2.07382
   R29        2.06104   0.00320   0.00000   0.00907   0.00907   2.07011
   R30        2.06122   0.00316   0.00000   0.00895   0.00895   2.07018
   R31        2.06073   0.00297   0.00000   0.00842   0.00842   2.06915
    A1        1.81517   0.00720   0.00000   0.04350   0.04350   1.85867
    A2        1.95023   0.00076   0.00000   0.00299   0.00298   1.95321
    A3        2.14782  -0.00458   0.00000  -0.01790  -0.01790   2.12992
    A4        2.18490   0.00382   0.00000   0.01497   0.01497   2.19987
    A5        2.01939  -0.01014   0.00000  -0.04739  -0.04731   1.97208
    A6        1.89959   0.00158   0.00000  -0.00704  -0.00695   1.89264
    A7        1.85056   0.00324   0.00000   0.01464   0.01499   1.86556
    A8        1.92914   0.00470   0.00000   0.02345   0.02289   1.95203
    A9        1.90325   0.00318   0.00000   0.02161   0.02157   1.92481
   A10        1.85334  -0.00208   0.00000  -0.00221  -0.00259   1.85075
   A11        2.02013  -0.00357   0.00000  -0.02361  -0.02377   1.99636
   A12        1.90609   0.00030   0.00000  -0.00757  -0.00758   1.89852
   A13        1.89997  -0.00123   0.00000  -0.01914  -0.01903   1.88093
   A14        1.89963   0.00116   0.00000   0.00585   0.00550   1.90513
   A15        1.89629   0.00265   0.00000   0.01743   0.01699   1.91328
   A16        1.83250   0.00113   0.00000   0.03281   0.03259   1.86509
   A17        1.99390   0.00029   0.00000  -0.00242  -0.00245   1.99145
   A18        1.91832  -0.00117   0.00000  -0.01363  -0.01365   1.90468
   A19        1.89040  -0.00028   0.00000  -0.00205  -0.00203   1.88837
   A20        1.91458   0.00032   0.00000   0.00054   0.00045   1.91503
   A21        1.90134  -0.00009   0.00000   0.00219   0.00218   1.90351
   A22        1.83861   0.00100   0.00000   0.01718   0.01717   1.85579
   A23        1.96498   0.00026   0.00000   0.00023   0.00023   1.96521
   A24        1.90667   0.00006   0.00000   0.00256   0.00255   1.90921
   A25        1.91285   0.00065   0.00000   0.00640   0.00639   1.91924
   A26        1.92760  -0.00029   0.00000  -0.00361  -0.00361   1.92398
   A27        1.89844  -0.00097   0.00000  -0.00973  -0.00973   1.88871
   A28        1.84972   0.00030   0.00000   0.00445   0.00441   1.85413
   A29        1.99409   0.00158   0.00000   0.00513   0.00501   1.99909
   A30        1.88462  -0.00086   0.00000   0.00113   0.00101   1.88563
   A31        1.92648  -0.00133   0.00000  -0.01867  -0.01874   1.90774
   A32        1.89379   0.00058   0.00000   0.01554   0.01550   1.90929
   A33        1.91939  -0.00079   0.00000  -0.01137  -0.01144   1.90795
   A34        1.83828   0.00081   0.00000   0.00970   0.00976   1.84804
   A35        2.01660  -0.00086   0.00000  -0.00804  -0.00837   2.00823
   A36        1.88583   0.00128   0.00000   0.02062   0.02068   1.90651
   A37        1.92648  -0.00077   0.00000  -0.01914  -0.01954   1.90694
   A38        1.87295   0.00006   0.00000   0.01003   0.01005   1.88299
   A39        1.92118  -0.00018   0.00000  -0.01592  -0.01638   1.90480
   A40        1.83028   0.00071   0.00000   0.01704   0.01725   1.84753
   A41        2.00925   0.00083   0.00000   0.00174   0.00169   2.01094
   A42        1.88635   0.00051   0.00000   0.01008   0.01008   1.89643
   A43        1.90930  -0.00080   0.00000  -0.01029  -0.01033   1.89897
   A44        1.90000  -0.00071   0.00000  -0.00079  -0.00082   1.89918
   A45        1.90918  -0.00049   0.00000  -0.00936  -0.00941   1.89977
   A46        1.84230   0.00068   0.00000   0.00975   0.00979   1.85209
   A47        1.96646  -0.00032   0.00000  -0.00091  -0.00091   1.96555
   A48        1.91432  -0.00011   0.00000  -0.00104  -0.00105   1.91327
   A49        1.91685  -0.00067   0.00000  -0.00907  -0.00907   1.90777
   A50        1.89556   0.00059   0.00000   0.00811   0.00810   1.90365
   A51        1.90740   0.00072   0.00000   0.00538   0.00536   1.91276
   A52        1.86011  -0.00018   0.00000  -0.00235  -0.00240   1.85771
   A53        1.94404  -0.00069   0.00000  -0.00521  -0.00523   1.93881
   A54        1.94306  -0.00057   0.00000  -0.00482  -0.00484   1.93822
   A55        1.93704   0.00084   0.00000   0.00754   0.00755   1.94459
   A56        1.88205   0.00013   0.00000  -0.00378  -0.00382   1.87823
   A57        1.87712   0.00023   0.00000   0.00397   0.00398   1.88110
   A58        1.87753   0.00009   0.00000   0.00254   0.00254   1.88007
    D1        3.13282  -0.00041   0.00000  -0.01502  -0.01505   3.11777
    D2        0.01399  -0.00055   0.00000  -0.01817  -0.01815  -0.00416
    D3        2.95943  -0.00005   0.00000  -0.00736  -0.00714   2.95229
    D4        0.77545  -0.00000   0.00000   0.00281   0.00256   0.77800
    D5       -1.21180   0.00004   0.00000   0.00132   0.00134  -1.21046
    D6       -0.20551  -0.00004   0.00000  -0.00464  -0.00441  -0.20992
    D7       -2.38949   0.00001   0.00000   0.00553   0.00529  -2.38420
    D8        1.90645   0.00005   0.00000   0.00403   0.00407   1.91052
    D9       -1.14163   0.00088   0.00000   0.01967   0.01975  -1.12188
   D10        1.00879   0.00005   0.00000   0.00409   0.00420   1.01298
   D11        3.00045   0.00090   0.00000   0.02870   0.02857   3.02902
   D12        1.02708  -0.00097   0.00000  -0.00726  -0.00741   1.01966
   D13       -3.10569  -0.00179   0.00000  -0.02285  -0.02297  -3.12866
   D14       -1.11402  -0.00095   0.00000   0.00177   0.00140  -1.11262
   D15        3.05822   0.00107   0.00000   0.01619   0.01645   3.07467
   D16       -1.07455   0.00024   0.00000   0.00060   0.00090  -1.07365
   D17        0.91712   0.00109   0.00000   0.02522   0.02526   0.94239
   D18       -1.09434   0.00036   0.00000   0.01133   0.01137  -1.08297
   D19        1.06634   0.00008   0.00000  -0.00044  -0.00035   1.06600
   D20        3.06656   0.00049   0.00000   0.01164   0.01169   3.07825
   D21        3.03504   0.00162   0.00000   0.03383   0.03392   3.06896
   D22       -1.08746   0.00134   0.00000   0.02207   0.02221  -1.06526
   D23        0.91275   0.00175   0.00000   0.03414   0.03424   0.94700
   D24        1.04870  -0.00170   0.00000  -0.01694  -0.01713   1.03157
   D25       -3.07380  -0.00198   0.00000  -0.02870  -0.02885  -3.10265
   D26       -1.07358  -0.00157   0.00000  -0.01663  -0.01681  -1.09040
   D27       -3.07340  -0.00049   0.00000  -0.01483  -0.01483  -3.08823
   D28       -0.92516  -0.00065   0.00000  -0.01745  -0.01746  -0.94262
   D29        1.09439   0.00011   0.00000  -0.00709  -0.00708   1.08730
   D30        1.04709   0.00059   0.00000   0.00452   0.00453   1.05162
   D31       -3.08785   0.00043   0.00000   0.00189   0.00190  -3.08596
   D32       -1.06830   0.00119   0.00000   0.01225   0.01228  -1.05603
   D33       -0.95715  -0.00072   0.00000  -0.01749  -0.01750  -0.97465
   D34        1.19109  -0.00088   0.00000  -0.02011  -0.02013   1.17096
   D35       -3.07255  -0.00012   0.00000  -0.00975  -0.00975  -3.08230
   D36        3.13971  -0.00075   0.00000  -0.01333  -0.01330   3.12640
   D37       -1.03491   0.00039   0.00000   0.01059   0.01059  -1.02432
   D38        0.96603   0.00017   0.00000   0.01292   0.01290   0.97892
   D39        1.00321  -0.00079   0.00000  -0.01416  -0.01413   0.98909
   D40        3.11178   0.00035   0.00000   0.00976   0.00977   3.12155
   D41       -1.17047   0.00012   0.00000   0.01209   0.01207  -1.15839
   D42       -1.01988  -0.00043   0.00000  -0.01187  -0.01185  -1.03172
   D43        1.08869   0.00071   0.00000   0.01205   0.01205   1.10074
   D44        3.08963   0.00048   0.00000   0.01438   0.01435   3.10398
   D45       -1.63552   0.00139   0.00000   0.06166   0.06161  -1.57391
   D46        2.55025   0.00093   0.00000   0.03871   0.03869   2.58894
   D47        0.55815  -0.00021   0.00000   0.01708   0.01723   0.57538
   D48        2.54420   0.00104   0.00000   0.04567   0.04554   2.58974
   D49        0.44677   0.00058   0.00000   0.02271   0.02262   0.46940
   D50       -1.54532  -0.00056   0.00000   0.00108   0.00116  -1.54416
   D51        0.54194   0.00019   0.00000   0.03158   0.03153   0.57346
   D52       -1.55548  -0.00027   0.00000   0.00863   0.00861  -1.54688
   D53        2.73560  -0.00141   0.00000  -0.01300  -0.01285   2.72275
   D54        1.10565  -0.00128   0.00000  -0.03856  -0.03849   1.06716
   D55       -3.04970  -0.00126   0.00000  -0.03079  -0.03070  -3.08040
   D56       -1.05204  -0.00059   0.00000  -0.01923  -0.01918  -1.07122
   D57       -3.07311  -0.00015   0.00000  -0.00989  -0.00987  -3.08298
   D58       -0.94527  -0.00013   0.00000  -0.00212  -0.00208  -0.94735
   D59        1.05239   0.00053   0.00000   0.00944   0.00944   1.06183
   D60       -1.09073   0.00062   0.00000   0.00755   0.00746  -1.08327
   D61        1.03711   0.00064   0.00000   0.01532   0.01525   1.05236
   D62        3.03477   0.00130   0.00000   0.02689   0.02678   3.06155
   D63        3.01212   0.00059   0.00000   0.02790   0.02789   3.04002
   D64       -1.15732   0.00105   0.00000   0.03689   0.03687  -1.12044
   D65        0.88144   0.00037   0.00000   0.02815   0.02814   0.90957
   D66        0.89167  -0.00010   0.00000   0.01419   0.01420   0.90586
   D67        3.00541   0.00036   0.00000   0.02318   0.02317   3.02859
   D68       -1.23902  -0.00032   0.00000   0.01443   0.01444  -1.22458
   D69       -1.11331  -0.00026   0.00000   0.00807   0.00809  -1.10522
   D70        1.00044   0.00020   0.00000   0.01707   0.01707   1.01750
   D71        3.03919  -0.00048   0.00000   0.00832   0.00833   3.04752
   D72       -1.05974   0.00056   0.00000   0.00859   0.00858  -1.05116
   D73        1.04158  -0.00014   0.00000  -0.00306  -0.00304   1.03854
   D74        3.13244   0.00016   0.00000   0.00199   0.00199   3.13443
   D75        3.09903   0.00049   0.00000   0.00483   0.00482   3.10385
   D76       -1.08283  -0.00020   0.00000  -0.00682  -0.00680  -1.08963
   D77        1.00803   0.00010   0.00000  -0.00178  -0.00177   1.00626
   D78        1.07627  -0.00000   0.00000   0.00022   0.00020   1.07646
   D79       -3.10559  -0.00070   0.00000  -0.01143  -0.01143  -3.11702
   D80       -1.01473  -0.00040   0.00000  -0.00638  -0.00640  -1.02113
         Item               Value     Threshold  Converged?
 Maximum Force            0.017921     0.000450     NO 
 RMS     Force            0.003086     0.000300     NO 
 Maximum Displacement     0.233054     0.001800     NO 
 RMS     Displacement     0.069604     0.001200     NO 
 Predicted change in Energy=-2.921622D-03
 GradGradGradGradGradGradGradGradGradGradGradGradGradGradGradGradGradGrad

                          Input orientation:                          
 ---------------------------------------------------------------------
 Center     Atomic      Atomic             Coordinates (Angstroms)
 Number     Number       Type             X           Y           Z
 ---------------------------------------------------------------------
      1          8           0        5.563201    0.437791   -0.193747
      2          6           0        4.692192   -0.537443    0.151962
      3          6           0        3.326363   -0.313066   -0.451736
      4          6           0        2.401962   -1.519547   -0.301017
      5          6           0        2.870237   -2.773077   -1.049285
      6          6           0        2.955366   -2.599146   -2.570194
      7          6           0        3.354286   -3.892985   -3.289780
      8          6           0        3.432842   -3.773775   -4.825400
      9          6           0        2.126591   -4.087296   -5.570004
     10          6           0        0.944854   -3.173296   -5.228574
     11          6           0       -0.282604   -3.445246   -6.104262
     12          8           0        5.008394   -1.453667    0.881513
     13          1           0        6.402557    0.228873    0.251218
     14          1           0        3.454123   -0.026484   -1.500096
     15          1           0        2.895274    0.561635    0.051317
     16          1           0        2.299143   -1.754087    0.764021
     17          1           0        1.407743   -1.226357   -0.659653
     18          1           0        3.845960   -3.081958   -0.657132
     19          1           0        2.173229   -3.589285   -0.820296
     20          1           0        1.992961   -2.235498   -2.949443
     21          1           0        3.694545   -1.826719   -2.818248
     22          1           0        4.328426   -4.212743   -2.898824
     23          1           0        2.647242   -4.689530   -3.023010
     24          1           0        4.206972   -4.454343   -5.201682
     25          1           0        3.766218   -2.762681   -5.093551
     26          1           0        2.316194   -4.032462   -6.650496
     27          1           0        1.841981   -5.127520   -5.362842
     28          1           0        0.669842   -3.304938   -4.175403
     29          1           0        1.252122   -2.125759   -5.340713
     30          1           0       -0.054133   -3.285514   -7.163652
     31          1           0       -0.625196   -4.479640   -5.991318
     32          1           0       -1.116587   -2.787137   -5.839176
 ---------------------------------------------------------------------
                    Distance matrix (angstroms):
                    1          2          3          4          5
     1  O    0.000000
     2  C    1.352498   0.000000
     3  C    2.373561   1.510062   0.000000
     4  C    3.719692   2.532760   1.527361   0.000000
     5  C    4.277110   3.124192   2.572308   1.533141   0.000000
     6  C    4.655243   3.831098   3.138736   2.573121   1.533187
     7  C    5.763709   4.989514   4.568489   3.933552   2.551140
     8  C    6.612709   6.069097   5.578241   5.158904   3.946766
     9  C    7.822458   7.205877   6.471548   5.867827   4.766244
    10  C    7.727778   7.066854   6.055632   5.398043   4.618845
[...]
 Alpha virt. eigenvalues --    4.09592   4.10522   4.12573   4.16123   4.18443
 Alpha virt. eigenvalues --    4.21300   4.25309   4.28082   4.30478   4.32684
 Alpha virt. eigenvalues --    4.34723   4.36418   4.40898   4.42803   4.45344
 Alpha virt. eigenvalues --    4.47460   4.50761   4.51310   4.52985   4.53780
 Alpha virt. eigenvalues --    4.55088   4.57781   4.59663   4.61708   4.63180
 Alpha virt. eigenvalues --    4.65086   4.66559   4.68467   4.73300   4.74892
 Alpha virt. eigenvalues --    4.76853   4.79821   4.84275   4.85420   4.90035
 Alpha virt. eigenvalues --    5.00801   5.04785   5.09696   5.16994   5.21438
 Alpha virt. eigenvalues --    5.22248   5.38584   5.40837   5.50592   5.59320
 Alpha virt. eigenvalues --    5.74898   5.84583   5.86634   6.14999   6.19212
 Alpha virt. eigenvalues --    6.33233   6.33610   6.44456   6.48819   6.64202
 Alpha virt. eigenvalues --    6.68811   6.73876   6.82100   6.88400   7.07484
 Alpha virt. eigenvalues --    7.08836   7.26543  22.41439  22.47660  22.54473
 Alpha virt. eigenvalues --   22.57504  22.59342  22.61378  22.63100  22.63764
 Alpha virt. eigenvalues --   22.66217  23.27586  43.94644  44.02405
          Condensed to atoms (all electrons):
               1          2          3          4          5          6
     1  O    7.942718   0.373950  -0.126002   0.010526  -0.000753  -0.000100
     2  C    0.373950   4.488265   0.237752  -0.035038   0.017110  -0.009667
     3  C   -0.126002   0.237752   5.466921   0.168124  -0.050868   0.031697
     4  C    0.010526  -0.035038   0.168124   5.178698   0.231254  -0.048450
     5  C   -0.000753   0.017110  -0.050868   0.231254   5.325077   0.144336
     6  C   -0.000100  -0.009667   0.031697  -0.048450   0.144336   5.415550
     7  C   -0.000008   0.000466  -0.000832   0.008664  -0.035992   0.186192
     8  C    0.000003  -0.000029   0.000113  -0.000614   0.008689  -0.022352
     9  C   -0.000000   0.000003  -0.000035   0.000132  -0.001498   0.001913
    10  C    0.000000  -0.000003   0.000056  -0.000124   0.000905  -0.001134
    11  C    0.000000   0.000000   0.000000   0.000005  -0.000088   0.001194
    12  O   -0.088935   0.652155  -0.111274   0.026494  -0.011131   0.000076
    13  H    0.288960  -0.028683   0.019738  -0.001802   0.000347  -0.000069
    14  H    0.005196  -0.035416   0.414076  -0.036557  -0.009627   0.001740
    15  H    0.003168  -0.016588   0.396958  -0.033514   0.007439  -0.000397
    16  H    0.000168  -0.009166  -0.023696   0.436754  -0.057885   0.011015
    17  H   -0.000093   0.009385  -0.062317   0.436089  -0.033078  -0.009980
    18  H   -0.000146  -0.000039  -0.009451  -0.032986   0.447374  -0.065535
    19  H   -0.000007   0.000190   0.008020  -0.044104   0.426813  -0.041131
    20  H    0.000001   0.000273  -0.004640   0.008875  -0.055006   0.431838
    21  H    0.000719  -0.000476   0.005115  -0.012016  -0.030128   0.414808
    22  H    0.000005  -0.000068   0.000151   0.000133  -0.005186  -0.040185
    23  H   -0.000000   0.000013  -0.000093  -0.000122  -0.003074  -0.060872
    24  H    0.000000   0.000000  -0.000002   0.000016  -0.000545   0.006163
    25  H   -0.000002   0.000004  -0.000034   0.000090  -0.000199  -0.001547
    26  H    0.000000  -0.000000   0.000000  -0.000003   0.000085  -0.001220
    27  H    0.000000   0.000000  -0.000000   0.000011  -0.000066   0.002462
    28  H   -0.000000  -0.000003   0.000021  -0.000228   0.001562  -0.015844
    29  H   -0.000000   0.000001  -0.000003   0.000032  -0.000006   0.000912
    30  H   -0.000000  -0.000000  -0.000000  -0.000000   0.000003  -0.000085
    31  H   -0.000000  -0.000000   0.000000   0.000000  -0.000002   0.000037
    32  H   -0.000000  -0.000000  -0.000000  -0.000001   0.000004   0.000005
               7          8          9         10         11         12
     1  O   -0.000008   0.000003  -0.000000   0.000000   0.000000  -0.088935
     2  C    0.000466  -0.000029   0.000003  -0.000003   0.000000   0.652155
     3  C   -0.000832   0.000113  -0.000035   0.000056   0.000000  -0.111274
     4  C    0.008664  -0.000614   0.000132  -0.000124   0.000005   0.026494
     5  C   -0.035992   0.008689  -0.001498   0.000905  -0.000088  -0.011131
     6  C    0.186192  -0.022352   0.001913  -0.001134   0.001194   0.000076
     7  C    5.306919   0.187611  -0.033527   0.016079  -0.001778   0.000184
     8  C    0.187611   5.169711   0.249628  -0.047332   0.011275  -0.000005
     9  C   -0.033527   0.249628   5.231260   0.229666  -0.056033   0.000000
    10  C    0.016079  -0.047332   0.229666   5.218704   0.265614   0.000000
    11  C   -0.001778   0.011275  -0.056033   0.265614   5.020565   0.000000
    12  O    0.000184  -0.000005   0.000000   0.000000   0.000000   7.849067
    13  H   -0.000003   0.000000   0.000000  -0.000000  -0.000000   0.006099
    14  H    0.000507   0.000064  -0.000030   0.000048   0.000001   0.003273
    15  H    0.000043  -0.000003   0.000000  -0.000001  -0.000000   0.001591
    16  H   -0.000574   0.000026  -0.000003   0.000006  -0.000000   0.002626
    17  H   -0.000236  -0.000003   0.000015  -0.000053  -0.000004   0.000577
    18  H   -0.003447  -0.000383   0.000058  -0.000072   0.000001   0.006747
    19  H   -0.003453   0.000129  -0.000139   0.000232   0.000002   0.000099
    20  H   -0.048849   0.000933  -0.000964  -0.002449   0.001244  -0.000069
    21  H   -0.035314  -0.005089   0.000988  -0.000833  -0.000054  -0.000161
    22  H    0.427959  -0.038242   0.004912   0.000010   0.000066  -0.000053
    23  H    0.431869  -0.046370   0.003503  -0.007820  -0.000284  -0.000000
    24  H   -0.046634   0.440250  -0.051730   0.009624  -0.000558  -0.000000
    25  H   -0.067365   0.440569  -0.039951  -0.011290  -0.000567   0.000001
    26  H    0.012670  -0.050408   0.429633  -0.043754  -0.005069  -0.000000
    27  H   -0.016958  -0.030625   0.428488  -0.056096  -0.004180   0.000000
    28  H    0.019485  -0.017220  -0.045763   0.420267  -0.033351   0.000000
    29  H   -0.007854   0.010288  -0.059891   0.420088  -0.032304   0.000000
    30  H    0.000151  -0.000673  -0.007703  -0.047413   0.424339   0.000000
    31  H   -0.000138   0.000341  -0.006981  -0.039073   0.413660   0.000000
    32  H    0.000090  -0.000777   0.012525  -0.050798   0.420971  -0.000000
              13         14         15         16         17         18
     1  O    0.288960   0.005196   0.003168   0.000168  -0.000093  -0.000146
     2  C   -0.028683  -0.035416  -0.016588  -0.009166   0.009385  -0.000039
     3  C    0.019738   0.414076   0.396958  -0.023696  -0.062317  -0.009451
     4  C   -0.001802  -0.036557  -0.033514   0.436754   0.436089  -0.032986
     5  C    0.000347  -0.009627   0.007439  -0.057885  -0.033078   0.447374
     6  C   -0.000069   0.001740  -0.000397   0.011015  -0.009980  -0.065535
     7  C   -0.000003   0.000507   0.000043  -0.000574  -0.000236  -0.003447
     8  C    0.000000   0.000064  -0.000003   0.000026  -0.000003  -0.000383
     9  C    0.000000  -0.000030   0.000000  -0.000003   0.000015   0.000058
    10  C   -0.000000   0.000048  -0.000001   0.000006  -0.000053  -0.000072
    11  C   -0.000000   0.000001  -0.000000  -0.000000  -0.000004   0.000001
    12  O    0.006099   0.003273   0.001591   0.002626   0.000577   0.006747
    13  H    0.382295  -0.000830  -0.000593  -0.000005   0.000029   0.000006
    14  H   -0.000830   0.492284  -0.015650   0.004785  -0.000725   0.001422
    15  H   -0.000593  -0.015650   0.489926  -0.003717  -0.004711  -0.000180
    16  H   -0.000005   0.004785  -0.003717   0.501433  -0.018790  -0.001044
    17  H    0.000029  -0.000725  -0.004711  -0.018790   0.528142   0.004752
    18  H    0.000006   0.001422  -0.000180  -0.001044   0.004752   0.478076
    19  H   -0.000005  -0.000688  -0.000079  -0.007666  -0.002600  -0.015727
    20  H    0.000003   0.001856  -0.000289   0.000349   0.000604   0.005770
    21  H    0.000003  -0.009006   0.000536  -0.000560   0.001675  -0.001264
    22  H    0.000000   0.000087  -0.000007   0.000017  -0.000029   0.001434
    23  H    0.000000  -0.000040   0.000003  -0.000040   0.000103   0.000539
    24  H    0.000000  -0.000002   0.000000  -0.000000   0.000000  -0.000014
    25  H   -0.000000   0.000057   0.000001   0.000001  -0.000004   0.000065
    26  H    0.000000   0.000000  -0.000000   0.000000   0.000000   0.000001
    27  H   -0.000000   0.000000   0.000000  -0.000000  -0.000001  -0.000003
    28  H   -0.000000  -0.000001   0.000000   0.000005   0.000090   0.000011
    29  H    0.000000  -0.000003   0.000001  -0.000001   0.000009  -0.000007
    30  H    0.000000   0.000000   0.000000   0.000000   0.000000  -0.000000
    31  H    0.000000   0.000000   0.000000  -0.000000  -0.000000  -0.000000
    32  H    0.000000  -0.000000  -0.000000   0.000000   0.000000   0.000000
              19         20         21         22         23         24
     1  O   -0.000007   0.000001   0.000719   0.000005  -0.000000   0.000000
     2  C    0.000190   0.000273  -0.000476  -0.000068   0.000013   0.000000
     3  C    0.008020  -0.004640   0.005115   0.000151  -0.000093  -0.000002
     4  C   -0.044104   0.008875  -0.012016   0.000133  -0.000122   0.000016
     5  C    0.426813  -0.055006  -0.030128  -0.005186  -0.003074  -0.000545
     6  C   -0.041131   0.431838   0.414808  -0.040185  -0.060872   0.006163
     7  C   -0.003453  -0.048849  -0.035314   0.427959   0.431869  -0.046634
     8  C    0.000129   0.000933  -0.005089  -0.038242  -0.046370   0.440250
     9  C   -0.000139  -0.000964   0.000988   0.004912   0.003503  -0.051730
    10  C    0.000232  -0.002449  -0.000833   0.000010  -0.007820   0.009624
    11  C    0.000002   0.001244  -0.000054   0.000066  -0.000284  -0.000558
    12  O    0.000099  -0.000069  -0.000161  -0.000053  -0.000000  -0.000000
    13  H   -0.000005   0.000003   0.000003   0.000000   0.000000   0.000000
    14  H   -0.000688   0.001856  -0.009006   0.000087  -0.000040  -0.000002
    15  H   -0.000079  -0.000289   0.000536  -0.000007   0.000003   0.000000
    16  H   -0.007666   0.000349  -0.000560   0.000017  -0.000040  -0.000000
    17  H   -0.002600   0.000604   0.001675  -0.000029   0.000103   0.000000
    18  H   -0.015727   0.005770  -0.001264   0.001434   0.000539  -0.000014
    19  H    0.531222  -0.003062   0.004913   0.001049   0.001521  -0.000011
    20  H   -0.003062   0.543267  -0.030856   0.005484  -0.001759  -0.000423
    21  H    0.004913  -0.030856   0.546576  -0.004557   0.006741   0.000453
    22  H    0.001049   0.005484  -0.004557   0.529410  -0.022187  -0.010966
    23  H    0.001521  -0.001759   0.006741  -0.022187   0.533936   0.002346
    24  H   -0.000011  -0.000423   0.000453  -0.010966   0.002346   0.541809
    25  H   -0.000010   0.001165   0.001350   0.001493   0.006426  -0.020910
    26  H   -0.000003   0.000073  -0.000020  -0.000177  -0.000051  -0.007452
    27  H    0.000017  -0.000020  -0.000003  -0.000187   0.003785  -0.003683
    28  H    0.000114  -0.002730   0.000559   0.000248  -0.001041  -0.000640
    29  H    0.000013  -0.004112   0.000426  -0.000192   0.001043   0.000098
    30  H   -0.000000  -0.000021  -0.000000   0.000002  -0.000009  -0.000043
    31  H    0.000001  -0.000048   0.000002  -0.000007   0.000061   0.000017
    32  H   -0.000000  -0.000083   0.000001  -0.000002   0.000025   0.000017
              25         26         27         28         29         30
     1  O   -0.000002   0.000000   0.000000  -0.000000  -0.000000  -0.000000
     2  C    0.000004  -0.000000   0.000000  -0.000003   0.000001  -0.000000
     3  C   -0.000034   0.000000  -0.000000   0.000021  -0.000003  -0.000000
     4  C    0.000090  -0.000003   0.000011  -0.000228   0.000032  -0.000000
     5  C   -0.000199   0.000085  -0.000066   0.001562  -0.000006   0.000003
     6  C   -0.001547  -0.001220   0.002462  -0.015844   0.000912  -0.000085
     7  C   -0.067365   0.012670  -0.016958   0.019485  -0.007854   0.000151
     8  C    0.440569  -0.050408  -0.030625  -0.017220   0.010288  -0.000673
     9  C   -0.039951   0.429633   0.428488  -0.045763  -0.059891  -0.007703
    10  C   -0.011290  -0.043754  -0.056096   0.420267   0.420088  -0.047413
    11  C   -0.000567  -0.005069  -0.004180  -0.033351  -0.032304   0.424339
    12  O    0.000001  -0.000000   0.000000   0.000000   0.000000   0.000000
    13  H   -0.000000   0.000000  -0.000000  -0.000000   0.000000   0.000000
    14  H    0.000057   0.000000   0.000000  -0.000001  -0.000003   0.000000
    15  H    0.000001  -0.000000   0.000000   0.000000   0.000001   0.000000
    16  H    0.000001   0.000000  -0.000000   0.000005  -0.000001   0.000000
    17  H   -0.000004   0.000000  -0.000001   0.000090   0.000009   0.000000
    18  H    0.000065   0.000001  -0.000003   0.000011  -0.000007  -0.000000
    19  H   -0.000010  -0.000003   0.000017   0.000114   0.000013  -0.000000
    20  H    0.001165   0.000073  -0.000020  -0.002730  -0.004112  -0.000021
    21  H    0.001350  -0.000020  -0.000003   0.000559   0.000426  -0.000000
    22  H    0.001493  -0.000177  -0.000187   0.000248  -0.000192   0.000002
    23  H    0.006426  -0.000051   0.003785  -0.001041   0.001043  -0.000009
    24  H   -0.020910  -0.007452  -0.003683  -0.000640   0.000098  -0.000043
    25  H    0.536185  -0.002599   0.006295   0.001483   0.001918   0.000139
    26  H   -0.002599   0.547871  -0.023761   0.007035  -0.003089   0.003181
    27  H    0.006295  -0.023761   0.541974  -0.003697   0.007653   0.000472
    28  H    0.001483   0.007035  -0.003697   0.579040  -0.037556   0.008175
    29  H    0.001918  -0.003089   0.007653  -0.037556   0.564684  -0.006730
    30  H    0.000139   0.003181   0.000472   0.008175  -0.006730   0.545084
    31  H   -0.000032   0.000173   0.002881  -0.006989   0.007741  -0.032035
    32  H    0.000023  -0.000027  -0.000231  -0.004325  -0.004389  -0.024790
              31         32
     1  O   -0.000000  -0.000000
     2  C   -0.000000  -0.000000
     3  C    0.000000  -0.000000
     4  C    0.000000  -0.000001
     5  C   -0.000002   0.000004
     6  C    0.000037   0.000005
     7  C   -0.000138   0.000090
     8  C    0.000341  -0.000777
     9  C   -0.006981   0.012525
    10  C   -0.039073  -0.050798
    11  C    0.413660   0.420971
    12  O    0.000000  -0.000000
    13  H    0.000000   0.000000
    14  H    0.000000  -0.000000
    15  H    0.000000  -0.000000
    16  H   -0.000000   0.000000
    17  H   -0.000000   0.000000
    18  H   -0.000000   0.000000
    19  H    0.000001  -0.000000
    20  H   -0.000048  -0.000083
    21  H    0.000002   0.000001
    22  H   -0.000007  -0.000002
    23  H    0.000061   0.000025
    24  H    0.000017   0.000017
    25  H   -0.000032   0.000023
    26  H    0.000173  -0.000027
    27  H    0.002881  -0.000231
    28  H   -0.006989  -0.004325
    29  H    0.007741  -0.004389
    30  H   -0.032035  -0.024790
    31  H    0.548949  -0.024789
    32  H   -0.024789   0.535724
 Mulliken charges:
               1
     1  O   -0.409369
     2  C    0.355612
     3  C   -0.359495
     4  C   -0.260338
     5  C   -0.315866
     6  C   -0.331369
     7  C   -0.295925
     8  C   -0.259503
     9  C   -0.288474
    10  C   -0.273054
    11  C   -0.424666
    12  O   -0.337358
    13  H    0.334509
    14  H    0.183179
    15  H    0.176063
    16  H    0.165961
    17  H    0.151154
    18  H    0.184043
    19  H    0.144353
    20  H    0.153645
    21  H    0.145471
    22  H    0.149586
    23  H    0.151850
    24  H    0.142820
    25  H    0.147245
    26  H    0.136911
    27  H    0.145475
    28  H    0.131294
    29  H    0.141233
    30  H    0.137957
    31  H    0.136229
    32  H    0.140825
 Sum of Mulliken charges =  -0.00000
 Mulliken charges with hydrogens summed into heavy atoms:
               1
     1  O   -0.074859
     2  C    0.355612
     3  C   -0.000252
     4  C    0.056777
     5  C    0.012530
     6  C   -0.032253
     7  C    0.005511
     8  C    0.030562
     9  C   -0.006088
    10  C   -0.000527
    11  C   -0.009654
    12  O   -0.337358
 Electronic spatial extent (au):  <R**2>=           4157.2367
 Charge=             -0.0000 electrons
 Dipole moment (field-independent basis, Debye):
    X=             -0.5664    Y=              0.4291    Z=             -1.2713  Tot=              1.4564
 Quadrupole moment (field-independent basis, Debye-Ang):
   XX=            -79.3435   YY=            -74.3389   ZZ=            -80.6817
   XY=             -0.1726   XZ=             -6.3139   YZ=              1.2775
 Traceless Quadrupole moment (field-independent basis, Debye-Ang):
   XX=             -1.2221   YY=              3.7824   ZZ=             -2.5603
   XY=             -0.1726   XZ=             -6.3139   YZ=              1.2775
 Octapole moment (field-independent basis, Debye-Ang**2):
  XXX=             54.7385  YYY=             -5.0967  ZZZ=              0.2028  XYY=             26.0370
  XXY=            -14.6970  XXZ=            -31.5734  XZZ=             -3.0114  YZZ=              0.3457
  YYZ=             -4.1722  XYZ=              6.5606
 Hexadecapole moment (field-independent basis, Debye-Ang**3):
 XXXX=          -4474.8142 YYYY=           -592.8015 ZZZZ=           -392.5184 XXXY=            -86.0918
 XXXZ=           -163.9280 YYYX=            -25.7009 YYYZ=              1.1202 ZZZX=             -2.4882
 ZZZY=              6.3800 XXYY=           -802.0924 XXZZ=           -862.6199 YYZZ=           -163.9086
 XXYZ=             44.4999 YYXZ=            -21.1901 ZZXY=             -3.3875
 N-N= 7.119101975904D+02 E-N=-2.688754721080D+03  KE= 5.405735964823D+02
 Unable to Open any file for archive entry.
 1\1\GINC-NOTCH075\SP\RM062X\def2TZVP\C10H20O2\U6032257\03-Feb-2022\0\\
 # M062X/def2tzvp int=(grid=ultrafine) nmr=giao guess=read geom=check\\
 Ac1.xyz\\0,1\O,0,5.6336615395,0.3838529407,-0.1765447907\C,0,4.7236678
 925,-0.5391304226,0.2239647183\C,0,3.3727019361,-0.301462703,-0.412017
 2335\C,0,2.4261843748,-1.4975806448,-0.2795601073\C,0,2.8705243,-2.749
 2498399,-1.0490881859\C,0,2.945783393,-2.5680966594,-2.5681975551\C,0,
 3.3278510485,-3.8621514092,-3.2978301513\C,0,3.4104778274,-3.740168289
 9,-4.8324493241\C,0,2.1186657653,-4.0804200336,-5.5905052223\C,0,0.905
 9556489,-3.1995467524,-5.2726405036\C,0,-0.3021066041,-3.5248137786,-6
 .154180931\O,0,4.9973444987,-1.4155398016,1.0150386312\H,0,6.454164290
 4,0.1738694839,0.3008541083\H,0,3.528721895,-0.0079041504,-1.454333475
 6\H,0,2.9473015329,0.5816355543,0.0823844153\H,0,2.3306507823,-1.74590
 28739,0.7821690703\H,0,1.4329997472,-1.188210012,-0.6275559027\H,0,3.8
 427773082,-3.0792540959,-0.6653856512\H,0,2.1641189754,-3.558884646,-0
 .8246846333\H,0,1.9845427877,-2.1912483776,-2.9374743797\H,0,3.6884392
 358,-1.7997595429,-2.8213087972\H,0,4.2990416856,-4.1919417985,-2.9076
 01347\H,0,2.616162965,-4.6565983106,-3.0323791363\H,0,4.197187795,-4.4
 086359568,-5.202112146\H,0,3.73270973,-2.7236335744,-5.0981339475\H,0,
 2.3212594734,-4.0210895703,-6.668648252\H,0,1.8555088658,-5.1290122083
 ,-5.391274657\H,0,0.625658243,-3.3213644189,-4.2196936915\H,0,1.180221
 559,-2.1432778078,-5.3971532151\H,0,-0.068522104,-3.3746074222,-7.2141
 600716\H,0,-0.6094293283,-4.5693501672,-6.0302228619\H,0,-1.1619270599
 ,-2.8934227101,-5.9087747732\\Version=ES64L-G16RevC.01\State=1-A\HF=-5
 43.5404264\RMSD=2.655e-09\Dipole=-0.1534332,0.380651,-0.399832\Quadrup
 ole=3.0975267,1.5876644,-4.685191,1.2981297,-1.7430721,2.7159419\PG=C0
 1 [X(C10H20O2)]\\@
 The archive entry for this job was punched.


  THE LARGE PRINT GIVETH,
  AND THE SMALL PRINT TAKETH AWAY.

                     -- TOM WAITS
 Job cpu time:       0 days  0 hours 36 minutes 56.7 seconds.
 Elapsed time:       0 days  0 hours  1 minutes 19.9 seconds.
 File lengths (MBytes):  RWF=    140 Int=      0 D2E=      0 Chk=     24 Scr=      1
 Normal termination of Gaussian 16 at Thu Feb  3 10:18:21 2022.
