 Entering Gaussian System, Link 0=/uufs/chpc.utah.edu/sys/installdir/gaussian16/C01/AVX2/g16/g16
 Input=Ac1_clust-13.com
 Output=Ac1_clust-13.log
 Initial command:
 /uufs/chpc.utah.edu/sys/installdir/gaussian16/C01/AVX2/g16/l1.exe "/scratch/general/lustre/u6032257/3857468/notchpeak.peaks/Gau-153012.inp" -scrdir="/scratch/general/lustre/u6032257/3857468/notchpeak.peaks/"
 Entering Link 1 = /uufs/chpc.utah.edu/sys/installdir/gaussian16/C01/AVX2/g16/l1.exe PID=    153014.
  
 Copyright (c) 1988-2019, Gaussian, Inc.  All Rights Reserved.
  
 This is part of the Gaussian(R) 16 program.  It is based on
 the Gaussian(R) 09 system (copyright 2009, Gaussian, Inc.),
 the Gaussian(R) 03 system (copyright 2003, Gaussian, Inc.),
 the Gaussian(R) 98 system (copyright 1998, Gaussian, Inc.),
 the Gaussian(R) 94 system (copyright 1995, Gaussian, Inc.),
 the Gaussian 92(TM) system (copyright 1992, Gaussian, Inc.),
 the Gaussian 90(TM) system (copyright 1990, Gaussian, Inc.),
 the Gaussian 88(TM) system (copyright 1988, Gaussian, Inc.),
 the Gaussian 86(TM) system (copyright 1986, Carnegie Mellon
 University), and the Gaussian 82(TM) system (copyright 1983,
 Carnegie Mellon University). Gaussian is a federally registered
 trademark of Gaussian, Inc.
  
 This software contains proprietary and confidential information,
 including trade secrets, belonging to Gaussian, Inc.
  
 This software is provided under written license and may be
 used, copied, transmitted, or stored only in accord with that
 written license.
  
 The following legend is applicable only to US Government
 contracts under FAR:
  
                    RESTRICTED RIGHTS LEGEND
  
 Use, reproduction and disclosure by the US Government is
 subject to restrictions as set forth in subparagraphs (a)
 and (c) of the Commercial Computer Software - Restricted
 Rights clause in FAR 52.227-19.
  
 Gaussian, Inc.
 340 Quinnipiac St., Bldg. 40, Wallingford CT 06492
  
  
 ---------------------------------------------------------------
 Warning -- This program may not be used in any manner that
 competes with the business of Gaussian, Inc. or will provide
 assistance to any competitor of Gaussian, Inc.  The licensee
 of this program is prohibited from giving any competitor of
 Gaussian, Inc. access to this program.  By using this program,
 the user acknowledges that Gaussian, Inc. is engaged in the
 business of creating and licensing software in the field of
 computational chemistry and represents and warrants to the
 licensee that it is not a competitor of Gaussian, Inc. and that
 it will not use this program in any manner prohibited above.
 ---------------------------------------------------------------
  

 Cite this work as:
 Gaussian 16, Revision C.01,
 M. J. Frisch, G. W. Trucks, H. B. Schlegel, G. E. Scuseria, 
 M. A. Robb, J. R. Cheeseman, G. Scalmani, V. Barone, 
 G. A. Petersson, H. Nakatsuji, X. Li, M. Caricato, A. V. Marenich, 
 J. Bloino, B. G. Janesko, R. Gomperts, B. Mennucci, H. P. Hratchian, 
 J. V. Ortiz, A. F. Izmaylov, J. L. Sonnenberg, D. Williams-Young, 
 F. Ding, F. Lipparini, F. Egidi, J. Goings, B. Peng, A. Petrone, 
 T. Henderson, D. Ranasinghe, V. G. Zakrzewski, J. Gao, N. Rega, 
 G. Zheng, W. Liang, M. Hada, M. Ehara, K. Toyota, R. Fukuda, 
 J. Hasegawa, M. Ishida, T. Nakajima, Y. Honda, O. Kitao, H. Nakai, 
 T. Vreven, K. Throssell, J. A. Montgomery, Jr., J. E. Peralta, 
 F. Ogliaro, M. J. Bearpark, J. J. Heyd, E. N. Brothers, K. N. Kudin, 
 V. N. Staroverov, T. A. Keith, R. Kobayashi, J. Normand, 
 K. Raghavachari, A. P. Rendell, J. C. Burant, S. S. Iyengar, 
 J. Tomasi, M. Cossi, J. M. Millam, M. Klene, C. Adamo, R. Cammi, 
 J. W. Ochterski, R. L. Martin, K. Morokuma, O. Farkas, 
 J. B. Foresman, and D. J. Fox, Gaussian, Inc., Wallingford CT, 2019.
 
 ******************************************
 Gaussian 16:  ES64L-G16RevC.01  3-Jul-2019
                 3-Feb-2022 
 ******************************************
 %NProcShared=32
 Will use up to   32 processors via shared memory.
 %mem=16GB
 %chk=Ac1_clust-13.chk
 ----------------------------------------------------------------------
 # B3LYP/6-31G(d,p) empiricaldispersion=GD3BJ int=(grid=ultrafine) opt 
 freq=noraman
 ----------------------------------------------------------------------
 1/18=20,19=15,26=4,38=1/1,3;
 2/9=110,12=2,17=6,18=5,40=1/2;
 3/5=1,6=6,7=101,11=2,25=1,30=1,71=1,74=-5,75=-5,124=41/1,2,3;
 4//1;
 5/5=2,38=5/2;
 6/7=2,8=2,9=2,10=2,28=1/1;
 7//1,2,3,16;
 1/18=20,19=15,26=4/3(2);
 2/9=110/2;
 99//99;
 2/9=110/2;
 3/5=1,6=6,7=101,11=2,25=1,30=1,71=1,74=-5,75=-5,124=41/1,2,3;
 4/5=5,16=3,69=1/1;
 5/5=2,38=5/2;
 7//1,2,3,16;
 1/18=20,19=15,26=4/3(-5);
 2/9=110/2;
 6/7=2,8=2,9=2,10=2,19=2,28=1/1;
 99/9=1/99;
 -------
 Ac1.xyz
 -------
 Symbolic Z-matrix:
 Charge =  0 Multiplicity = 1
 O                     5.9299   -1.1117   -1.1846 
 C                     4.7605   -0.7482   -0.6173 
 C                     4.1635   -1.8772    0.2236 
 C                     2.6896   -1.6825    0.662 
 C                     1.6336   -1.6017   -0.466 
 C                     1.4968   -2.8652   -1.3448 
 C                     2.3532   -2.8434   -2.6266 
 C                     2.1689   -4.1101   -3.4854 
 C                     3.0177   -4.1315   -4.7761 
 C                     2.327    -3.5701   -6.037 
 C                     1.9699   -2.0777   -5.9746 
 O                     4.2694    0.3636   -0.754 
 H                     6.2028   -0.333    -1.6709 
 H                     4.791    -1.9578    1.1102 
 H                     4.2768   -2.8204   -0.3084 
 H                     2.416    -2.4959    1.3364 
 H                     2.6181   -0.7779    1.2705 
 H                     0.6686   -1.4147    0.0083 
 H                     1.8069   -0.7224   -1.0891 
 H                     1.7165   -3.7572   -0.7557 
 H                     0.4511   -2.9649   -1.6417 
 H                     2.1021   -1.9549   -3.2044 
 H                     3.4075   -2.7387   -2.3763 
 H                     1.1148   -4.2527   -3.7301 
 H                     2.4448   -4.9733   -2.877 
 H                     3.9696   -3.6231   -4.6126 
 H                     3.2858   -5.1683   -4.9871 
 H                     2.986    -3.7318   -6.8917 
 H                     1.4258   -4.1479   -6.2495 
 H                     2.8305   -1.472    -5.6883 
 H                     1.6238   -1.7209   -6.9451 
 H                     1.1677   -1.8892   -5.2613 
 

 GradGradGradGradGradGradGradGradGradGradGradGradGradGradGradGradGradGrad
 Berny optimization.
 Initialization pass.
                           ----------------------------
                           !    Initial Parameters    !
                           ! (Angstroms and Degrees)  !
 --------------------------                            --------------------------
 ! Name  Definition              Value          Derivative Info.                !
 --------------------------------------------------------------------------------
 ! R1    R(1,2)                  1.3496         estimate D2E/DX2                !
 ! R2    R(1,13)                 0.9578         estimate D2E/DX2                !
 ! R3    R(2,3)                  1.5291         estimate D2E/DX2                !
 ! R4    R(2,12)                 1.2231         estimate D2E/DX2                !
 ! R5    R(3,4)                  1.55           estimate D2E/DX2                !
 ! R6    R(3,14)                 1.0892         estimate D2E/DX2                !
 ! R7    R(3,15)                 1.0888         estimate D2E/DX2                !
 ! R8    R(4,5)                  1.5473         estimate D2E/DX2                !
 ! R9    R(4,16)                 1.0915         estimate D2E/DX2                !
 ! R10   R(4,17)                 1.0926         estimate D2E/DX2                !
 ! R11   R(5,6)                  1.5451         estimate D2E/DX2                !
 ! R12   R(5,18)                 1.0914         estimate D2E/DX2                !
 ! R13   R(5,19)                 1.0915         estimate D2E/DX2                !
 ! R14   R(6,7)                  1.5417         estimate D2E/DX2                !
 ! R15   R(6,20)                 1.0913         estimate D2E/DX2                !
 ! R16   R(6,21)                 1.0916         estimate D2E/DX2                !
 ! R17   R(7,8)                  1.5414         estimate D2E/DX2                !
 ! R18   R(7,22)                 1.0892         estimate D2E/DX2                !
 ! R19   R(7,23)                 1.0887         estimate D2E/DX2                !
 ! R20   R(8,9)                  1.5449         estimate D2E/DX2                !
 ! R21   R(8,24)                 1.0915         estimate D2E/DX2                !
 ! R22   R(8,25)                 1.0915         estimate D2E/DX2                !
 ! R23   R(9,10)                 1.5434         estimate D2E/DX2                !
 ! R24   R(9,26)                 1.0915         estimate D2E/DX2                !
 ! R25   R(9,27)                 1.0915         estimate D2E/DX2                !
 ! R26   R(10,11)                1.5358         estimate D2E/DX2                !
 ! R27   R(10,28)                1.0913         estimate D2E/DX2                !
 ! R28   R(10,29)                1.0914         estimate D2E/DX2                !
 ! R29   R(11,30)                1.0906         estimate D2E/DX2                !
 ! R30   R(11,31)                1.0904         estimate D2E/DX2                !
 ! R31   R(11,32)                1.0899         estimate D2E/DX2                !
 ! A1    A(2,1,13)             103.965          estimate D2E/DX2                !
 ! A2    A(1,2,3)              111.7519         estimate D2E/DX2                !
 ! A3    A(1,2,12)             123.0762         estimate D2E/DX2                !
 ! A4    A(3,2,12)             125.1594         estimate D2E/DX2                !
 ! A5    A(2,3,4)              115.7251         estimate D2E/DX2                !
 ! A6    A(2,3,14)             106.1022         estimate D2E/DX2                !
 ! A7    A(2,3,15)             109.2855         estimate D2E/DX2                !
 ! A8    A(4,3,14)             109.0807         estimate D2E/DX2                !
 ! A9    A(4,3,15)             110.2407         estimate D2E/DX2                !
 ! A10   A(14,3,15)            105.8832         estimate D2E/DX2                !
 ! A11   A(3,4,5)              116.7019         estimate D2E/DX2                !
 ! A12   A(3,4,16)             108.6337         estimate D2E/DX2                !
 ! A13   A(3,4,17)             108.8905         estimate D2E/DX2                !
 ! A14   A(5,4,16)             108.5595         estimate D2E/DX2                !
 ! A15   A(5,4,17)             108.5498         estimate D2E/DX2                !
 ! A16   A(16,4,17)            104.8622         estimate D2E/DX2                !
 ! A17   A(4,5,6)              115.6173         estimate D2E/DX2                !
 ! A18   A(4,5,18)             107.1922         estimate D2E/DX2                !
 ! A19   A(4,5,19)             110.4794         estimate D2E/DX2                !
 ! A20   A(6,5,18)             107.9987         estimate D2E/DX2                !
 ! A21   A(6,5,19)             110.3721         estimate D2E/DX2                !
 ! A22   A(18,5,19)            104.5031         estimate D2E/DX2                !
 ! A23   A(5,6,7)              114.3383         estimate D2E/DX2                !
 ! A24   A(5,6,20)             110.0927         estimate D2E/DX2                !
 ! A25   A(5,6,21)             108.3122         estimate D2E/DX2                !
 ! A26   A(7,6,20)             110.3974         estimate D2E/DX2                !
 ! A27   A(7,6,21)             107.8958         estimate D2E/DX2                !
 ! A28   A(20,6,21)            105.3681         estimate D2E/DX2                !
 ! A29   A(6,7,8)              112.6547         estimate D2E/DX2                !
 ! A30   A(6,7,22)             108.9368         estimate D2E/DX2                !
 ! A31   A(6,7,23)             110.3748         estimate D2E/DX2                !
 ! A32   A(8,7,22)             110.3179         estimate D2E/DX2                !
 ! A33   A(8,7,23)             108.8396         estimate D2E/DX2                !
 ! A34   A(22,7,23)            105.4727         estimate D2E/DX2                !
 ! A35   A(7,8,9)              114.2772         estimate D2E/DX2                !
 ! A36   A(7,8,24)             110.3489         estimate D2E/DX2                !
 ! A37   A(7,8,25)             108.0056         estimate D2E/DX2                !
 ! A38   A(9,8,24)             109.9673         estimate D2E/DX2                !
 ! A39   A(9,8,25)             108.4116         estimate D2E/DX2                !
 ! A40   A(24,8,25)            105.4118         estimate D2E/DX2                !
 ! A41   A(8,9,10)             115.5699         estimate D2E/DX2                !
 ! A42   A(8,9,26)             110.3377         estimate D2E/DX2                !
 ! A43   A(8,9,27)             108.0357         estimate D2E/DX2                !
 ! A44   A(10,9,26)            110.0744         estimate D2E/DX2                !
 ! A45   A(10,9,27)            107.308          estimate D2E/DX2                !
 ! A46   A(26,9,27)            104.9036         estimate D2E/DX2                !
 ! A47   A(9,10,11)            115.1079         estimate D2E/DX2                !
 ! A48   A(9,10,28)            108.4031         estimate D2E/DX2                !
 ! A49   A(9,10,29)            109.6347         estimate D2E/DX2                !
 ! A50   A(11,10,28)           108.4342         estimate D2E/DX2                !
 ! A51   A(11,10,29)           109.2909         estimate D2E/DX2                !
 ! A52   A(28,10,29)           105.527          estimate D2E/DX2                !
 ! A53   A(10,11,30)           111.5223         estimate D2E/DX2                !
 ! A54   A(10,11,31)           110.8311         estimate D2E/DX2                !
 ! A55   A(10,11,32)           111.4568         estimate D2E/DX2                !
 ! A56   A(30,11,31)           107.6005         estimate D2E/DX2                !
 ! A57   A(30,11,32)           108.2365         estimate D2E/DX2                !
 ! A58   A(31,11,32)           106.9951         estimate D2E/DX2                !
 ! D1    D(13,1,2,3)          -179.5935         estimate D2E/DX2                !
 ! D2    D(13,1,2,12)           -0.8171         estimate D2E/DX2                !
 ! D3    D(1,2,3,4)           -167.1539         estimate D2E/DX2                !
 ! D4    D(1,2,3,14)            71.7304         estimate D2E/DX2                !
 ! D5    D(1,2,3,15)           -42.0229         estimate D2E/DX2                !
 ! D6    D(12,2,3,4)            14.1001         estimate D2E/DX2                !
 ! D7    D(12,2,3,14)         -107.0156         estimate D2E/DX2                !
 ! D8    D(12,2,3,15)          139.2312         estimate D2E/DX2                !
 ! D9    D(2,3,4,5)             62.7864         estimate D2E/DX2                !
 ! D10   D(2,3,4,16)          -174.1481         estimate D2E/DX2                !
 ! D11   D(2,3,4,17)           -60.4775         estimate D2E/DX2                !
 ! D12   D(14,3,4,5)          -177.7137         estimate D2E/DX2                !
 ! D13   D(14,3,4,16)          -54.6481         estimate D2E/DX2                !
 ! D14   D(14,3,4,17)           59.0224         estimate D2E/DX2                !
 ! D15   D(15,3,4,5)           -61.8524         estimate D2E/DX2                !
 ! D16   D(15,3,4,16)           61.2132         estimate D2E/DX2                !
 ! D17   D(15,3,4,17)          174.8837         estimate D2E/DX2                !
 ! D18   D(3,4,5,6)             62.3623         estimate D2E/DX2                !
 ! D19   D(3,4,5,18)          -177.1693         estimate D2E/DX2                !
 ! D20   D(3,4,5,19)           -63.8792         estimate D2E/DX2                !
 ! D21   D(16,4,5,6)           -60.7416         estimate D2E/DX2                !
 ! D22   D(16,4,5,18)           59.7268         estimate D2E/DX2                !
 ! D23   D(16,4,5,19)          173.0169         estimate D2E/DX2                !
 ! D24   D(17,4,5,6)          -174.1984         estimate D2E/DX2                !
 ! D25   D(17,4,5,18)          -53.73           estimate D2E/DX2                !
 ! D26   D(17,4,5,19)           59.56           estimate D2E/DX2                !
 ! D27   D(4,5,6,7)            -93.4583         estimate D2E/DX2                !
 ! D28   D(4,5,6,20)            31.4857         estimate D2E/DX2                !
 ! D29   D(4,5,6,21)           146.2138         estimate D2E/DX2                !
 ! D30   D(18,5,6,7)           146.5119         estimate D2E/DX2                !
 ! D31   D(18,5,6,20)          -88.5441         estimate D2E/DX2                !
 ! D32   D(18,5,6,21)           26.184          estimate D2E/DX2                !
 ! D33   D(19,5,6,7)            32.8377         estimate D2E/DX2                !
 ! D34   D(19,5,6,20)          157.7817         estimate D2E/DX2                !
 ! D35   D(19,5,6,21)          -87.4902         estimate D2E/DX2                !
 ! D36   D(5,6,7,8)           -179.0111         estimate D2E/DX2                !
 ! D37   D(5,6,7,22)           -56.2599         estimate D2E/DX2                !
 ! D38   D(5,6,7,23)            59.0992         estimate D2E/DX2                !
 ! D39   D(20,6,7,8)            56.2063         estimate D2E/DX2                !
 ! D40   D(20,6,7,22)          178.9574         estimate D2E/DX2                !
 ! D41   D(20,6,7,23)          -65.6835         estimate D2E/DX2                !
 ! D42   D(21,6,7,8)           -58.4515         estimate D2E/DX2                !
 ! D43   D(21,6,7,22)           64.2996         estimate D2E/DX2                !
 ! D44   D(21,6,7,23)          179.6587         estimate D2E/DX2                !
 ! D45   D(6,7,8,9)           -179.6313         estimate D2E/DX2                !
 ! D46   D(6,7,8,24)            55.8394         estimate D2E/DX2                !
 ! D47   D(6,7,8,25)           -58.9059         estimate D2E/DX2                !
 ! D48   D(22,7,8,9)            58.3949         estimate D2E/DX2                !
 ! D49   D(22,7,8,24)          -66.1344         estimate D2E/DX2                !
 ! D50   D(22,7,8,25)          179.1203         estimate D2E/DX2                !
 ! D51   D(23,7,8,9)           -56.8772         estimate D2E/DX2                !
 ! D52   D(23,7,8,24)          178.5935         estimate D2E/DX2                !
 ! D53   D(23,7,8,25)           63.8482         estimate D2E/DX2                !
 ! D54   D(7,8,9,10)           -92.2513         estimate D2E/DX2                !
 ! D55   D(7,8,9,26)            33.4215         estimate D2E/DX2                !
 ! D56   D(7,8,9,27)           147.5734         estimate D2E/DX2                !
 ! D57   D(24,8,9,10)           32.4809         estimate D2E/DX2                !
 ! D58   D(24,8,9,26)          158.1537         estimate D2E/DX2                !
 ! D59   D(24,8,9,27)          -87.6945         estimate D2E/DX2                !
 ! D60   D(25,8,9,10)          147.2491         estimate D2E/DX2                !
 ! D61   D(25,8,9,26)          -87.0781         estimate D2E/DX2                !
 ! D62   D(25,8,9,27)           27.0738         estimate D2E/DX2                !
 ! D63   D(8,9,10,11)           63.9826         estimate D2E/DX2                !
 ! D64   D(8,9,10,28)         -174.4201         estimate D2E/DX2                !
 ! D65   D(8,9,10,29)          -59.6966         estimate D2E/DX2                !
 ! D66   D(26,9,10,11)         -61.8249         estimate D2E/DX2                !
 ! D67   D(26,9,10,28)          59.7724         estimate D2E/DX2                !
 ! D68   D(26,9,10,29)         174.4959         estimate D2E/DX2                !
 ! D69   D(27,9,10,11)        -175.4465         estimate D2E/DX2                !
 ! D70   D(27,9,10,28)         -53.8492         estimate D2E/DX2                !
 ! D71   D(27,9,10,29)          60.8743         estimate D2E/DX2                !
 ! D72   D(9,10,11,30)          51.7726         estimate D2E/DX2                !
 ! D73   D(9,10,11,31)         171.6287         estimate D2E/DX2                !
 ! D74   D(9,10,11,32)         -69.3216         estimate D2E/DX2                !
 ! D75   D(28,10,11,30)        -69.8079         estimate D2E/DX2                !
 ! D76   D(28,10,11,31)         50.0483         estimate D2E/DX2                !
 ! D77   D(28,10,11,32)        169.0979         estimate D2E/DX2                !
 ! D78   D(29,10,11,30)        175.6335         estimate D2E/DX2                !
 ! D79   D(29,10,11,31)        -64.5104         estimate D2E/DX2                !
 ! D80   D(29,10,11,32)         54.5393         estimate D2E/DX2                !
 --------------------------------------------------------------------------------
 Trust Radius=3.00D-01 FncErr=1.00D-07 GrdErr=1.00D-06 EigMax=2.50D+02 EigMin=1.00D-04
 Number of steps in this run=    179 maximum allowed number of steps=    192.
 GradGradGradGradGradGradGradGradGradGradGradGradGradGradGradGradGradGrad

                          Input orientation:                          
 ---------------------------------------------------------------------
 Center     Atomic      Atomic             Coordinates (Angstroms)
 Number     Number       Type             X           Y           Z
 ---------------------------------------------------------------------
      1          8           0        5.929900   -1.111700   -1.184600
      2          6           0        4.760500   -0.748200   -0.617300
      3          6           0        4.163500   -1.877200    0.223600
      4          6           0        2.689600   -1.682500    0.662000
      5          6           0        1.633600   -1.601700   -0.466000
      6          6           0        1.496800   -2.865200   -1.344800
      7          6           0        2.353200   -2.843400   -2.626600
      8          6           0        2.168900   -4.110100   -3.485400
      9          6           0        3.017700   -4.131500   -4.776100
     10          6           0        2.327000   -3.570100   -6.037000
     11          6           0        1.969900   -2.077700   -5.974600
     12          8           0        4.269400    0.363600   -0.754000
     13          1           0        6.202800   -0.333000   -1.670900
     14          1           0        4.791000   -1.957800    1.110200
     15          1           0        4.276800   -2.820400   -0.308400
     16          1           0        2.416000   -2.495900    1.336400
     17          1           0        2.618100   -0.777900    1.270500
     18          1           0        0.668600   -1.414700    0.008300
     19          1           0        1.806900   -0.722400   -1.089100
     20          1           0        1.716500   -3.757200   -0.755700
     21          1           0        0.451100   -2.964900   -1.641700
     22          1           0        2.102100   -1.954900   -3.204400
     23          1           0        3.407500   -2.738700   -2.376300
     24          1           0        1.114800   -4.252700   -3.730100
     25          1           0        2.444800   -4.973300   -2.877000
     26          1           0        3.969600   -3.623100   -4.612600
     27          1           0        3.285800   -5.168300   -4.987100
     28          1           0        2.986000   -3.731800   -6.891700
     29          1           0        1.425800   -4.147900   -6.249500
     30          1           0        2.830500   -1.472000   -5.688300
     31          1           0        1.623800   -1.720900   -6.945100
     32          1           0        1.167700   -1.889200   -5.261300
 ---------------------------------------------------------------------
                    Distance matrix (angstroms):
                    1          2          3          4          5
     1  O    0.000000
     2  C    1.349614   0.000000
     3  C    2.385202   1.529105   0.000000
     4  C    3.772968   2.607327   1.549995   0.000000
     5  C    4.383455   3.244820   2.636635   1.547271   0.000000
     6  C    4.769990   3.957611   3.247662   2.617021   1.545133
     7  C    4.227402   3.771239   3.512032   3.503676   2.593807
     8  C    5.331904   5.122964   4.766650   4.833766   3.961741
     9  C    5.522588   5.637348   5.602832   5.973122   5.185806
    10  C    6.524600   6.577096   6.740457   6.969298   5.949071
    11  C    6.289583   6.185118   6.577976   6.687198   5.539345
    12  O    2.262562   1.223097   2.447060   2.947431   3.300423
    13  H    0.957776   1.833765   3.183148   4.427883   4.892747
    14  H    2.697978   2.109104   1.089180   2.166231   3.546884
    15  H    2.533796   2.150209   1.088801   2.180756   2.914888
    16  H    4.540809   3.516828   2.162145   1.091463   2.158793
    17  H    4.136056   2.855617   2.166269   1.092559   2.159472
    18  H    5.403341   4.192761   3.531938   2.140907   1.091400
    19  H    4.142439   2.991156   2.934333   2.183415   1.091538
    20  H    4.993532   4.282426   3.237474   2.694657   2.176460
    21  H    5.801770   4.953189   4.294688   3.458680   2.153808
    22  H    4.409380   3.900808   4.000824   3.920256   2.800549
    23  H    3.229517   2.981070   2.841337   3.295786   2.844070
    24  H    6.287340   5.938196   5.528952   5.326956   4.236898
    25  H    5.470109   5.321671   4.706749   4.838782   4.223583
    26  H    4.679860   4.985278   5.145347   5.764177   5.170807
    27  H    6.156807   6.388049   6.225198   6.664727   5.990889
    28  H    6.935594   7.170691   7.446713   7.832360   6.903328
    29  H    7.426886   7.375626   7.385940   7.446088   6.322593
    30  H    5.478997   5.473922   6.073849   6.355350   5.359273
    31  H    7.217824   7.129242   7.606889   7.681496   6.480204
    32  H    6.316846   5.981373   6.249727   6.119182   4.826450
                    6          7          8          9         10
     6  C    0.000000
     7  C    1.541722   0.000000
     8  C    2.565865   1.541439   0.000000
     9  C    3.961120   2.592511   1.544936   0.000000
    10  C    4.816934   3.487063   2.612902   1.543407   0.000000
    11  C    4.720067   3.455766   3.219684   2.598534   1.535797
    12  O    4.296685   4.178912   5.646825   6.160354   6.867096
    13  H    5.353953   4.694134   5.816463   5.849421   6.675588
    14  H    4.207393   4.548717   5.712035   6.520590   7.730024
    15  H    2.967243   3.012444   4.024910   4.823345   6.097592
    16  H    2.858346   3.978702   5.090821   6.356091   7.451769
    17  H    3.529012   4.418580   5.824425   6.925871   7.828198
    18  H    2.149592   3.438278   4.660689   5.982454   6.628853
    19  H    2.180169   2.676003   4.165310   5.165459   5.732505
    20  H    1.091316   2.177311   2.789349   4.242268   5.319760
    21  H    1.091594   2.145408   2.767950   4.215786   4.817046
    22  H    2.157115   1.089191   2.174468   2.836574   3.268497
    23  H    2.175033   1.088651   2.155219   2.801941   3.906332
    24  H    2.785810   2.176574   1.091485   2.174818   2.693912
    25  H    2.773162   2.146524   1.091506   2.154860   3.459544
    26  H    4.167454   2.676729   2.179511   1.091474   2.174824
    27  H    4.665955   3.441927   2.149966   1.091491   2.139119
    28  H    5.808340   4.402359   3.523300   2.153260   1.091302
    29  H    5.070152   3.960706   2.862495   2.169175   1.091408
    30  H    4.752447   3.388593   3.500008   2.817817   2.185664
    31  H    5.717422   4.521225   4.239686   3.529662   2.176850
    32  H    4.049673   3.042623   3.014734   2.947173   2.184287
                   11         12         13         14         15
    11  C    0.000000
    12  O    6.205023   0.000000
    13  H    6.283570   2.250332   0.000000
    14  H    7.626754   3.022616   3.516770   0.000000
    15  H    6.162728   3.215038   3.428271   1.738075   0.000000
    16  H    7.336526   3.997700   5.297343   2.445678   2.504644
    17  H    7.389257   2.851037   4.658309   2.477772   3.068553
    18  H    6.158575   4.087690   5.883635   4.301549   3.885280
    19  H    5.072624   2.712120   4.451299   3.907427   3.333392
    20  H    5.488338   4.847504   5.717484   4.021439   2.762754
    21  H    4.676313   5.142600   6.325330   5.236596   4.053955
    22  H    2.776070   4.009625   4.668825   5.083893   3.723604
    23  H    3.930824   3.605412   3.754821   3.831391   2.244675
    24  H    3.240309   6.333948   6.744783   6.496885   4.874193
    25  H    4.266750   6.026508   6.091767   5.522287   3.819543
    26  H    2.870907   5.556298   4.946265   6.016507   4.389173
    27  H    3.501222   7.034808   6.548755   7.053368   5.327753
    28  H    2.146993   7.489378   7.011162   8.392586   6.770277
    29  H    2.158088   7.657690   7.637851   8.383692   6.722137
    30  H    1.090629   5.457763   5.367423   7.092190   5.731779
    31  H    1.090395   7.047983   7.121144   8.658818   7.231397
    32  H    1.089887   5.917044   6.376909   7.330008   5.921558
                   16         17         18         19         20
    16  H    0.000000
    17  H    1.731101   0.000000
    18  H    2.446681   2.408156   0.000000
    19  H    3.065837   2.495764   1.726063   0.000000
    20  H    2.541075   3.714108   2.677517   3.054397   0.000000
    21  H    3.598593   4.237897   2.274407   2.678127   1.736080
    22  H    4.583675   4.655783   3.559239   2.465906   3.064817
    23  H    3.850476   4.215097   3.865342   2.878241   2.554049
    24  H    5.518051   6.272172   4.714761   4.462836   3.074836
    25  H    4.887850   5.901963   4.913601   4.655497   2.551320
    26  H    6.250988   6.673274   6.093139   5.050385   4.468794
    27  H    6.919893   7.673265   6.774457   6.094881   4.728494
    28  H    8.339903   8.688060   7.638671   6.642058   6.266001
    29  H    7.826588   8.326397   6.870502   6.205563   5.515341
    30  H    7.111019   6.996555   6.093303   4.770985   5.549205
    31  H    8.355325   8.329103   7.025378   5.943338   6.516424
    32  H    6.742105   6.782555   5.314408   4.379184   4.908262
                   21         22         23         24         25
    21  H    0.000000
    22  H    2.487555   0.000000
    23  H    3.054686   1.733252   0.000000
    24  H    2.541720   2.555583   3.062914   0.000000
    25  H    3.087795   3.055384   2.484135   1.736647   0.000000
    26  H    4.651808   2.872886   2.469647   3.053700   2.675885
    27  H    4.907361   3.860713   3.568479   2.670508   2.279875
    28  H    5.880166   4.187462   4.642494   3.710585   4.236984
    29  H    4.856063   3.813039   4.573255   2.540685   3.618481
    30  H    4.925979   2.633157   3.592604   3.809261   4.506803
    31  H    5.572146   3.778408   5.009135   4.123750   5.272721
    32  H    3.843456   2.260145   3.749877   2.816648   4.102139
                   26         27         28         29         30
    26  H    0.000000
    27  H    1.730744   0.000000
    28  H    2.484669   2.404353   0.000000
    29  H    3.070143   2.468698   1.737753   0.000000
    30  H    2.661186   3.789672   2.564965   3.073852   0.000000
    31  H    3.815979   4.298904   2.429436   2.532468   1.760006
    32  H    3.358253   3.913314   3.059345   2.478887   1.766717
                   31         32
    31  H    0.000000
    32  H    1.752579   0.000000
 Stoichiometry    C10H20O2
 Framework group  C1[X(C10H20O2)]
 Deg. of freedom    90
 Full point group                 C1      NOp   1
 Largest Abelian subgroup         C1      NOp   1
 Largest concise Abelian subgroup C1      NOp   1
                         Standard orientation:                         
 ---------------------------------------------------------------------
 Center     Atomic      Atomic             Coordinates (Angstroms)
 Number     Number       Type             X           Y           Z
 ---------------------------------------------------------------------
      1          8           0       -2.228602   -2.259028   -0.775580
      2          6           0       -2.515431   -1.197510    0.006957
      3          6           0       -2.618698    0.093869   -0.805349
      4          6           0       -2.635624    1.407022    0.017954
      5          6           0       -1.372960    1.718354    0.856285
      6          6           0       -0.068075    1.912332    0.051871
      7          6           0        0.779550    0.633744   -0.101919
      8          6           0        2.082554    0.876302   -0.888927
      9          6           0        2.957316   -0.383738   -1.073093
     10          6           0        4.035380   -0.610084    0.007948
     11          6           0        3.495879   -0.861728    1.423676
     12          8           0       -2.691061   -1.286201    1.214125
     13          1           0       -2.197154   -2.995345   -0.163873
     14          1           0       -3.543799    0.019045   -1.375349
     15          1           0       -1.816658    0.120938   -1.541207
     16          1           0       -2.816334    2.242130   -0.661186
     17          1           0       -3.501238    1.395498    0.684486
     18          1           0       -1.570178    2.640102    1.406412
     19          1           0       -1.232921    0.962273    1.631002
     20          1           0       -0.291099    2.340820   -0.926715
     21          1           0        0.541869    2.659706    0.562731
     22          1           0        1.003547    0.237029    0.887413
     23          1           0        0.205491   -0.143534   -0.603372
     24          1           0        2.666731    1.670373   -0.420390
     25          1           0        1.814547    1.257213   -1.876077
     26          1           0        2.329032   -1.271269   -1.167241
     27          1           0        3.471624   -0.300842   -2.032243
     28          1           0        4.644196   -1.466533   -0.286634
     29          1           0        4.718562    0.240807    0.028396
     30          1           0        2.749723   -1.657124    1.431998
     31          1           0        4.300048   -1.156961    2.098295
     32          1           0        3.041967    0.036137    1.842788
 ---------------------------------------------------------------------
 Rotational constants (GHZ):           1.1614383           0.4046878           0.3544339
 Standard basis: 6-31G(d,p) (6D, 7F)
 There are   280 symmetry adapted cartesian basis functions of A   symmetry.
 There are   280 symmetry adapted basis functions of A   symmetry.
   280 basis functions,   476 primitive gaussians,   280 cartesian basis functions
    48 alpha electrons       48 beta electrons
       nuclear repulsion energy       730.9029797947 Hartrees.
 NAtoms=   32 NActive=   32 NUniq=   32 SFac= 1.00D+00 NAtFMM=   60 NAOKFM=F Big=F
 Integral buffers will be    131072 words long.
 Raffenetti 2 integral format.
 Two-electron integral symmetry is turned on.
 Nuclear repulsion after empirical dispersion term =      730.8538443661 Hartrees.
 One-electron integrals computed using PRISM.
 NBasis=   280 RedAO= T EigKep=  3.17D-03  NBF=   280
 NBsUse=   280 1.00D-06 EigRej= -1.00D+00 NBFU=   280
 ExpMin= 1.61D-01 ExpMax= 5.48D+03 ExpMxC= 8.25D+02 IAcc=3 IRadAn=         5 AccDes= 0.00D+00
 Harris functional with IExCor=  402 and IRadAn=       5 diagonalized for initial guess.
 HarFok:  IExCor=  402 AccDes= 0.00D+00 IRadAn=         5 IDoV= 1 UseB2=F ITyADJ=14
 ICtDFT=  3500011 ScaDFX=  1.000000  1.000000  1.000000  1.000000
 FoFCou: FMM=F IPFlag=           0 FMFlag=      100000 FMFlg1=           0
         NFxFlg=           0 DoJE=T BraDBF=F KetDBF=T FulRan=T
         wScrn=  0.000000 ICntrl=       500 IOpCl=  0 I1Cent=   200000004 NGrid=           0
         NMat0=    1 NMatS0=      1 NMatT0=    0 NMatD0=    1 NMtDS0=    0 NMtDT0=    0
 Petite list used in FoFCou.
 Requested convergence on RMS density matrix=1.00D-08 within 128 cycles.
 Requested convergence on MAX density matrix=1.00D-06.
 Requested convergence on             energy=1.00D-06.
 No special actions if energy rises.
 Integral accuracy reduced to 1.0D-05 until final iterations.
 Initial convergence to 1.0D-05 achieved.  Increase integral accuracy.
 SCF Done:  E(RB3LYP) =  -543.660762952     A.U. after   13 cycles
            NFock= 13  Conv=0.66D-08     -V/T= 2.0096

 **********************************************************************

            Population analysis using the SCF Density.

 **********************************************************************

 Orbital symmetries:
       Occupied  (A) (A) (A) (A) (A) (A) (A) (A) (A) (A) (A) (A)
                 (A) (A) (A) (A) (A) (A) (A) (A) (A) (A) (A) (A)
                 (A) (A) (A) (A) (A) (A) (A) (A) (A) (A) (A) (A)
                 (A) (A) (A) (A) (A) (A) (A) (A) (A) (A) (A) (A)
       Virtual   (A) (A) (A) (A) (A) (A) (A) (A) (A) (A) (A) (A)
                 (A) (A) (A) (A) (A) (A) (A) (A) (A) (A) (A) (A)
                 (A) (A) (A) (A) (A) (A) (A) (A) (A) (A) (A) (A)
                 (A) (A) (A) (A) (A) (A) (A) (A) (A) (A) (A) (A)
                 (A) (A) (A) (A) (A) (A) (A) (A) (A) (A) (A) (A)
                 (A) (A) (A) (A) (A) (A) (A) (A) (A) (A) (A) (A)
                 (A) (A) (A) (A) (A) (A) (A) (A) (A) (A) (A) (A)
                 (A) (A) (A) (A) (A) (A) (A) (A) (A) (A) (A) (A)
                 (A) (A) (A) (A) (A) (A) (A) (A) (A) (A) (A) (A)
                 (A) (A) (A) (A) (A) (A) (A) (A) (A) (A) (A) (A)
                 (A) (A) (A) (A) (A) (A) (A) (A) (A) (A) (A) (A)
                 (A) (A) (A) (A) (A) (A) (A) (A) (A) (A) (A) (A)
                 (A) (A) (A) (A) (A) (A) (A) (A) (A) (A) (A) (A)
                 (A) (A) (A) (A) (A) (A) (A) (A) (A) (A) (A) (A)
                 (A) (A) (A) (A) (A) (A) (A) (A) (A) (A) (A) (A)
                 (A) (A) (A) (A) (A) (A) (A) (A) (A) (A) (A) (A)
                 (A) (A) (A) (A) (A) (A) (A) (A) (A) (A) (A) (A)
                 (A) (A) (A) (A) (A) (A) (A) (A) (A) (A) (A) (A)
                 (A) (A) (A) (A) (A) (A) (A) (A) (A) (A) (A) (A)
                 (A) (A) (A) (A)
 The electronic state is 1-A.
 Alpha  occ. eigenvalues --  -19.19980 -19.13896 -10.32227 -10.20041 -10.18548
 Alpha  occ. eigenvalues --  -10.17566 -10.17417 -10.17368 -10.17353 -10.17348
 Alpha  occ. eigenvalues --  -10.17225 -10.16805  -1.10903  -1.01178  -0.80844
 Alpha  occ. eigenvalues --   -0.79191  -0.76218  -0.72721  -0.68980  -0.64933
 Alpha  occ. eigenvalues --   -0.61257  -0.58428  -0.56426  -0.55627  -0.49268
 Alpha  occ. eigenvalues --   -0.48229  -0.47883  -0.46274  -0.44496  -0.44200
 Alpha  occ. eigenvalues --   -0.42696  -0.41702  -0.40134  -0.39764  -0.38944
 Alpha  occ. eigenvalues --   -0.37712  -0.37076  -0.36497  -0.34804  -0.34410
 Alpha  occ. eigenvalues --   -0.33469  -0.32736  -0.32037  -0.31681  -0.31017
 Alpha  occ. eigenvalues --   -0.30359  -0.29346  -0.27258
 Alpha virt. eigenvalues --    0.00794   0.07678   0.08519   0.09463   0.11307
 Alpha virt. eigenvalues --    0.12141   0.12571   0.14318   0.14975   0.15434
 Alpha virt. eigenvalues --    0.15919   0.16825   0.17270   0.17495   0.17984
 Alpha virt. eigenvalues --    0.18661   0.19158   0.19876   0.20236   0.21400
 Alpha virt. eigenvalues --    0.21760   0.22099   0.23035   0.24145   0.25407
 Alpha virt. eigenvalues --    0.25649   0.28735   0.29378   0.29496   0.30546
 Alpha virt. eigenvalues --    0.32075   0.36875   0.48161   0.49947   0.50604
 Alpha virt. eigenvalues --    0.51563   0.53244   0.53406   0.53788   0.54848
 Alpha virt. eigenvalues --    0.58195   0.58807   0.60764   0.61967   0.62513
 Alpha virt. eigenvalues --    0.64002   0.64865   0.65066   0.66632   0.67624
 Alpha virt. eigenvalues --    0.70020   0.70520   0.70935   0.72173   0.73866
 Alpha virt. eigenvalues --    0.74308   0.77067   0.78012   0.79586   0.81055
 Alpha virt. eigenvalues --    0.82876   0.83811   0.84473   0.85140   0.86461
 Alpha virt. eigenvalues --    0.87130   0.87589   0.88993   0.89305   0.91240
 Alpha virt. eigenvalues --    0.91701   0.92207   0.92601   0.93721   0.94415
 Alpha virt. eigenvalues --    0.94944   0.95635   0.95875   0.96210   0.96839
 Alpha virt. eigenvalues --    0.97476   0.98423   0.99748   1.01576   1.05403
 Alpha virt. eigenvalues --    1.06564   1.09349   1.10669   1.15208   1.16011
 Alpha virt. eigenvalues --    1.17770   1.24831   1.28197   1.31446   1.35001
 Alpha virt. eigenvalues --    1.38218   1.41366   1.42646   1.45096   1.47716
 Alpha virt. eigenvalues --    1.48513   1.52791   1.53744   1.55609   1.58293
 Alpha virt. eigenvalues --    1.58660   1.62447   1.63418   1.65045   1.67840
 Alpha virt. eigenvalues --    1.69260   1.71971   1.73027   1.74216   1.75217
 Alpha virt. eigenvalues --    1.76310   1.77430   1.81135   1.82142   1.83918
 Alpha virt. eigenvalues --    1.85241   1.85482   1.87531   1.88781   1.89630
 Alpha virt. eigenvalues --    1.90559   1.91618   1.91811   1.93072   1.95629
 Alpha virt. eigenvalues --    1.96944   1.99647   2.03954   2.06007   2.07242
 Alpha virt. eigenvalues --    2.09199   2.11485   2.12082   2.14048   2.14925
 Alpha virt. eigenvalues --    2.15829   2.17077   2.19291   2.20601   2.21958
 Alpha virt. eigenvalues --    2.23190   2.24054   2.24611   2.25270   2.26604
 Alpha virt. eigenvalues --    2.27666   2.28650   2.31008   2.31666   2.32682
 Alpha virt. eigenvalues --    2.34499   2.35334   2.38132   2.39278   2.41135
 Alpha virt. eigenvalues --    2.42405   2.44918   2.45334   2.46218   2.48117
 Alpha virt. eigenvalues --    2.50874   2.53247   2.55637   2.58052   2.58863
 Alpha virt. eigenvalues --    2.60103   2.62363   2.63866   2.64840   2.66231
 Alpha virt. eigenvalues --    2.67543   2.70862   2.70896   2.73927   2.74910
 Alpha virt. eigenvalues --    2.76443   2.77527   2.79056   2.79206   2.82456
 Alpha virt. eigenvalues --    2.84802   2.86075   2.86720   2.87437   2.89475
 Alpha virt. eigenvalues --    2.90329   2.91710   2.91940   2.92554   2.92734
 Alpha virt. eigenvalues --    2.93739   2.95743   2.96857   3.00822   3.14846
 Alpha virt. eigenvalues --    3.20211   3.26562   3.29123   3.31495   3.32646
 Alpha virt. eigenvalues --    3.33454   3.34952   3.36145   3.38269   3.41805
 Alpha virt. eigenvalues --    3.42341   3.43609   3.45318   3.47081   3.48497
 Alpha virt. eigenvalues --    3.53869   3.55121   3.57138   3.59636   3.62087
 Alpha virt. eigenvalues --    3.93223   4.14805   4.24564   4.29792   4.32518
 Alpha virt. eigenvalues --    4.43073   4.53203   4.60583   4.63559   4.68938
 Alpha virt. eigenvalues --    4.72014   4.76490
          Condensed to atoms (all electrons):
               1          2          3          4          5          6
     1  O    8.120328   0.251928  -0.093314   0.002611  -0.000066   0.000030
     2  C    0.251928   4.380019   0.323926  -0.033864  -0.002470  -0.000894
     3  C   -0.093314   0.323926   5.143830   0.344704  -0.043004  -0.001904
     4  C    0.002611  -0.033864   0.344704   4.892726   0.383458  -0.040054
     5  C   -0.000066  -0.002470  -0.043004   0.383458   4.925462   0.355683
     6  C    0.000030  -0.000894  -0.001904  -0.040054   0.355683   4.925339
     7  C   -0.000506   0.000328  -0.000318  -0.001801  -0.034357   0.373044
     8  C    0.000004   0.000006  -0.000053  -0.000011   0.003647  -0.036677
     9  C   -0.000001  -0.000001   0.000003   0.000001  -0.000123   0.003619
    10  C   -0.000000   0.000000  -0.000000  -0.000000   0.000001  -0.000007
    11  C    0.000000  -0.000000   0.000000  -0.000000   0.000002  -0.000053
    12  O   -0.080311   0.565758  -0.084025   0.004945  -0.004259   0.000018
    13  H    0.267690  -0.009505   0.011332  -0.000320   0.000013  -0.000002
    14  H    0.001647  -0.026214   0.366048  -0.026814   0.004017  -0.000077
    15  H    0.002181  -0.027219   0.366824  -0.036163  -0.005354   0.003994
    16  H   -0.000049   0.004831  -0.032449   0.373943  -0.038485  -0.007433
    17  H    0.000081  -0.005893  -0.036593   0.379436  -0.030144   0.004640
    18  H    0.000000  -0.000004   0.005235  -0.032995   0.370427  -0.032777
    19  H   -0.000023   0.004218  -0.008505  -0.034362   0.385669  -0.042107
    20  H   -0.000002   0.000112  -0.000372  -0.007455  -0.043104   0.381989
    21  H    0.000000  -0.000004   0.000000   0.004117  -0.032117   0.379936
    22  H   -0.000015   0.000211   0.000037  -0.000052  -0.004909  -0.036133
    23  H    0.002057   0.001057  -0.001108   0.000346  -0.000584  -0.042778
    24  H   -0.000000  -0.000000  -0.000001  -0.000002   0.000045  -0.003185
    25  H   -0.000000   0.000002   0.000004   0.000001   0.000025  -0.004751
    26  H    0.000001   0.000003  -0.000004  -0.000000  -0.000002   0.000228
    27  H    0.000000  -0.000000  -0.000000   0.000000   0.000002  -0.000168
    28  H    0.000000  -0.000000   0.000000  -0.000000  -0.000000   0.000002
    29  H   -0.000000   0.000000  -0.000000  -0.000000  -0.000000   0.000008
    30  H   -0.000000   0.000001  -0.000000  -0.000000  -0.000000   0.000014
    31  H    0.000000   0.000000  -0.000000   0.000000  -0.000000  -0.000001
    32  H    0.000000  -0.000000   0.000000   0.000000  -0.000010   0.000120
               7          8          9         10         11         12
     1  O   -0.000506   0.000004  -0.000001  -0.000000   0.000000  -0.080311
     2  C    0.000328   0.000006  -0.000001   0.000000  -0.000000   0.565758
     3  C   -0.000318  -0.000053   0.000003  -0.000000   0.000000  -0.084025
     4  C   -0.001801  -0.000011   0.000001  -0.000000  -0.000000   0.004945
     5  C   -0.034357   0.003647  -0.000123   0.000001   0.000002  -0.004259
     6  C    0.373044  -0.036677   0.003619  -0.000007  -0.000053   0.000018
     7  C    4.915567   0.373413  -0.033308  -0.001532  -0.001304   0.000167
     8  C    0.373413   4.913560   0.360836  -0.039415  -0.001539   0.000001
     9  C   -0.033308   0.360836   4.911898   0.387163  -0.048913   0.000000
    10  C   -0.001532  -0.039415   0.387163   4.857624   0.375042   0.000000
    11  C   -0.001304  -0.001539  -0.048913   0.375042   4.918240  -0.000000
    12  O    0.000167   0.000001   0.000000   0.000000  -0.000000   8.044863
    13  H    0.000002   0.000000   0.000000  -0.000000  -0.000000   0.011367
    14  H    0.000093  -0.000001  -0.000000   0.000000  -0.000000   0.000159
    15  H   -0.001222   0.000027  -0.000011   0.000000   0.000000   0.002290
    16  H   -0.000046   0.000005  -0.000000  -0.000000  -0.000000   0.000214
    17  H   -0.000096   0.000002  -0.000000  -0.000000   0.000000   0.004293
    18  H    0.004025  -0.000173   0.000002   0.000000  -0.000000   0.000071
    19  H   -0.007607   0.000228  -0.000002  -0.000000  -0.000006   0.007240
    20  H   -0.040902  -0.002956   0.000037  -0.000003  -0.000001  -0.000004
    21  H   -0.039627  -0.004742   0.000030  -0.000002   0.000011  -0.000001
    22  H    0.386123  -0.041130  -0.001294  -0.000008   0.001295  -0.000008
    23  H    0.379045  -0.036695  -0.005239  -0.000095   0.000067  -0.000415
    24  H   -0.040391   0.384501  -0.042377  -0.007825  -0.000332  -0.000000
    25  H   -0.039821   0.378837  -0.032814   0.004113  -0.000012  -0.000000
    26  H   -0.008819  -0.043531   0.383037  -0.037254  -0.006692  -0.000000
    27  H    0.004045  -0.032696   0.372121  -0.034490   0.005497  -0.000000
    28  H   -0.000105   0.004878  -0.034423   0.382759  -0.040731  -0.000000
    29  H   -0.000117  -0.007588  -0.037333   0.385847  -0.040937   0.000000
    30  H   -0.000181  -0.001129  -0.004733  -0.035661   0.387655   0.000000
    31  H    0.000124  -0.000078   0.004614  -0.028034   0.378571  -0.000000
    32  H   -0.002587   0.003782  -0.004259  -0.033430   0.388741  -0.000000
              13         14         15         16         17         18
     1  O    0.267690   0.001647   0.002181  -0.000049   0.000081   0.000000
     2  C   -0.009505  -0.026214  -0.027219   0.004831  -0.005893  -0.000004
     3  C    0.011332   0.366048   0.366824  -0.032449  -0.036593   0.005235
     4  C   -0.000320  -0.026814  -0.036163   0.373943   0.379436  -0.032995
     5  C    0.000013   0.004017  -0.005354  -0.038485  -0.030144   0.370427
     6  C   -0.000002  -0.000077   0.003994  -0.007433   0.004640  -0.032777
     7  C    0.000002   0.000093  -0.001222  -0.000046  -0.000096   0.004025
     8  C    0.000000  -0.000001   0.000027   0.000005   0.000002  -0.000173
     9  C    0.000000  -0.000000  -0.000011  -0.000000  -0.000000   0.000002
    10  C   -0.000000   0.000000   0.000000  -0.000000  -0.000000   0.000000
    11  C   -0.000000  -0.000000   0.000000  -0.000000   0.000000  -0.000000
    12  O    0.011367   0.000159   0.002290   0.000214   0.004293   0.000071
    13  H    0.401482  -0.000384  -0.000402   0.000004  -0.000006  -0.000000
    14  H   -0.000384   0.581250  -0.027777  -0.003197  -0.003546  -0.000143
    15  H   -0.000402  -0.027777   0.585495  -0.003177   0.005388  -0.000009
    16  H    0.000004  -0.003197  -0.003177   0.646238  -0.038797  -0.004333
    17  H   -0.000006  -0.003546   0.005388  -0.038797   0.619940  -0.004138
    18  H   -0.000000  -0.000143  -0.000009  -0.004333  -0.004138   0.651369
    19  H    0.000006   0.000053  -0.000146   0.005694  -0.003608  -0.036401
    20  H    0.000000  -0.000109   0.001224   0.004911   0.000166   0.001208
    21  H    0.000000   0.000003  -0.000096   0.000128  -0.000211  -0.010024
    22  H    0.000001  -0.000006   0.000019   0.000007   0.000011   0.000161
    23  H    0.000005   0.000107   0.001667   0.000060  -0.000063  -0.000079
    24  H    0.000000   0.000000  -0.000001   0.000000  -0.000000  -0.000004
    25  H   -0.000000  -0.000001   0.000081  -0.000003   0.000000   0.000003
    26  H    0.000000   0.000000  -0.000003   0.000000  -0.000000   0.000000
    27  H    0.000000  -0.000000   0.000000   0.000000   0.000000  -0.000000
    28  H   -0.000000   0.000000  -0.000000   0.000000  -0.000000   0.000000
    29  H    0.000000  -0.000000  -0.000000  -0.000000   0.000000   0.000000
    30  H    0.000000   0.000000  -0.000000   0.000000  -0.000000   0.000000
    31  H   -0.000000  -0.000000   0.000000  -0.000000   0.000000  -0.000000
    32  H   -0.000000   0.000000  -0.000000  -0.000000  -0.000000   0.000000
              19         20         21         22         23         24
     1  O   -0.000023  -0.000002   0.000000  -0.000015   0.002057  -0.000000
     2  C    0.004218   0.000112  -0.000004   0.000211   0.001057  -0.000000
     3  C   -0.008505  -0.000372   0.000000   0.000037  -0.001108  -0.000001
     4  C   -0.034362  -0.007455   0.004117  -0.000052   0.000346  -0.000002
     5  C    0.385669  -0.043104  -0.032117  -0.004909  -0.000584   0.000045
     6  C   -0.042107   0.381989   0.379936  -0.036133  -0.042778  -0.003185
     7  C   -0.007607  -0.040902  -0.039627   0.386123   0.379045  -0.040391
     8  C    0.000228  -0.002956  -0.004742  -0.041130  -0.036695   0.384501
     9  C   -0.000002   0.000037   0.000030  -0.001294  -0.005239  -0.042377
    10  C   -0.000000  -0.000003  -0.000002  -0.000008  -0.000095  -0.007825
    11  C   -0.000006  -0.000001   0.000011   0.001295   0.000067  -0.000332
    12  O    0.007240  -0.000004  -0.000001  -0.000008  -0.000415  -0.000000
    13  H    0.000006   0.000000   0.000000   0.000001   0.000005   0.000000
    14  H    0.000053  -0.000109   0.000003  -0.000006   0.000107   0.000000
    15  H   -0.000146   0.001224  -0.000096   0.000019   0.001667  -0.000001
    16  H    0.005694   0.004911   0.000128   0.000007   0.000060   0.000000
    17  H   -0.003608   0.000166  -0.000211   0.000011  -0.000063  -0.000000
    18  H   -0.036401   0.001208  -0.010024   0.000161  -0.000079  -0.000004
    19  H    0.601709   0.005182   0.001039   0.005070  -0.000002   0.000007
    20  H    0.005182   0.651124  -0.040480   0.005890  -0.006001  -0.000600
    21  H    0.001039  -0.040480   0.646555  -0.006374   0.006351   0.005471
    22  H    0.005070   0.005890  -0.006374   0.627048  -0.042102  -0.005575
    23  H   -0.000002  -0.006001   0.006351  -0.042102   0.650015   0.005957
    24  H    0.000007  -0.000600   0.005471  -0.005575   0.005957   0.643172
    25  H    0.000010   0.005456  -0.000680   0.006154  -0.006703  -0.040833
    26  H    0.000001   0.000008   0.000010   0.000294   0.005384   0.005502
    27  H    0.000000  -0.000004   0.000003  -0.000041   0.000167   0.001217
    28  H   -0.000000  -0.000000   0.000000  -0.000053   0.000013   0.000172
    29  H    0.000000   0.000000  -0.000004   0.000102   0.000008   0.004982
    30  H   -0.000000  -0.000000   0.000000   0.001419   0.000104   0.000168
    31  H    0.000000   0.000000  -0.000001   0.000021  -0.000008  -0.000069
    32  H   -0.000006  -0.000003   0.000081   0.002363   0.000064   0.000907
              25         26         27         28         29         30
     1  O   -0.000000   0.000001   0.000000   0.000000  -0.000000  -0.000000
     2  C    0.000002   0.000003  -0.000000  -0.000000   0.000000   0.000001
     3  C    0.000004  -0.000004  -0.000000   0.000000  -0.000000  -0.000000
     4  C    0.000001  -0.000000   0.000000  -0.000000  -0.000000  -0.000000
     5  C    0.000025  -0.000002   0.000002  -0.000000  -0.000000  -0.000000
     6  C   -0.004751   0.000228  -0.000168   0.000002   0.000008   0.000014
     7  C   -0.039821  -0.008819   0.004045  -0.000105  -0.000117  -0.000181
     8  C    0.378837  -0.043531  -0.032696   0.004878  -0.007588  -0.001129
     9  C   -0.032814   0.383037   0.372121  -0.034423  -0.037333  -0.004733
    10  C    0.004113  -0.037254  -0.034490   0.382759   0.385847  -0.035661
    11  C   -0.000012  -0.006692   0.005497  -0.040731  -0.040937   0.387655
    12  O   -0.000000  -0.000000  -0.000000  -0.000000   0.000000   0.000000
    13  H   -0.000000   0.000000   0.000000  -0.000000   0.000000   0.000000
    14  H   -0.000001   0.000000  -0.000000   0.000000  -0.000000   0.000000
    15  H    0.000081  -0.000003   0.000000  -0.000000  -0.000000  -0.000000
    16  H   -0.000003   0.000000   0.000000   0.000000  -0.000000   0.000000
    17  H    0.000000  -0.000000   0.000000  -0.000000   0.000000  -0.000000
    18  H    0.000003   0.000000  -0.000000   0.000000   0.000000   0.000000
    19  H    0.000010   0.000001   0.000000  -0.000000   0.000000  -0.000000
    20  H    0.005456   0.000008  -0.000004  -0.000000   0.000000  -0.000000
    21  H   -0.000680   0.000010   0.000003   0.000000  -0.000004   0.000000
    22  H    0.006154   0.000294  -0.000041  -0.000053   0.000102   0.001419
    23  H   -0.006703   0.005384   0.000167   0.000013   0.000008   0.000104
    24  H   -0.040833   0.005502   0.001217   0.000172   0.004982   0.000168
    25  H    0.652791   0.001074  -0.009805  -0.000225   0.000111  -0.000010
    26  H    0.001074   0.645002  -0.039845  -0.003870   0.005939   0.005029
    27  H   -0.009805  -0.039845   0.656354  -0.004199  -0.004284   0.000003
    28  H   -0.000225  -0.003870  -0.004199   0.649312  -0.039969  -0.003534
    29  H    0.000111   0.005939  -0.004284  -0.039969   0.643948   0.005613
    30  H   -0.000010   0.005029   0.000003  -0.003534   0.005613   0.610966
    31  H    0.000003   0.000007  -0.000190  -0.005783  -0.001928  -0.032529
    32  H   -0.000067  -0.000216  -0.000054   0.005624  -0.006491  -0.035287
              31         32
     1  O    0.000000   0.000000
     2  C    0.000000  -0.000000
     3  C   -0.000000   0.000000
     4  C    0.000000   0.000000
     5  C   -0.000000  -0.000010
     6  C   -0.000001   0.000120
     7  C    0.000124  -0.002587
     8  C   -0.000078   0.003782
     9  C    0.004614  -0.004259
    10  C   -0.028034  -0.033430
    11  C    0.378571   0.388741
    12  O   -0.000000  -0.000000
    13  H   -0.000000  -0.000000
    14  H   -0.000000   0.000000
    15  H    0.000000  -0.000000
    16  H   -0.000000  -0.000000
    17  H    0.000000  -0.000000
    18  H   -0.000000   0.000000
    19  H    0.000000  -0.000006
    20  H    0.000000  -0.000003
    21  H   -0.000001   0.000081
    22  H    0.000021   0.002363
    23  H   -0.000008   0.000064
    24  H   -0.000069   0.000907
    25  H    0.000003  -0.000067
    26  H    0.000007  -0.000216
    27  H   -0.000190  -0.000054
    28  H   -0.005783   0.005624
    29  H   -0.001928  -0.006491
    30  H   -0.032529  -0.035287
    31  H    0.620065  -0.032311
    32  H   -0.032311   0.605261
 Mulliken charges:
               1
     1  O   -0.474272
     2  C    0.573670
     3  C   -0.260292
     4  C   -0.172393
     5  C   -0.189463
     6  C   -0.179661
     7  C   -0.181328
     8  C   -0.175313
     9  C   -0.178531
    10  C   -0.174790
    11  C   -0.314599
    12  O   -0.472364
    13  H    0.318717
    14  H    0.134893
    15  H    0.132390
    16  H    0.091934
    17  H    0.109140
    18  H    0.088578
    19  H    0.116650
    20  H    0.084686
    21  H    0.090628
    22  H    0.101470
    23  H    0.089396
    24  H    0.089092
    25  H    0.087059
    26  H    0.088718
    27  H    0.086365
    28  H    0.090131
    29  H    0.092092
    30  H    0.102091
    31  H    0.097527
    32  H    0.107778
 Sum of Mulliken charges =  -0.00000
 Mulliken charges with hydrogens summed into heavy atoms:
               1
     1  O   -0.155554
     2  C    0.573670
     3  C    0.006991
     4  C    0.028680
     5  C    0.015766
     6  C   -0.004347
     7  C    0.009538
     8  C    0.000838
     9  C   -0.003448
    10  C    0.007433
    11  C   -0.007203
    12  O   -0.472364
 Electronic spatial extent (au):  <R**2>=           3362.0513
 Charge=              0.0000 electrons
 Dipole moment (field-independent basis, Debye):
    X=              0.3135    Y=              0.0283    Z=             -1.3560  Tot=              1.3921
 Quadrupole moment (field-independent basis, Debye-Ang):
   XX=            -76.4788   YY=            -71.1604   ZZ=            -80.0988
   XY=             -0.6217   XZ=              4.8271   YZ=              0.4550
 Traceless Quadrupole moment (field-independent basis, Debye-Ang):
   XX=             -0.5662   YY=              4.7523   ZZ=             -4.1861
   XY=             -0.6217   XZ=              4.8271   YZ=              0.4550
 Octapole moment (field-independent basis, Debye-Ang**2):
  XXX=            -22.9922  YYY=            -39.3176  ZZZ=             -3.0054  XYY=            -17.1919
  XXY=             -1.5778  XXZ=            -13.8136  XZZ=              2.2295  YZZ=              3.4964
  YYZ=              3.7688  XYZ=             -1.8274
 Hexadecapole moment (field-independent basis, Debye-Ang**3):
 XXXX=          -3089.8443 YYYY=           -784.3639 ZZZZ=           -456.8809 XXXY=             26.2511
 XXXZ=             46.0388 YYYX=             85.0748 YYYZ=             -2.3148 ZZZX=              3.0379
 ZZZY=              2.9839 XXYY=           -644.2749 XXZZ=           -617.4219 YYZZ=           -235.2795
 XXYZ=              9.7120 YYXZ=             -4.1033 ZZXY=             -7.2246
 N-N= 7.308538443661D+02 E-N=-2.725077331708D+03  KE= 5.384779037764D+02
 Calling FoFJK, ICntrl=      2127 FMM=F ISym2X=0 I1Cent= 0 IOpClX= 0 NMat=1 NMatS=1 NMatT=0.
 ***** Axes restored to original set *****
 -------------------------------------------------------------------
 Center     Atomic                   Forces (Hartrees/Bohr)
 Number     Number              X              Y              Z
 -------------------------------------------------------------------
      1        8          -0.005371093   -0.007767091    0.005108136
      2        6          -0.022254012    0.005554883    0.009050540
      3        6          -0.009489234    0.004711571   -0.002263485
      4        6           0.002958100    0.007275670   -0.008108183
      5        6           0.002344972   -0.004297990    0.003252816
      6        6           0.003939316    0.008423459   -0.005023286
      7        6          -0.007248149   -0.007545740    0.002737502
      8        6           0.008649552    0.006926527    0.000331608
      9        6          -0.008718413   -0.003329476   -0.003346006
     10        6           0.004621446    0.005915639    0.004938751
     11        6          -0.001198819   -0.005137434   -0.000617721
     12        8           0.009915429   -0.015614579   -0.000213615
     13        1           0.008182767    0.011250362   -0.008941374
     14        1           0.003829316   -0.000981230    0.004129499
     15        1           0.002752997   -0.002097654   -0.002857823
     16        1           0.001758785   -0.004994947    0.000210332
     17        1           0.001275517    0.003359998   -0.001037882
     18        1          -0.002175802    0.000020087    0.003932496
     19        1           0.004028866    0.001089482   -0.001844114
     20        1           0.002428582   -0.003786643    0.002375972
     21        1          -0.003376505   -0.000668660   -0.001974503
     22        1          -0.001878898    0.003221982   -0.001895588
     23        1           0.005560865   -0.000423818    0.001143681
     24        1          -0.004350295    0.001048721   -0.001563234
     25        1           0.000983691   -0.002655559    0.003143025
     26        1           0.002390805    0.004347358    0.001365856
     27        1           0.000499943   -0.003724175   -0.001610885
     28        1           0.003267247   -0.000929324   -0.002579501
     29        1          -0.003563816   -0.002449699    0.000914722
     30        1           0.002448186    0.001359005    0.001311917
     31        1          -0.000948937    0.000824918   -0.002879291
     32        1          -0.001262409    0.001074359    0.002809637
 -------------------------------------------------------------------
 Cartesian Forces:  Max     0.022254012 RMS     0.005159882

 GradGradGradGradGradGradGradGradGradGradGradGradGradGradGradGradGradGrad
 Berny optimization.
 FormGI is forming the generalized inverse of G from B-inverse, IUseBI=4.
 Internal  Forces:  Max     0.018150838 RMS     0.003176798
 Search for a local minimum.
 Step number   1 out of a maximum of  179
 All quantities printed in internal units (Hartrees-Bohrs-Radians)
 Mixed Optimization -- RFO/linear search
 Second derivative matrix not updated -- first step.
 ITU=  0
     Eigenvalues ---    0.00230   0.00230   0.00230   0.00230   0.00230
     Eigenvalues ---    0.00230   0.00230   0.00292   0.00381   0.00859
     Eigenvalues ---    0.02358   0.03013   0.03056   0.03081   0.03191
     Eigenvalues ---    0.03209   0.03219   0.03378   0.03600   0.04621
     Eigenvalues ---    0.04660   0.04665   0.04691   0.04692   0.04693
     Eigenvalues ---    0.04704   0.05191   0.05359   0.05488   0.08314
     Eigenvalues ---    0.08581   0.08593   0.08727   0.08814   0.08838
     Eigenvalues ---    0.09002   0.09843   0.12204   0.12408   0.12419
     Eigenvalues ---    0.12500   0.12579   0.12601   0.12687   0.13152
     Eigenvalues ---    0.16000   0.16000   0.16000   0.16000   0.21860
     Eigenvalues ---    0.21897   0.21900   0.21901   0.21911   0.21923
     Eigenvalues ---    0.21932   0.21974   0.24996   0.25000   0.27652
     Eigenvalues ---    0.27884   0.28069   0.28086   0.28219   0.28367
     Eigenvalues ---    0.28392   0.28895   0.29506   0.34519   0.34629
     Eigenvalues ---    0.34636   0.34639   0.34641   0.34642   0.34643
     Eigenvalues ---    0.34644   0.34650   0.34651   0.34661   0.34663
     Eigenvalues ---    0.34740   0.34767   0.34826   0.34906   0.34908
     Eigenvalues ---    0.34952   0.34969   0.55104   0.55954   0.94024
 RFO step:  Lambda=-6.83453290D-03 EMin= 2.30000000D-03
 Linear search not attempted -- first point.
 Iteration  1 RMS(Cart)=  0.15180813 RMS(Int)=  0.00267899
 Iteration  2 RMS(Cart)=  0.00635658 RMS(Int)=  0.00019181
 Iteration  3 RMS(Cart)=  0.00001490 RMS(Int)=  0.00019162
 Iteration  4 RMS(Cart)=  0.00000000 RMS(Int)=  0.00019162
 Variable       Old X    -DE/DX   Delta X   Delta X   Delta X     New X
                                 (Linear)    (Quad)   (Total)
    R1        2.55040   0.00311   0.00000   0.00557   0.00557   2.55597
    R2        1.80994   0.01602   0.00000   0.02828   0.02828   1.83822
    R3        2.88959  -0.01132   0.00000  -0.03751  -0.03751   2.85208
    R4        2.31132  -0.01815   0.00000  -0.01917  -0.01917   2.29215
    R5        2.92907  -0.01234   0.00000  -0.04353  -0.04353   2.88553
    R6        2.05825   0.00564   0.00000   0.01585   0.01585   2.07410
    R7        2.05754   0.00350   0.00000   0.00982   0.00982   2.06736
    R8        2.92392  -0.00802   0.00000  -0.02808  -0.02808   2.89584
    R9        2.06257   0.00341   0.00000   0.00966   0.00966   2.07222
   R10        2.06464   0.00212   0.00000   0.00602   0.00602   2.07066
   R11        2.91988  -0.00200   0.00000  -0.00695  -0.00695   2.91293
   R12        2.06245   0.00364   0.00000   0.01029   0.01029   2.07274
   R13        2.06271   0.00257   0.00000   0.00728   0.00728   2.06998
   R14        2.91343  -0.00394   0.00000  -0.01355  -0.01355   2.89989
   R15        2.06229   0.00487   0.00000   0.01377   0.01377   2.07606
   R16        2.06281   0.00383   0.00000   0.01085   0.01085   2.07367
   R17        2.91290  -0.00426   0.00000  -0.01465  -0.01465   2.89824
   R18        2.05827   0.00407   0.00000   0.01143   0.01143   2.06970
   R19        2.05725   0.00561   0.00000   0.01573   0.01573   2.07298
   R20        2.91951  -0.00159   0.00000  -0.00551  -0.00551   2.91399
   R21        2.06261   0.00441   0.00000   0.01250   0.01250   2.07511
   R22        2.06265   0.00410   0.00000   0.01161   0.01161   2.07426
   R23        2.91662  -0.00445   0.00000  -0.01540  -0.01540   2.90122
   R24        2.06259   0.00431   0.00000   0.01221   0.01221   2.07480
   R25        2.06262   0.00397   0.00000   0.01124   0.01124   2.07386
   R26        2.90224  -0.00158   0.00000  -0.00533  -0.00533   2.89690
   R27        2.06226   0.00413   0.00000   0.01169   0.01169   2.07395
   R28        2.06246   0.00406   0.00000   0.01150   0.01150   2.07396
   R29        2.06099   0.00303   0.00000   0.00855   0.00855   2.06955
   R30        2.06055   0.00313   0.00000   0.00884   0.00884   2.06939
   R31        2.05959   0.00295   0.00000   0.00832   0.00832   2.06791
    A1        1.81453   0.00737   0.00000   0.04419   0.04419   1.85872
    A2        1.95044   0.00081   0.00000   0.00326   0.00322   1.95366
    A3        2.14809  -0.00451   0.00000  -0.01746  -0.01750   2.13058
    A4        2.18444   0.00371   0.00000   0.01452   0.01448   2.19893
    A5        2.01978  -0.01002   0.00000  -0.04744  -0.04741   1.97237
    A6        1.85183   0.00342   0.00000   0.01727   0.01769   1.86953
    A7        1.90739   0.00091   0.00000  -0.01407  -0.01405   1.89335
    A8        1.90382   0.00304   0.00000   0.02242   0.02240   1.92622
    A9        1.92406   0.00499   0.00000   0.02373   0.02293   1.94699
   A10        1.84801  -0.00181   0.00000   0.00206   0.00167   1.84968
   A11        2.03683  -0.00582   0.00000  -0.03415  -0.03441   2.00242
   A12        1.89602  -0.00077   0.00000  -0.02008  -0.02014   1.87588
   A13        1.90050   0.00174   0.00000   0.00479   0.00485   1.90535
   A14        1.89472   0.00326   0.00000   0.01519   0.01443   1.90915
   A15        1.89455   0.00140   0.00000   0.00728   0.00708   1.90163
   A16        1.83019   0.00086   0.00000   0.03448   0.03432   1.86451
   A17        2.01790  -0.00189   0.00000  -0.01523  -0.01580   2.00210
   A18        1.87086  -0.00039   0.00000   0.00589   0.00607   1.87693
   A19        1.92823  -0.00084   0.00000  -0.02797  -0.02875   1.89948
   A20        1.88493   0.00243   0.00000   0.03323   0.03333   1.91827
   A21        1.92636  -0.00001   0.00000  -0.01634  -0.01735   1.90900
   A22        1.82392   0.00111   0.00000   0.02782   0.02803   1.85195
   A23        1.99558  -0.00030   0.00000  -0.00339  -0.00355   1.99203
   A24        1.92148  -0.00005   0.00000  -0.00838  -0.00858   1.91290
   A25        1.89040   0.00101   0.00000   0.01726   0.01724   1.90765
   A26        1.92680  -0.00087   0.00000  -0.01744  -0.01759   1.90921
   A27        1.88314  -0.00005   0.00000   0.00608   0.00606   1.88919
   A28        1.83902   0.00036   0.00000   0.00807   0.00815   1.84717
   A29        1.96620   0.00119   0.00000   0.00403   0.00403   1.97023
   A30        1.90131  -0.00092   0.00000  -0.00593  -0.00593   1.89538
   A31        1.92640   0.00012   0.00000   0.00195   0.00196   1.92836
   A32        1.92541  -0.00001   0.00000   0.00065   0.00065   1.92606
   A33        1.89961  -0.00104   0.00000  -0.00736  -0.00736   1.89225
   A34        1.84085   0.00063   0.00000   0.00688   0.00689   1.84773
   A35        1.99451   0.00159   0.00000   0.00549   0.00538   1.99989
   A36        1.92595  -0.00124   0.00000  -0.01676  -0.01682   1.90913
   A37        1.88505  -0.00078   0.00000   0.00146   0.00135   1.88640
   A38        1.91929  -0.00081   0.00000  -0.01090  -0.01095   1.90834
   A39        1.89214   0.00048   0.00000   0.01379   0.01375   1.90589
   A40        1.83978   0.00073   0.00000   0.00819   0.00824   1.84802
   A41        2.01708  -0.00067   0.00000  -0.00701  -0.00731   2.00976
   A42        1.92576  -0.00083   0.00000  -0.01878  -0.01914   1.90661
   A43        1.88558   0.00120   0.00000   0.01951   0.01956   1.90514
   A44        1.92116  -0.00025   0.00000  -0.01554  -0.01595   1.90521
   A45        1.87288   0.00001   0.00000   0.00936   0.00937   1.88225
   A46        1.83091   0.00076   0.00000   0.01684   0.01704   1.84795
   A47        2.00901   0.00015   0.00000  -0.00144  -0.00150   2.00751
   A48        1.89199  -0.00031   0.00000   0.00129   0.00128   1.89327
   A49        1.91349  -0.00115   0.00000  -0.01658  -0.01664   1.89685
   A50        1.89253   0.00061   0.00000   0.01170   0.01169   1.90422
   A51        1.90749   0.00018   0.00000  -0.00331  -0.00344   1.90405
   A52        1.84179   0.00058   0.00000   0.00984   0.00984   1.85163
   A53        1.94643  -0.00073   0.00000  -0.00677  -0.00677   1.93966
   A54        1.93437  -0.00009   0.00000   0.00194   0.00193   1.93629
   A55        1.94529   0.00067   0.00000   0.00389   0.00387   1.94916
   A56        1.87798   0.00044   0.00000   0.00284   0.00284   1.88082
   A57        1.88908  -0.00053   0.00000  -0.00769  -0.00770   1.88139
   A58        1.86742   0.00026   0.00000   0.00608   0.00605   1.87346
    D1       -3.13450   0.00032   0.00000   0.00815   0.00827  -3.12623
    D2       -0.01426   0.00064   0.00000   0.02351   0.02339   0.00913
    D3       -2.91739   0.00039   0.00000   0.03413   0.03384  -2.88355
    D4        1.25193   0.00028   0.00000   0.02259   0.02260   1.27453
    D5       -0.73344   0.00020   0.00000   0.01802   0.01842  -0.71502
    D6        0.24609   0.00018   0.00000   0.01886   0.01849   0.26458
    D7       -1.86777   0.00007   0.00000   0.00732   0.00725  -1.86052
    D8        2.43004  -0.00001   0.00000   0.00274   0.00307   2.43311
    D9        1.09583  -0.00116   0.00000  -0.03412  -0.03433   1.06150
   D10       -3.03946  -0.00168   0.00000  -0.05520  -0.05496  -3.09442
   D11       -1.05553  -0.00017   0.00000  -0.02260  -0.02269  -1.07823
   D12       -3.10169  -0.00116   0.00000  -0.02670  -0.02711  -3.12880
   D13       -0.95379  -0.00168   0.00000  -0.04778  -0.04775  -1.00154
   D14        1.03014  -0.00017   0.00000  -0.01519  -0.01548   1.01465
   D15       -1.07953   0.00123   0.00000   0.00209   0.00215  -1.07738
   D16        1.06837   0.00071   0.00000  -0.01899  -0.01849   1.04989
   D17        3.05230   0.00221   0.00000   0.01361   0.01378   3.06608
   D18        1.08843  -0.00227   0.00000  -0.08021  -0.08006   1.00836
   D19       -3.09219  -0.00065   0.00000  -0.04305  -0.04309  -3.13527
   D20       -1.11490   0.00003   0.00000  -0.02104  -0.02136  -1.13627
   D21       -1.06014   0.00034   0.00000  -0.04095  -0.04056  -1.10071
   D22        1.04243   0.00195   0.00000  -0.00380  -0.00359   1.03884
   D23        3.01971   0.00263   0.00000   0.01822   0.01814   3.03785
   D24       -3.04034  -0.00305   0.00000  -0.09287  -0.09275  -3.13309
   D25       -0.93777  -0.00144   0.00000  -0.05571  -0.05577  -0.99354
   D26        1.03952  -0.00076   0.00000  -0.03369  -0.03405   1.00547
   D27       -1.63115   0.00187   0.00000   0.08003   0.07990  -1.55125
   D28        0.54953   0.00044   0.00000   0.04736   0.04727   0.59680
   D29        2.55191   0.00140   0.00000   0.06209   0.06195   2.61386
   D30        2.55712   0.00180   0.00000   0.05774   0.05775   2.61486
   D31       -1.54539   0.00037   0.00000   0.02508   0.02511  -1.52028
   D32        0.45700   0.00133   0.00000   0.03980   0.03979   0.49679
   D33        0.57313  -0.00084   0.00000   0.01501   0.01512   0.58824
   D34        2.75381  -0.00227   0.00000  -0.01765  -0.01752   2.73629
   D35       -1.52699  -0.00131   0.00000  -0.00293  -0.00284  -1.52983
   D36       -3.12433  -0.00095   0.00000  -0.02645  -0.02640   3.13245
   D37       -0.98192  -0.00081   0.00000  -0.02715  -0.02710  -1.00903
   D38        1.03148  -0.00051   0.00000  -0.02119  -0.02114   1.01033
   D39        0.98098   0.00006   0.00000   0.00148   0.00142   0.98241
   D40        3.12340   0.00019   0.00000   0.00078   0.00072   3.12411
   D41       -1.14639   0.00049   0.00000   0.00674   0.00668  -1.13971
   D42       -1.02017   0.00011   0.00000  -0.00233  -0.00231  -1.02248
   D43        1.12224   0.00025   0.00000  -0.00303  -0.00302   1.11922
   D44        3.13564   0.00054   0.00000   0.00293   0.00294   3.13858
   D45       -3.13516  -0.00085   0.00000  -0.01899  -0.01897   3.12906
   D46        0.97458   0.00001   0.00000   0.00485   0.00483   0.97942
   D47       -1.02810   0.00022   0.00000   0.00316   0.00316  -1.02494
   D48        1.01918  -0.00049   0.00000  -0.01462  -0.01461   1.00458
   D49       -1.15426   0.00037   0.00000   0.00922   0.00920  -1.14507
   D50        3.12624   0.00058   0.00000   0.00752   0.00752   3.13376
   D51       -0.99269  -0.00065   0.00000  -0.01905  -0.01903  -1.01173
   D52        3.11705   0.00021   0.00000   0.00479   0.00477   3.12182
   D53        1.11436   0.00042   0.00000   0.00310   0.00310   1.11746
   D54       -1.61009   0.00134   0.00000   0.05269   0.05264  -1.55745
   D55        0.58332  -0.00026   0.00000   0.00978   0.00991   0.59323
   D56        2.57564   0.00087   0.00000   0.03073   0.03071   2.60635
   D57        0.56690   0.00024   0.00000   0.02578   0.02573   0.59263
   D58        2.76030  -0.00135   0.00000  -0.01714  -0.01701   2.74330
   D59       -1.53056  -0.00023   0.00000   0.00382   0.00380  -1.52676
   D60        2.56998   0.00095   0.00000   0.03733   0.03722   2.60720
   D61       -1.51980  -0.00064   0.00000  -0.00558  -0.00551  -1.52531
   D62        0.47253   0.00048   0.00000   0.01538   0.01529   0.48782
   D63        1.11671  -0.00147   0.00000  -0.04250  -0.04240   1.07430
   D64       -3.04421  -0.00081   0.00000  -0.02733  -0.02727  -3.07147
   D65       -1.04190  -0.00091   0.00000  -0.02375  -0.02373  -1.06563
   D66       -1.07905   0.00041   0.00000   0.00198   0.00193  -1.07712
   D67        1.04323   0.00107   0.00000   0.01715   0.01707   1.06029
   D68        3.04553   0.00098   0.00000   0.02073   0.02061   3.06614
   D69       -3.06212  -0.00036   0.00000  -0.01507  -0.01502  -3.07714
   D70       -0.93985   0.00030   0.00000   0.00010   0.00012  -0.93973
   D71        1.06246   0.00021   0.00000   0.00368   0.00366   1.06612
   D72        0.90360   0.00040   0.00000   0.02496   0.02497   0.92857
   D73        2.99549   0.00042   0.00000   0.02535   0.02534   3.02083
   D74       -1.20989   0.00112   0.00000   0.03681   0.03682  -1.17307
   D75       -1.21838   0.00024   0.00000   0.01543   0.01543  -1.20294
   D76        0.87351   0.00025   0.00000   0.01582   0.01581   0.88932
   D77        2.95132   0.00095   0.00000   0.02728   0.02729   2.97860
   D78        3.06538  -0.00086   0.00000  -0.00075  -0.00075   3.06463
   D79       -1.12592  -0.00085   0.00000  -0.00036  -0.00037  -1.12629
   D80        0.95189  -0.00015   0.00000   0.01110   0.01110   0.96299
         Item               Value     Threshold  Converged?
 Maximum Force            0.018151     0.000450     NO 
 RMS     Force            0.003177     0.000300     NO 
 Maximum Displacement     0.800246     0.001800     NO 
 RMS     Displacement     0.153672     0.001200     NO 
 Predicted change in Energy=-3.732656D-03
 GradGradGradGradGradGradGradGradGradGradGradGradGradGradGradGradGradGrad

                          Input orientation:                          
 ---------------------------------------------------------------------
 Center     Atomic      Atomic             Coordinates (Angstroms)
 Number     Number       Type             X           Y           Z
 ---------------------------------------------------------------------
      1          8           0        5.669421   -1.266751   -1.534116
      2          6           0        4.584927   -0.869522   -0.830193
      3          6           0        4.093057   -1.948045    0.103992
      4          6           0        2.688160   -1.679509    0.638548
      5          6           0        1.599462   -1.590470   -0.436204
      6          6           0        1.466290   -2.843575   -1.323943
      7          6           0        2.362744   -2.828409   -2.569333
      8          6           0        2.217016   -4.093140   -3.424557
      9          6           0        3.088491   -4.111396   -4.696572
     10          6           0        2.434579   -3.501044   -5.944327
     11          6           0        2.068440   -2.017271   -5.824432
     12          8           0        4.101537    0.235260   -0.960771
     13          1           0        5.925961   -0.514069   -2.094372
     14          1           0        4.811150   -2.010644    0.931684
     15          1           0        4.148363   -2.908962   -0.416020
     16          1           0        2.442622   -2.486334    1.339417
     17          1           0        2.694913   -0.748499    1.216333
     18          1           0        0.648496   -1.390254    0.072370
     19          1           0        1.796318   -0.717144   -1.067413
     20          1           0        1.683426   -3.741360   -0.729164
     21          1           0        0.424221   -2.946556   -1.652022
     22          1           0        2.123268   -1.938565   -3.161257
     23          1           0        3.416385   -2.723341   -2.282708
     24          1           0        1.163218   -4.224882   -3.703794
     25          1           0        2.472597   -4.958445   -2.799449
     26          1           0        4.034321   -3.591687   -4.494644
     27          1           0        3.359974   -5.148278   -4.932259
     28          1           0        3.115184   -3.635481   -6.794726
     29          1           0        1.530802   -4.075591   -6.184262
     30          1           0        2.931685   -1.421793   -5.508866
     31          1           0        1.722103   -1.620772   -6.784653
     32          1           0        1.267069   -1.856173   -5.096887
 ---------------------------------------------------------------------
                    Distance matrix (angstroms):
                    1          2          3          4          5
     1  O    0.000000
     2  C    1.352564   0.000000
     3  C    2.373285   1.509254   0.000000
     4  C    3.711975   2.531996   1.526957   0.000000
     5  C    4.227857   3.096448   2.576371   1.532411   0.000000
     6  C    4.494091   3.723784   3.121037   2.588317   1.541456
     7  C    3.800601   3.435105   3.303890   3.422918   2.581730
     8  C    4.845756   4.767541   4.535595   4.749359   3.946515
     9  C    4.975373   5.262885   5.360471   5.876891   5.169430
[...]
 Alpha virt. eigenvalues --    4.08432   4.09096   4.11433   4.15501   4.20482
 Alpha virt. eigenvalues --    4.21406   4.24199   4.28421   4.29784   4.32685
 Alpha virt. eigenvalues --    4.34821   4.36034   4.38807   4.40883   4.44594
 Alpha virt. eigenvalues --    4.47585   4.51314   4.52371   4.53510   4.54594
 Alpha virt. eigenvalues --    4.57055   4.57570   4.60230   4.62884   4.63771
 Alpha virt. eigenvalues --    4.65436   4.69107   4.70294   4.74524   4.75460
 Alpha virt. eigenvalues --    4.78322   4.80251   4.84606   4.87165   4.87836
 Alpha virt. eigenvalues --    4.90919   5.04863   5.09281   5.17032   5.21700
 Alpha virt. eigenvalues --    5.22237   5.38904   5.40636   5.50847   5.59331
 Alpha virt. eigenvalues --    5.74971   5.84805   5.87040   6.15097   6.20108
 Alpha virt. eigenvalues --    6.33496   6.34238   6.44836   6.48810   6.64140
 Alpha virt. eigenvalues --    6.69711   6.74417   6.82309   6.88498   7.07542
 Alpha virt. eigenvalues --    7.09072   7.26479  22.44395  22.52815  22.55725
 Alpha virt. eigenvalues --   22.59113  22.60443  22.61639  22.62081  22.63693
 Alpha virt. eigenvalues --   22.66966  23.29948  43.99007  44.04929
          Condensed to atoms (all electrons):
               1          2          3          4          5          6
     1  O    7.962778   0.352083  -0.119486   0.010840  -0.001670   0.002105
     2  C    0.352083   4.561693   0.207268  -0.036163   0.020275  -0.008956
     3  C   -0.119486   0.207268   5.481714   0.173158  -0.044783   0.013721
     4  C    0.010840  -0.036163   0.173158   5.180601   0.230422  -0.023937
     5  C   -0.001670   0.020275  -0.044783   0.230422   5.276284   0.152600
     6  C    0.002105  -0.008956   0.013721  -0.023937   0.152600   5.369814
     7  C   -0.005815   0.003178   0.013443  -0.009253  -0.017187   0.158455
     8  C    0.000053  -0.001277   0.002038  -0.001198   0.007351  -0.036836
     9  C   -0.000557   0.000061   0.000078   0.000016  -0.000228   0.007909
    10  C    0.000032   0.000029  -0.000028   0.000001   0.000057  -0.000840
    11  C   -0.000022  -0.000028   0.000022  -0.000001  -0.000080   0.000714
    12  O   -0.089276   0.657758  -0.108478   0.030207  -0.014395   0.000394
    13  H    0.288285  -0.026360   0.019140  -0.001751   0.000411  -0.000205
    14  H    0.001874  -0.014903   0.394068  -0.036163   0.008843  -0.001863
    15  H    0.004573  -0.038911   0.410601  -0.034145  -0.013424   0.014198
    16  H   -0.000098   0.009875  -0.064417   0.441469  -0.035957  -0.012239
    17  H    0.000182  -0.009287  -0.025157   0.432621  -0.053400   0.010840
    18  H   -0.000006   0.000018   0.008197  -0.046520   0.430687  -0.044511
    19  H   -0.000025   0.001779  -0.012334  -0.036766   0.442364  -0.065377
    20  H   -0.000080   0.001575  -0.011617   0.006706  -0.049617   0.433803
    21  H   -0.000004  -0.000030   0.000287   0.004334  -0.034085   0.421961
    22  H    0.000120   0.002759  -0.003741   0.002164  -0.003023  -0.047911
    23  H    0.003456  -0.016318   0.016905  -0.003038  -0.002847  -0.046871
    24  H   -0.000002  -0.000026   0.000035  -0.000039  -0.000001  -0.003879
    25  H    0.000002   0.000241  -0.000367   0.000025   0.000006  -0.005757
    26  H    0.000825   0.000147  -0.000158  -0.000012   0.000102   0.000046
    27  H    0.000005  -0.000008   0.000003  -0.000000   0.000022  -0.000641
    28  H   -0.000000  -0.000000   0.000000  -0.000000  -0.000002   0.000081
    29  H   -0.000000   0.000000  -0.000000   0.000000   0.000006  -0.000038
    30  H    0.000009   0.000038  -0.000000  -0.000003   0.000046  -0.000014
    31  H   -0.000000  -0.000000  -0.000000   0.000000   0.000000  -0.000047
    32  H   -0.000000   0.000002   0.000010  -0.000012  -0.000078   0.001279
               7          8          9         10         11         12
     1  O   -0.005815   0.000053  -0.000557   0.000032  -0.000022  -0.089276
     2  C    0.003178  -0.001277   0.000061   0.000029  -0.000028   0.657758
     3  C    0.013443   0.002038   0.000078  -0.000028   0.000022  -0.108478
     4  C   -0.009253  -0.001198   0.000016   0.000001  -0.000001   0.030207
     5  C   -0.017187   0.007351  -0.000228   0.000057  -0.000080  -0.014395
     6  C    0.158455  -0.036836   0.007909  -0.000840   0.000714   0.000394
     7  C    5.415425   0.167172  -0.017471   0.000596   0.000336   0.000511
     8  C    0.167172   5.329441   0.183420  -0.037280   0.018991  -0.000041
     9  C   -0.017471   0.183420   5.198900   0.258209  -0.052348   0.000005
    10  C    0.000596  -0.037280   0.258209   5.133613   0.241665   0.000001
    11  C    0.000336   0.018991  -0.052348   0.241665   5.118158  -0.000006
    12  O    0.000511  -0.000041   0.000005   0.000001  -0.000006   7.832325
    13  H    0.000506  -0.000029   0.000023   0.000000  -0.000005   0.006083
    14  H    0.001141  -0.000116   0.000002   0.000000  -0.000000   0.000929
    15  H   -0.019055   0.002370  -0.000163  -0.000010   0.000007   0.004040
    16  H    0.002289  -0.000081   0.000008  -0.000000   0.000000   0.000423
    17  H   -0.000799   0.000075  -0.000002  -0.000000  -0.000000   0.002391
    18  H    0.005513  -0.000523   0.000022  -0.000001  -0.000001   0.000160
    19  H    0.000843  -0.000299   0.000086  -0.000018   0.000021   0.006428
    20  H   -0.056375  -0.004795   0.000102   0.000006  -0.000071  -0.000051
    21  H   -0.037014  -0.005423  -0.000011  -0.000134   0.000250  -0.000000
    22  H    0.432845  -0.041600   0.001753  -0.001068  -0.002955   0.000210
    23  H    0.421378  -0.040777  -0.005312   0.000539  -0.000308  -0.002062
    24  H   -0.062652   0.432182  -0.040824  -0.000877  -0.006225  -0.000000
    25  H   -0.032640   0.419917  -0.037508   0.005609  -0.000355  -0.000001
    26  H   -0.000371  -0.069080   0.435438  -0.037532  -0.010451  -0.000008
    27  H    0.005600  -0.045101   0.432893  -0.048022   0.009622  -0.000000
    28  H   -0.001063   0.013842  -0.059589   0.434557  -0.041280  -0.000000
    29  H    0.002554  -0.017150  -0.039617   0.430986  -0.053038  -0.000000
    30  H    0.001335  -0.008719   0.008685  -0.053751   0.412887   0.000004
    31  H    0.000446  -0.001463   0.011012  -0.039790   0.412648  -0.000000
    32  H   -0.013946   0.019778  -0.019120  -0.038336   0.413383  -0.000000
              13         14         15         16         17         18
     1  O    0.288285   0.001874   0.004573  -0.000098   0.000182  -0.000006
     2  C   -0.026360  -0.014903  -0.038911   0.009875  -0.009287   0.000018
     3  C    0.019140   0.394068   0.410601  -0.064417  -0.025157   0.008197
     4  C   -0.001751  -0.036163  -0.034145   0.441469   0.432621  -0.046520
     5  C    0.000411   0.008843  -0.013424  -0.035957  -0.053400   0.430687
     6  C   -0.000205  -0.001863   0.014198  -0.012239   0.010840  -0.044511
     7  C    0.000506   0.001141  -0.019055   0.002289  -0.000799   0.005513
     8  C   -0.000029  -0.000116   0.002370  -0.000081   0.000075  -0.000523
     9  C    0.000023   0.000002  -0.000163   0.000008  -0.000002   0.000022
    10  C    0.000000   0.000000  -0.000010  -0.000000  -0.000000  -0.000001
    11  C   -0.000005  -0.000000   0.000007   0.000000  -0.000000  -0.000001
    12  O    0.006083   0.000929   0.004040   0.000423   0.002391   0.000160
    13  H    0.380154  -0.000569  -0.000714   0.000032   0.000010  -0.000006
    14  H   -0.000569   0.495922  -0.014351  -0.004503  -0.004283  -0.000184
    15  H   -0.000714  -0.014351   0.494457  -0.001754   0.005034  -0.000612
    16  H    0.000032  -0.004503  -0.001754   0.526934  -0.018880  -0.004467
    17  H    0.000010  -0.004283   0.005034  -0.018880   0.506559  -0.006404
    18  H   -0.000006  -0.000184  -0.000612  -0.004467  -0.006404   0.538676
    19  H    0.000009  -0.000295   0.001105   0.005291  -0.001902  -0.015951
    20  H    0.000013  -0.000382   0.001472   0.002228  -0.000038   0.002654
    21  H   -0.000001   0.000044   0.000111  -0.000055  -0.000180  -0.011107
    22  H    0.000052  -0.000030   0.000693  -0.000018  -0.000063   0.000602
    23  H   -0.000838   0.000590  -0.003444  -0.000013   0.000071  -0.000537
    24  H    0.000000   0.000002  -0.000027  -0.000000   0.000002  -0.000026
    25  H    0.000001  -0.000002   0.000351   0.000013  -0.000003  -0.000002
    26  H    0.000022  -0.000001   0.000033  -0.000001   0.000000   0.000002
    27  H    0.000000  -0.000000   0.000005  -0.000000   0.000000  -0.000001
    28  H   -0.000000  -0.000000  -0.000000   0.000000  -0.000000   0.000000
    29  H    0.000000  -0.000000   0.000000  -0.000000   0.000000   0.000000
    30  H    0.000010   0.000000  -0.000002   0.000000   0.000000  -0.000000
    31  H   -0.000000  -0.000000   0.000000  -0.000000   0.000000  -0.000000
    32  H   -0.000000   0.000000  -0.000004   0.000000  -0.000000   0.000006
              19         20         21         22         23         24
     1  O   -0.000025  -0.000080  -0.000004   0.000120   0.003456  -0.000002
     2  C    0.001779   0.001575  -0.000030   0.002759  -0.016318  -0.000026
     3  C   -0.012334  -0.011617   0.000287  -0.003741   0.016905   0.000035
     4  C   -0.036766   0.006706   0.004334   0.002164  -0.003038  -0.000039
     5  C    0.442364  -0.049617  -0.034085  -0.003023  -0.002847  -0.000001
     6  C   -0.065377   0.433803   0.421961  -0.047911  -0.046871  -0.003879
     7  C    0.000843  -0.056375  -0.037014   0.432845   0.421378  -0.062652
     8  C   -0.000299  -0.004795  -0.005423  -0.041600  -0.040777   0.432182
     9  C    0.000086   0.000102  -0.000011   0.001753  -0.005312  -0.040824
    10  C   -0.000018   0.000006  -0.000134  -0.001068   0.000539  -0.000877
    11  C    0.000021  -0.000071   0.000250  -0.002955  -0.000308  -0.006225
    12  O    0.006428  -0.000051  -0.000000   0.000210  -0.002062  -0.000000
    13  H    0.000009   0.000013  -0.000001   0.000052  -0.000838   0.000000
    14  H   -0.000295  -0.000382   0.000044  -0.000030   0.000590   0.000002
    15  H    0.001105   0.001472   0.000111   0.000693  -0.003444  -0.000027
    16  H    0.005291   0.002228  -0.000055  -0.000018  -0.000013  -0.000000
    17  H   -0.001902  -0.000038  -0.000180  -0.000063   0.000071   0.000002
    18  H   -0.015951   0.002654  -0.011107   0.000602  -0.000537  -0.000026
    19  H    0.483468   0.005229   0.001602   0.000640   0.001342   0.000045
    20  H    0.005229   0.525807  -0.019965   0.006595  -0.001210   0.000526
    21  H    0.001602  -0.019965   0.528816  -0.004447   0.005237   0.001604
    22  H    0.000640   0.006595  -0.004447   0.526347  -0.031829  -0.001640
    23  H    0.001342  -0.001210   0.005237  -0.031829   0.550983   0.007421
    24  H    0.000045   0.000526   0.001604  -0.001640   0.007421   0.533566
    25  H   -0.000019   0.001855   0.000967   0.005343  -0.007085  -0.022484
    26  H   -0.000031   0.000042  -0.000044   0.001739  -0.000853   0.006126
    27  H    0.000002  -0.000009  -0.000003  -0.000473   0.000702   0.002177
    28  H    0.000000   0.000001  -0.000001  -0.000013   0.000004  -0.000106
    29  H   -0.000000  -0.000000  -0.000007   0.000056  -0.000089   0.003897
    30  H    0.000017  -0.000004   0.000001  -0.003606   0.000088   0.000960
    31  H   -0.000002   0.000001  -0.000002   0.000954  -0.000021  -0.000173
    32  H    0.000004  -0.000007   0.000262  -0.003011   0.000554  -0.001315
              25         26         27         28         29         30
     1  O    0.000002   0.000825   0.000005  -0.000000  -0.000000   0.000009
     2  C    0.000241   0.000147  -0.000008  -0.000000   0.000000   0.000038
     3  C   -0.000367  -0.000158   0.000003   0.000000  -0.000000  -0.000000
     4  C    0.000025  -0.000012  -0.000000  -0.000000   0.000000  -0.000003
     5  C    0.000006   0.000102   0.000022  -0.000002   0.000006   0.000046
     6  C   -0.005757   0.000046  -0.000641   0.000081  -0.000038  -0.000014
     7  C   -0.032640  -0.000371   0.005600  -0.001063   0.002554   0.001335
     8  C    0.419917  -0.069080  -0.045101   0.013842  -0.017150  -0.008719
     9  C   -0.037508   0.435438   0.432893  -0.059589  -0.039617   0.008685
    10  C    0.005609  -0.037532  -0.048022   0.434557   0.430986  -0.053751
    11  C   -0.000355  -0.010451   0.009622  -0.041280  -0.053038   0.412887
    12  O   -0.000001  -0.000008  -0.000000  -0.000000  -0.000000   0.000004
    13  H    0.000001   0.000022   0.000000  -0.000000   0.000000   0.000010
    14  H   -0.000002  -0.000001  -0.000000  -0.000000  -0.000000   0.000000
    15  H    0.000351   0.000033   0.000005  -0.000000   0.000000  -0.000002
    16  H    0.000013  -0.000001  -0.000000   0.000000  -0.000000   0.000000
    17  H   -0.000003   0.000000   0.000000  -0.000000   0.000000   0.000000
    18  H   -0.000002   0.000002  -0.000001   0.000000   0.000000  -0.000000
    19  H   -0.000019  -0.000031   0.000002   0.000000  -0.000000   0.000017
    20  H    0.001855   0.000042  -0.000009   0.000001  -0.000000  -0.000004
    21  H    0.000967  -0.000044  -0.000003  -0.000001  -0.000007   0.000001
    22  H    0.005343   0.001739  -0.000473  -0.000013   0.000056  -0.003606
    23  H   -0.007085  -0.000853   0.000702   0.000004  -0.000089   0.000088
    24  H   -0.022484   0.006126   0.002177  -0.000106   0.003897   0.000960
    25  H    0.539365   0.002100  -0.011594  -0.000261  -0.000100  -0.000151
    26  H    0.002100   0.540328  -0.021448  -0.003072   0.006871   0.002449
    27  H   -0.011594  -0.021448   0.548815  -0.006530  -0.003661   0.000038
    28  H   -0.000261  -0.003072  -0.006530   0.557475  -0.024275  -0.002921
    29  H   -0.000100   0.006871  -0.003661  -0.024275   0.556609   0.007592
    30  H   -0.000151   0.002449   0.000038  -0.002921   0.007592   0.541420
    31  H    0.000044  -0.000366  -0.000341  -0.006607  -0.003762  -0.020600
    32  H    0.000168   0.001268  -0.000573   0.006835  -0.003765  -0.033369
              31         32
     1  O   -0.000000  -0.000000
     2  C   -0.000000   0.000002
     3  C   -0.000000   0.000010
     4  C    0.000000  -0.000012
     5  C    0.000000  -0.000078
     6  C   -0.000047   0.001279
     7  C    0.000446  -0.013946
     8  C   -0.001463   0.019778
     9  C    0.011012  -0.019120
    10  C   -0.039790  -0.038336
    11  C    0.412648   0.413383
    12  O   -0.000000  -0.000000
    13  H   -0.000000  -0.000000
    14  H   -0.000000   0.000000
    15  H    0.000000  -0.000004
    16  H   -0.000000   0.000000
    17  H    0.000000  -0.000000
    18  H   -0.000000   0.000006
    19  H   -0.000002   0.000004
    20  H    0.000001  -0.000007
    21  H   -0.000002   0.000262
    22  H    0.000954  -0.003011
    23  H   -0.000021   0.000554
    24  H   -0.000173  -0.001315
    25  H    0.000044   0.000168
    26  H   -0.000366   0.001268
    27  H   -0.000341  -0.000573
    28  H   -0.006607   0.006835
    29  H   -0.003762  -0.003765
    30  H   -0.020600  -0.033369
    31  H    0.525157  -0.023352
    32  H   -0.023352   0.551023
 Mulliken charges:
               1
     1  O   -0.410179
     2  C    0.333490
     3  C   -0.350121
     4  C   -0.283566
     5  C   -0.298696
     6  C   -0.287997
     7  C   -0.359923
     8  C   -0.284843
     9  C   -0.265871
    10  C   -0.248216
    11  C   -0.461531
    12  O   -0.327549
    13  H    0.335724
    14  H    0.174232
    15  H    0.187565
    16  H    0.153923
    17  H    0.162615
    18  H    0.144323
    19  H    0.182745
    20  H    0.155609
    21  H    0.147040
    22  H    0.162555
    23  H    0.154183
    24  H    0.151752
    25  H    0.142325
    26  H    0.145888
    27  H    0.138522
    28  H    0.132925
    29  H    0.136931
    30  H    0.147564
    31  H    0.146264
    32  H    0.142317
 Sum of Mulliken charges =  -0.00000
 Mulliken charges with hydrogens summed into heavy atoms:
               1
     1  O   -0.074455
     2  C    0.333490
     3  C    0.011676
     4  C    0.032972
     5  C    0.028371
     6  C    0.014652
     7  C   -0.043185
     8  C    0.009234
     9  C    0.018539
    10  C    0.021640
    11  C   -0.025386
    12  O   -0.327549
 Electronic spatial extent (au):  <R**2>=           3228.4243
 Charge=              0.0000 electrons
 Dipole moment (field-independent basis, Debye):
    X=              0.4918    Y=              0.2494    Z=             -1.4210  Tot=              1.5242
 Quadrupole moment (field-independent basis, Debye-Ang):
   XX=            -78.4837   YY=            -73.0842   ZZ=            -81.2906
   XY=             -2.1101   XZ=              5.5756   YZ=              0.4912
 Traceless Quadrupole moment (field-independent basis, Debye-Ang):
   XX=             -0.8642   YY=              4.5353   ZZ=             -3.6711
   XY=             -2.1101   XZ=              5.5756   YZ=              0.4912
 Octapole moment (field-independent basis, Debye-Ang**2):
  XXX=            -16.6839  YYY=            -36.8620  ZZZ=             -4.7244  XYY=            -11.5392
  XXY=              2.5850  XXZ=            -17.2498  XZZ=              1.5987  YZZ=              3.4943
  YYZ=              4.9188  XYZ=             -3.6296
 Hexadecapole moment (field-independent basis, Debye-Ang**3):
 XXXX=          -3049.9294 YYYY=           -748.8846 ZZZZ=           -471.8940 XXXY=              3.9893
 XXXZ=             57.2411 YYYX=             58.8230 YYYZ=             -4.3559 ZZZX=              1.5003
 ZZZY=              2.1225 XXYY=           -646.6786 XXZZ=           -605.9734 YYZZ=           -232.2783
 XXYZ=             16.8824 YYXZ=             -1.7153 ZZXY=             -8.8257
 N-N= 7.407292358782D+02 E-N=-2.746401008192D+03  KE= 5.405693307163D+02
 Unable to Open any file for archive entry.
 1\1\GINC-NOTCH075\SP\RM062X\def2TZVP\C10H20O2\U6032257\03-Feb-2022\0\\
 # M062X/def2tzvp int=(grid=ultrafine) nmr=giao guess=read geom=check\\
 Ac1.xyz\\0,1\O,0,5.6979762068,-1.3814644529,-1.4111471803\C,0,4.685656
 5533,-0.8990342637,-0.6462859392\C,0,4.0930051835,-1.9692851872,0.2408
 431092\C,0,2.6578363301,-1.6578144806,0.6748478725\C,0,1.6314409922,-1
 .5559818106,-0.4644348268\C,0,1.5148331482,-2.8055255854,-1.3602313416
 \C,0,2.3944635365,-2.7761969886,-2.6169451855\C,0,2.2720451288,-4.0520
 818458,-3.4585604414\C,0,3.1113663923,-4.0534134229,-4.7518682659\C,0,
 2.3848295389,-3.5464946531,-6.0073016919\C,0,1.8922052352,-2.098431026
 2,-5.9414760942\O,0,4.3417777951,0.2620000522,-0.6873924408\H,0,6.0277
 947052,-0.624967704,-1.9254596291\H,0,4.7447195362,-2.0395811721,1.121
 9642013\H,0,4.1711526658,-2.9343768916,-0.2662006205\H,0,2.3425313746,
 -2.4410921498,1.3749164576\H,0,2.6612396332,-0.7148771331,1.2310447955
 \H,0,0.6588249646,-1.3473864457,-0.0041883331\H,0,1.8671959708,-0.6814
 825581,-1.0814890118\H,0,1.7410183684,-3.7066532973,-0.7717534279\H,0,
 0.472690516,-2.9205437538,-1.6841299517\H,0,2.1222012146,-1.8982309373
 ,-3.2132446451\H,0,3.4491918978,-2.6382645739,-2.3528724324\H,0,1.2159
 869479,-4.2301064229,-3.7069603294\H,0,2.5752946732,-4.8997390984,-2.8
 303554476\H,0,4.0217762363,-3.4590217459,-4.5917316036\H,0,3.453196013
 1,-5.0752220316,-4.9561975084\H,0,3.0606502233,-3.6545788377,-6.865252
 5647\H,0,1.5308296461,-4.2068234316,-6.2103879601\H,0,2.7105946775,-1.
 4108604691,-5.6998547857\H,0,1.466518598,-1.7858806889,-6.9005467831\H
 ,0,1.1153560962,-1.9692869922,-5.1819479945\\Version=ES64L-G16RevC.01\
 State=1-A\HF=-543.5382038\RMSD=2.617e-09\Dipole=0.1179446,-0.587945,-0
 .0048732\Quadrupole=2.4042804,-5.0259335,2.6216531,0.8698691,-0.675701
 8,-3.0371612\PG=C01 [X(C10H20O2)]\\@
 The archive entry for this job was punched.


 ONE THORN OF EXPERIENCE IS WORTH A WHOLE WILDERNESS OF
 WARNING....  LOWELL - AMONG MY BOOKS
 Job cpu time:       0 days  0 hours 41 minutes 18.3 seconds.
 Elapsed time:       0 days  0 hours  1 minutes 28.8 seconds.
 File lengths (MBytes):  RWF=    140 Int=      0 D2E=      0 Chk=     24 Scr=      1
 Normal termination of Gaussian 16 at Thu Feb  3 06:54:33 2022.
