 Entering Gaussian System, Link 0=/uufs/chpc.utah.edu/sys/installdir/gaussian16/C01/AVX2/g16/g16
 Input=Ac1_clust-15.com
 Output=Ac1_clust-15.log
 Initial command:
 /uufs/chpc.utah.edu/sys/installdir/gaussian16/C01/AVX2/g16/l1.exe "/scratch/general/lustre/u6032257/3857470/notchpeak.peaks/Gau-167564.inp" -scrdir="/scratch/general/lustre/u6032257/3857470/notchpeak.peaks/"
 Entering Link 1 = /uufs/chpc.utah.edu/sys/installdir/gaussian16/C01/AVX2/g16/l1.exe PID=    167566.
  
 Copyright (c) 1988-2019, Gaussian, Inc.  All Rights Reserved.
  
 This is part of the Gaussian(R) 16 program.  It is based on
 the Gaussian(R) 09 system (copyright 2009, Gaussian, Inc.),
 the Gaussian(R) 03 system (copyright 2003, Gaussian, Inc.),
 the Gaussian(R) 98 system (copyright 1998, Gaussian, Inc.),
 the Gaussian(R) 94 system (copyright 1995, Gaussian, Inc.),
 the Gaussian 92(TM) system (copyright 1992, Gaussian, Inc.),
 the Gaussian 90(TM) system (copyright 1990, Gaussian, Inc.),
 the Gaussian 88(TM) system (copyright 1988, Gaussian, Inc.),
 the Gaussian 86(TM) system (copyright 1986, Carnegie Mellon
 University), and the Gaussian 82(TM) system (copyright 1983,
 Carnegie Mellon University). Gaussian is a federally registered
 trademark of Gaussian, Inc.
  
 This software contains proprietary and confidential information,
 including trade secrets, belonging to Gaussian, Inc.
  
 This software is provided under written license and may be
 used, copied, transmitted, or stored only in accord with that
 written license.
  
 The following legend is applicable only to US Government
 contracts under FAR:
  
                    RESTRICTED RIGHTS LEGEND
  
 Use, reproduction and disclosure by the US Government is
 subject to restrictions as set forth in subparagraphs (a)
 and (c) of the Commercial Computer Software - Restricted
 Rights clause in FAR 52.227-19.
  
 Gaussian, Inc.
 340 Quinnipiac St., Bldg. 40, Wallingford CT 06492
  
  
 ---------------------------------------------------------------
 Warning -- This program may not be used in any manner that
 competes with the business of Gaussian, Inc. or will provide
 assistance to any competitor of Gaussian, Inc.  The licensee
 of this program is prohibited from giving any competitor of
 Gaussian, Inc. access to this program.  By using this program,
 the user acknowledges that Gaussian, Inc. is engaged in the
 business of creating and licensing software in the field of
 computational chemistry and represents and warrants to the
 licensee that it is not a competitor of Gaussian, Inc. and that
 it will not use this program in any manner prohibited above.
 ---------------------------------------------------------------
  

 Cite this work as:
 Gaussian 16, Revision C.01,
 M. J. Frisch, G. W. Trucks, H. B. Schlegel, G. E. Scuseria, 
 M. A. Robb, J. R. Cheeseman, G. Scalmani, V. Barone, 
 G. A. Petersson, H. Nakatsuji, X. Li, M. Caricato, A. V. Marenich, 
 J. Bloino, B. G. Janesko, R. Gomperts, B. Mennucci, H. P. Hratchian, 
 J. V. Ortiz, A. F. Izmaylov, J. L. Sonnenberg, D. Williams-Young, 
 F. Ding, F. Lipparini, F. Egidi, J. Goings, B. Peng, A. Petrone, 
 T. Henderson, D. Ranasinghe, V. G. Zakrzewski, J. Gao, N. Rega, 
 G. Zheng, W. Liang, M. Hada, M. Ehara, K. Toyota, R. Fukuda, 
 J. Hasegawa, M. Ishida, T. Nakajima, Y. Honda, O. Kitao, H. Nakai, 
 T. Vreven, K. Throssell, J. A. Montgomery, Jr., J. E. Peralta, 
 F. Ogliaro, M. J. Bearpark, J. J. Heyd, E. N. Brothers, K. N. Kudin, 
 V. N. Staroverov, T. A. Keith, R. Kobayashi, J. Normand, 
 K. Raghavachari, A. P. Rendell, J. C. Burant, S. S. Iyengar, 
 J. Tomasi, M. Cossi, J. M. Millam, M. Klene, C. Adamo, R. Cammi, 
 J. W. Ochterski, R. L. Martin, K. Morokuma, O. Farkas, 
 J. B. Foresman, and D. J. Fox, Gaussian, Inc., Wallingford CT, 2019.
 
 ******************************************
 Gaussian 16:  ES64L-G16RevC.01  3-Jul-2019
                 3-Feb-2022 
 ******************************************
 %NProcShared=32
 Will use up to   32 processors via shared memory.
 %mem=16GB
 %chk=Ac1_clust-15.chk
 ----------------------------------------------------------------------
 # B3LYP/6-31G(d,p) empiricaldispersion=GD3BJ int=(grid=ultrafine) opt 
 freq=noraman
 ----------------------------------------------------------------------
 1/18=20,19=15,26=4,38=1/1,3;
 2/9=110,12=2,17=6,18=5,40=1/2;
 3/5=1,6=6,7=101,11=2,25=1,30=1,71=1,74=-5,75=-5,124=41/1,2,3;
 4//1;
 5/5=2,38=5/2;
 6/7=2,8=2,9=2,10=2,28=1/1;
 7//1,2,3,16;
 1/18=20,19=15,26=4/3(2);
 2/9=110/2;
 99//99;
 2/9=110/2;
 3/5=1,6=6,7=101,11=2,25=1,30=1,71=1,74=-5,75=-5,124=41/1,2,3;
 4/5=5,16=3,69=1/1;
 5/5=2,38=5/2;
 7//1,2,3,16;
 1/18=20,19=15,26=4/3(-5);
 2/9=110/2;
 6/7=2,8=2,9=2,10=2,19=2,28=1/1;
 99/9=1/99;
 -------
 Ac1.xyz
 -------
 Symbolic Z-matrix:
 Charge =  0 Multiplicity = 1
 O                     5.3332   -0.2641    0.2205 
 C                     4.5546   -0.3919   -0.8758 
 C                     3.1323   -0.834    -0.5404 
 C                     3.0217   -2.1852    0.2158 
 C                     3.5274   -3.4358   -0.545 
 C                     2.4714   -4.1727   -1.4009 
 C                     1.8539   -3.3844   -2.5735 
 C                     2.8711   -2.94     -3.6448 
 C                     2.2658   -2.078    -4.7725 
 C                     1.1728   -2.7571   -5.6237 
 C                     1.6511   -4.0087   -6.3763 
 O                     4.9474   -0.1539   -2.0084 
 H                     6.18      0.0171   -0.1268 
 H                     2.5594   -0.8498   -1.4648 
 H                     2.6949   -0.0385    0.0616 
 H                     3.5714   -2.1009    1.1562 
 H                     1.9856   -2.3441    0.5199 
 H                     4.4061   -3.1994   -1.1459 
 H                     3.8915   -4.1498    0.1958 
 H                     2.9218   -5.0846   -1.7972 
 H                     1.6661   -4.5132   -0.7478 
 H                     1.1017   -4.0187   -3.0441 
 H                     1.3021   -2.5253   -2.1931 
 H                     3.3658   -3.8145   -4.0691 
 H                     3.6662   -2.3603   -3.1755 
 H                     1.8588   -1.1639   -4.3366 
 H                     3.0714   -1.7471   -5.4303 
 H                     0.3143   -3.0099   -5.0002 
 H                     0.7991   -2.0343   -6.3508 
 H                     1.9398   -4.8043   -5.689 
 H                     0.8614   -4.4035   -7.0162 
 H                     2.5096   -3.7862   -7.0111 
 

 GradGradGradGradGradGradGradGradGradGradGradGradGradGradGradGradGradGrad
 Berny optimization.
 Initialization pass.
                           ----------------------------
                           !    Initial Parameters    !
                           ! (Angstroms and Degrees)  !
 --------------------------                            --------------------------
 ! Name  Definition              Value          Derivative Info.                !
 --------------------------------------------------------------------------------
 ! R1    R(1,2)                  1.3507         estimate D2E/DX2                !
 ! R2    R(1,13)                 0.9575         estimate D2E/DX2                !
 ! R3    R(2,3)                  1.5267         estimate D2E/DX2                !
 ! R4    R(2,12)                 1.2222         estimate D2E/DX2                !
 ! R5    R(3,4)                  1.5524         estimate D2E/DX2                !
 ! R6    R(3,14)                 1.0876         estimate D2E/DX2                !
 ! R7    R(3,15)                 1.0893         estimate D2E/DX2                !
 ! R8    R(4,5)                  1.5487         estimate D2E/DX2                !
 ! R9    R(4,16)                 1.0925         estimate D2E/DX2                !
 ! R10   R(4,17)                 1.0914         estimate D2E/DX2                !
 ! R11   R(5,6)                  1.5462         estimate D2E/DX2                !
 ! R12   R(5,18)                 1.0904         estimate D2E/DX2                !
 ! R13   R(5,19)                 1.0914         estimate D2E/DX2                !
 ! R14   R(6,7)                  1.542          estimate D2E/DX2                !
 ! R15   R(6,20)                 1.0915         estimate D2E/DX2                !
 ! R16   R(6,21)                 1.0913         estimate D2E/DX2                !
 ! R17   R(7,8)                  1.5427         estimate D2E/DX2                !
 ! R18   R(7,22)                 1.0907         estimate D2E/DX2                !
 ! R19   R(7,23)                 1.0896         estimate D2E/DX2                !
 ! R20   R(8,9)                  1.5431         estimate D2E/DX2                !
 ! R21   R(8,24)                 1.0906         estimate D2E/DX2                !
 ! R22   R(8,25)                 1.0902         estimate D2E/DX2                !
 ! R23   R(9,10)                 1.5428         estimate D2E/DX2                !
 ! R24   R(9,26)                 1.0914         estimate D2E/DX2                !
 ! R25   R(9,27)                 1.0914         estimate D2E/DX2                !
 ! R26   R(10,11)                1.5368         estimate D2E/DX2                !
 ! R27   R(10,28)                1.0907         estimate D2E/DX2                !
 ! R28   R(10,29)                1.0912         estimate D2E/DX2                !
 ! R29   R(11,30)                1.0903         estimate D2E/DX2                !
 ! R30   R(11,31)                1.0904         estimate D2E/DX2                !
 ! R31   R(11,32)                1.0906         estimate D2E/DX2                !
 ! A1    A(2,1,13)             104.0749         estimate D2E/DX2                !
 ! A2    A(1,2,3)              112.7121         estimate D2E/DX2                !
 ! A3    A(1,2,12)             123.2621         estimate D2E/DX2                !
 ! A4    A(3,2,12)             124.0133         estimate D2E/DX2                !
 ! A5    A(2,3,4)              115.1785         estimate D2E/DX2                !
 ! A6    A(2,3,14)             107.9508         estimate D2E/DX2                !
 ! A7    A(2,3,15)             106.5002         estimate D2E/DX2                !
 ! A8    A(4,3,14)             111.3364         estimate D2E/DX2                !
 ! A9    A(4,3,15)             109.7452         estimate D2E/DX2                !
 ! A10   A(14,3,15)            105.5933         estimate D2E/DX2                !
 ! A11   A(3,4,5)              116.1232         estimate D2E/DX2                !
 ! A12   A(3,4,16)             108.4387         estimate D2E/DX2                !
 ! A13   A(3,4,17)             109.2738         estimate D2E/DX2                !
 ! A14   A(5,4,16)             108.7147         estimate D2E/DX2                !
 ! A15   A(5,4,17)             109.2252         estimate D2E/DX2                !
 ! A16   A(16,4,17)            104.4208         estimate D2E/DX2                !
 ! A17   A(4,5,6)              115.707          estimate D2E/DX2                !
 ! A18   A(4,5,18)             111.0243         estimate D2E/DX2                !
 ! A19   A(4,5,19)             107.6841         estimate D2E/DX2                !
 ! A20   A(6,5,18)             110.4033         estimate D2E/DX2                !
 ! A21   A(6,5,19)             106.9649         estimate D2E/DX2                !
 ! A22   A(18,5,19)            104.3022         estimate D2E/DX2                !
 ! A23   A(5,6,7)              116.7953         estimate D2E/DX2                !
 ! A24   A(5,6,20)             108.5007         estimate D2E/DX2                !
 ! A25   A(5,6,21)             108.7473         estimate D2E/DX2                !
 ! A26   A(7,6,20)             108.4354         estimate D2E/DX2                !
 ! A27   A(7,6,21)             108.608          estimate D2E/DX2                !
 ! A28   A(20,6,21)            105.1352         estimate D2E/DX2                !
 ! A29   A(6,7,8)              114.2868         estimate D2E/DX2                !
 ! A30   A(6,7,22)             107.8774         estimate D2E/DX2                !
 ! A31   A(6,7,23)             109.9006         estimate D2E/DX2                !
 ! A32   A(8,7,22)             108.8225         estimate D2E/DX2                !
 ! A33   A(8,7,23)             110.4403         estimate D2E/DX2                !
 ! A34   A(22,7,23)            105.0645         estimate D2E/DX2                !
 ! A35   A(7,8,9)              114.1906         estimate D2E/DX2                !
 ! A36   A(7,8,24)             109.771          estimate D2E/DX2                !
 ! A37   A(7,8,25)             109.581          estimate D2E/DX2                !
 ! A38   A(9,8,24)             109.9699         estimate D2E/DX2                !
 ! A39   A(9,8,25)             107.6766         estimate D2E/DX2                !
 ! A40   A(24,8,25)            105.2497         estimate D2E/DX2                !
 ! A41   A(8,9,10)             115.7981         estimate D2E/DX2                !
 ! A42   A(8,9,26)             108.7996         estimate D2E/DX2                !
 ! A43   A(8,9,27)             108.6801         estimate D2E/DX2                !
 ! A44   A(10,9,26)            108.954          estimate D2E/DX2                !
 ! A45   A(10,9,27)            108.8956         estimate D2E/DX2                !
 ! A46   A(26,9,27)            105.1908         estimate D2E/DX2                !
 ! A47   A(9,10,11)            114.0904         estimate D2E/DX2                !
 ! A48   A(9,10,28)            110.1354         estimate D2E/DX2                !
 ! A49   A(9,10,29)            108.5825         estimate D2E/DX2                !
 ! A50   A(11,10,28)           109.6427         estimate D2E/DX2                !
 ! A51   A(11,10,29)           108.6468         estimate D2E/DX2                !
 ! A52   A(28,10,29)           105.359          estimate D2E/DX2                !
 ! A53   A(10,11,30)           111.5926         estimate D2E/DX2                !
 ! A54   A(10,11,31)           110.9081         estimate D2E/DX2                !
 ! A55   A(10,11,32)           111.3387         estimate D2E/DX2                !
 ! A56   A(30,11,31)           107.3079         estimate D2E/DX2                !
 ! A57   A(30,11,32)           107.8996         estimate D2E/DX2                !
 ! A58   A(31,11,32)           107.6002         estimate D2E/DX2                !
 ! D1    D(13,1,2,3)          -179.7159         estimate D2E/DX2                !
 ! D2    D(13,1,2,12)           -0.9553         estimate D2E/DX2                !
 ! D3    D(1,2,3,4)            -58.4978         estimate D2E/DX2                !
 ! D4    D(1,2,3,14)           176.4085         estimate D2E/DX2                !
 ! D5    D(1,2,3,15)            63.4128         estimate D2E/DX2                !
 ! D6    D(12,2,3,4)           122.7525         estimate D2E/DX2                !
 ! D7    D(12,2,3,14)           -2.3412         estimate D2E/DX2                !
 ! D8    D(12,2,3,15)         -115.3369         estimate D2E/DX2                !
 ! D9    D(2,3,4,5)            -63.2596         estimate D2E/DX2                !
 ! D10   D(2,3,4,16)            59.4377         estimate D2E/DX2                !
 ! D11   D(2,3,4,17)           172.6844         estimate D2E/DX2                !
 ! D12   D(14,3,4,5)            60.0558         estimate D2E/DX2                !
 ! D13   D(14,3,4,16)         -177.2469         estimate D2E/DX2                !
 ! D14   D(14,3,4,17)          -64.0002         estimate D2E/DX2                !
 ! D15   D(15,3,4,5)           176.5958         estimate D2E/DX2                !
 ! D16   D(15,3,4,16)          -60.7069         estimate D2E/DX2                !
 ! D17   D(15,3,4,17)           52.5398         estimate D2E/DX2                !
 ! D18   D(3,4,5,6)            -90.2018         estimate D2E/DX2                !
 ! D19   D(3,4,5,18)            36.6358         estimate D2E/DX2                !
 ! D20   D(3,4,5,19)           150.2344         estimate D2E/DX2                !
 ! D21   D(16,4,5,6)           147.2459         estimate D2E/DX2                !
 ! D22   D(16,4,5,18)          -85.9165         estimate D2E/DX2                !
 ! D23   D(16,4,5,19)           27.682          estimate D2E/DX2                !
 ! D24   D(17,4,5,6)            33.8793         estimate D2E/DX2                !
 ! D25   D(17,4,5,18)          160.717          estimate D2E/DX2                !
 ! D26   D(17,4,5,19)          -85.6845         estimate D2E/DX2                !
 ! D27   D(4,5,6,7)             62.9663         estimate D2E/DX2                !
 ! D28   D(4,5,6,20)          -174.1748         estimate D2E/DX2                !
 ! D29   D(4,5,6,21)           -60.3263         estimate D2E/DX2                !
 ! D30   D(18,5,6,7)           -64.183          estimate D2E/DX2                !
 ! D31   D(18,5,6,20)           58.6759         estimate D2E/DX2                !
 ! D32   D(18,5,6,21)          172.5244         estimate D2E/DX2                !
 ! D33   D(19,5,6,7)          -177.0775         estimate D2E/DX2                !
 ! D34   D(19,5,6,20)          -54.2186         estimate D2E/DX2                !
 ! D35   D(19,5,6,21)           59.6299         estimate D2E/DX2                !
 ! D36   D(5,6,7,8)             61.468          estimate D2E/DX2                !
 ! D37   D(5,6,7,22)          -177.3692         estimate D2E/DX2                !
 ! D38   D(5,6,7,23)           -63.3398         estimate D2E/DX2                !
 ! D39   D(20,6,7,8)           -61.4247         estimate D2E/DX2                !
 ! D40   D(20,6,7,22)           59.7382         estimate D2E/DX2                !
 ! D41   D(20,6,7,23)          173.7676         estimate D2E/DX2                !
 ! D42   D(21,6,7,8)          -175.1679         estimate D2E/DX2                !
 ! D43   D(21,6,7,22)          -54.005          estimate D2E/DX2                !
 ! D44   D(21,6,7,23)           60.0244         estimate D2E/DX2                !
 ! D45   D(6,7,8,9)           -176.4509         estimate D2E/DX2                !
 ! D46   D(6,7,8,24)            59.5397         estimate D2E/DX2                !
 ! D47   D(6,7,8,25)           -55.5805         estimate D2E/DX2                !
 ! D48   D(22,7,8,9)            62.91           estimate D2E/DX2                !
 ! D49   D(22,7,8,24)          -61.0994         estimate D2E/DX2                !
 ! D50   D(22,7,8,25)         -176.2196         estimate D2E/DX2                !
 ! D51   D(23,7,8,9)           -51.9298         estimate D2E/DX2                !
 ! D52   D(23,7,8,24)         -175.9392         estimate D2E/DX2                !
 ! D53   D(23,7,8,25)           68.9406         estimate D2E/DX2                !
 ! D54   D(7,8,9,10)           -61.7185         estimate D2E/DX2                !
 ! D55   D(7,8,9,26)            61.3505         estimate D2E/DX2                !
 ! D56   D(7,8,9,27)           175.385          estimate D2E/DX2                !
 ! D57   D(24,8,9,10)           62.1842         estimate D2E/DX2                !
 ! D58   D(24,8,9,26)         -174.7468         estimate D2E/DX2                !
 ! D59   D(24,8,9,27)          -60.7123         estimate D2E/DX2                !
 ! D60   D(25,8,9,10)          176.3591         estimate D2E/DX2                !
 ! D61   D(25,8,9,26)          -60.5719         estimate D2E/DX2                !
 ! D62   D(25,8,9,27)           53.4627         estimate D2E/DX2                !
 ! D63   D(8,9,10,11)          -61.1342         estimate D2E/DX2                !
 ! D64   D(8,9,10,28)           62.6546         estimate D2E/DX2                !
 ! D65   D(8,9,10,29)          177.5454         estimate D2E/DX2                !
 ! D66   D(26,9,10,11)         175.878          estimate D2E/DX2                !
 ! D67   D(26,9,10,28)         -60.3332         estimate D2E/DX2                !
 ! D68   D(26,9,10,29)          54.5576         estimate D2E/DX2                !
 ! D69   D(27,9,10,11)          61.6487         estimate D2E/DX2                !
 ! D70   D(27,9,10,28)        -174.5625         estimate D2E/DX2                !
 ! D71   D(27,9,10,29)         -59.6717         estimate D2E/DX2                !
 ! D72   D(9,10,11,30)          64.5776         estimate D2E/DX2                !
 ! D73   D(9,10,11,31)        -175.8376         estimate D2E/DX2                !
 ! D74   D(9,10,11,32)         -56.0522         estimate D2E/DX2                !
 ! D75   D(28,10,11,30)        -59.4762         estimate D2E/DX2                !
 ! D76   D(28,10,11,31)         60.1086         estimate D2E/DX2                !
 ! D77   D(28,10,11,32)        179.894          estimate D2E/DX2                !
 ! D78   D(29,10,11,30)       -174.1376         estimate D2E/DX2                !
 ! D79   D(29,10,11,31)        -54.5528         estimate D2E/DX2                !
 ! D80   D(29,10,11,32)         65.2326         estimate D2E/DX2                !
 --------------------------------------------------------------------------------
 Trust Radius=3.00D-01 FncErr=1.00D-07 GrdErr=1.00D-06 EigMax=2.50D+02 EigMin=1.00D-04
 Number of steps in this run=    179 maximum allowed number of steps=    192.
 GradGradGradGradGradGradGradGradGradGradGradGradGradGradGradGradGradGrad

                          Input orientation:                          
 ---------------------------------------------------------------------
 Center     Atomic      Atomic             Coordinates (Angstroms)
 Number     Number       Type             X           Y           Z
 ---------------------------------------------------------------------
      1          8           0        5.333200   -0.264100    0.220500
      2          6           0        4.554600   -0.391900   -0.875800
      3          6           0        3.132300   -0.834000   -0.540400
      4          6           0        3.021700   -2.185200    0.215800
      5          6           0        3.527400   -3.435800   -0.545000
      6          6           0        2.471400   -4.172700   -1.400900
      7          6           0        1.853900   -3.384400   -2.573500
      8          6           0        2.871100   -2.940000   -3.644800
      9          6           0        2.265800   -2.078000   -4.772500
     10          6           0        1.172800   -2.757100   -5.623700
     11          6           0        1.651100   -4.008700   -6.376300
     12          8           0        4.947400   -0.153900   -2.008400
     13          1           0        6.180000    0.017100   -0.126800
     14          1           0        2.559400   -0.849800   -1.464800
     15          1           0        2.694900   -0.038500    0.061600
     16          1           0        3.571400   -2.100900    1.156200
     17          1           0        1.985600   -2.344100    0.519900
     18          1           0        4.406100   -3.199400   -1.145900
     19          1           0        3.891500   -4.149800    0.195800
     20          1           0        2.921800   -5.084600   -1.797200
     21          1           0        1.666100   -4.513200   -0.747800
     22          1           0        1.101700   -4.018700   -3.044100
     23          1           0        1.302100   -2.525300   -2.193100
     24          1           0        3.365800   -3.814500   -4.069100
     25          1           0        3.666200   -2.360300   -3.175500
     26          1           0        1.858800   -1.163900   -4.336600
     27          1           0        3.071400   -1.747100   -5.430300
     28          1           0        0.314300   -3.009900   -5.000200
     29          1           0        0.799100   -2.034300   -6.350800
     30          1           0        1.939800   -4.804300   -5.689000
     31          1           0        0.861400   -4.403500   -7.016200
     32          1           0        2.509600   -3.786200   -7.011100
 ---------------------------------------------------------------------
                    Distance matrix (angstroms):
                    1          2          3          4          5
     1  O    0.000000
     2  C    1.350713   0.000000
     3  C    2.397439   1.526723   0.000000
     4  C    3.005608   2.599480   1.552357   0.000000
     5  C    3.729153   3.229535   2.631632   1.548725   0.000000
     6  C    5.108424   4.348552   3.510579   2.620440   1.546196
     7  C    5.445019   4.373902   3.503190   3.253004   2.630220
     8  C    5.306875   4.122420   3.760420   3.936577   3.207071
     9  C    6.134266   4.823464   4.495445   5.046386   4.615952
    10  C    7.594646   6.290731   5.777360   6.151850   5.638969
    11  C    8.431943   7.194933   6.806644   6.975635   6.152461
    12  O    2.264725   1.222178   2.431491   3.575132   3.863781
    13  H    0.957476   1.835812   3.191224   3.865535   4.374208
    14  H    3.298067   2.130121   1.087649   2.195776   2.910404
    15  H    2.652691   2.112367   1.089286   2.176901   3.550024
    16  H    2.711698   2.831323   2.162475   1.092533   2.162863
    17  H    3.952527   3.515512   2.172455   1.091434   2.168633
    18  H    3.367870   2.824369   2.753963   2.190751   1.090449
    19  H    4.144608   3.963564   3.480360   2.148629   1.091398
    20  H    5.755274   5.053360   4.437506   3.531100   2.157150
    21  H    5.695619   5.034375   3.966014   2.861077   2.160175
    22  H    6.531480   5.456897   4.531464   4.204173   3.531189
    23  H    5.214236   4.106754   2.990242   2.979176   2.914996
    24  H    5.905647   4.829555   4.624892   4.597107   3.548071
    25  H    4.325016   3.154754   3.091665   3.456437   2.845259
    26  H    5.800712   4.454263   4.017682   4.808299   4.724615
    27  H    6.264708   4.977943   4.974795   5.663289   5.189008
    28  H    7.744965   6.468751   5.706617   5.934375   5.509465
    29  H    8.177631   6.839363   6.375366   6.934188   6.566212
    30  H    8.188453   7.033729   6.610100   6.549569   5.554638
    31  H    9.460521   8.212014   7.735264   7.866993   7.065439
    32  H    8.524901   7.303780   7.139552   7.419807   6.555086
                    6          7          8          9         10
     6  C    0.000000
     7  C    1.541984   0.000000
     8  C    2.591215   1.542683   0.000000
     9  C    3.974635   2.590742   1.543094   0.000000
    10  C    4.639216   3.187652   2.614139   1.542844   0.000000
    11  C    5.045235   3.859037   3.176730   2.584112   1.536776
    12  O    4.759242   4.508349   3.840726   4.305042   5.839062
    13  H    5.738595   6.022598   5.663001   6.425958   7.936255
    14  H    3.324679   2.855021   3.036197   3.540559   4.780889
    15  H    4.390953   4.341207   4.710324   5.264239   6.483071
    16  H    3.470031   4.302074   4.923831   6.070799   7.221560
    17  H    2.696155   3.266296   4.299294   5.306488   6.210880
    18  H    2.180688   2.930186   2.944149   4.357826   5.540808
    19  H    2.136974   3.522311   4.153919   5.623101   6.572482
    20  H    1.091547   2.152611   2.831167   4.280466   4.808156
    21  H    1.091324   2.154678   3.509928   4.742157   5.205923
    22  H    2.144738   1.090690   2.157594   2.847598   2.872460
    23  H    2.169970   1.089606   2.177423   2.789641   3.440853
    24  H    2.836820   2.169711   1.090646   2.172603   2.888620
    25  H    2.803845   2.166937   1.090174   2.142714   3.516842
    26  H    4.248116   2.835342   2.158210   1.091438   2.159979
    27  H    4.741266   3.510607   2.156650   1.091415   2.159209
    28  H    4.354325   2.898188   2.894688   2.174543   1.090726
    29  H    5.645428   4.147694   3.526459   2.155029   1.091222
    30  H    4.366843   3.424885   2.919193   2.894643   2.187140
    31  H    5.846107   4.664891   4.188922   3.523419   2.178683
    32  H    5.623627   4.503741   3.489801   2.826432   2.184253
                   11         12         13         14         15
    11  C    0.000000
    12  O    6.693551   0.000000
    13  H    8.704841   2.255873   0.000000
    14  H    5.909864   2.546040   3.956072   0.000000
    15  H    7.635350   3.061368   3.490631   1.733916   0.000000
    16  H    8.004112   3.962181   3.596777   3.075555   2.493972
    17  H    7.102138   4.467833   4.856591   2.549748   2.455389
    18  H    5.966747   3.211228   3.811976   3.005431   3.791774
    19  H    6.944912   4.684084   4.764909   3.927096   4.283999
    20  H    4.872412   5.334741   6.279606   4.263256   5.382355
    21  H    5.651085   5.599959   6.425306   3.838303   4.662242
    22  H    3.377203   5.549663   7.112486   3.828969   5.293926
    23  H    4.452127   4.352685   5.875994   2.217775   3.634245
    24  H    2.881160   4.488645   6.175970   4.027668   5.636574
    25  H    4.125890   2.805672   4.611485   2.536358   4.100365
    26  H    3.506623   3.997507   6.147353   2.972665   4.616249
    27  H    2.833197   4.215099   6.395538   4.097863   5.763856
    28  H    2.162935   6.210734   8.204827   4.712277   6.333900
    29  H    2.150537   6.292911   8.479416   5.326790   6.978263
    30  H    1.090279   6.649714   8.494896   5.819436   7.506825
    31  H    1.090397   7.735151   9.761816   6.806617   8.515292
    32  H    1.090642   6.645561   8.679315   6.275856   8.006415
                   16         17         18         19         20
    16  H    0.000000
    17  H    1.725916   0.000000
    18  H    2.683857   3.060269   0.000000
    19  H    2.285350   2.645382   1.722856   0.000000
    20  H    4.248178   3.708876   2.486225   2.405456   0.000000
    21  H    3.615878   2.532615   3.064662   2.444350   1.733355
    22  H    5.236401   4.035797   3.897881   4.277514   2.450238
    23  H    4.067880   2.803636   3.344526   3.879541   3.054535
    24  H    5.502950   5.012579   3.163174   4.310239   2.640420
    25  H    4.340495   4.059638   2.317502   3.823445   3.142555
    26  H    5.829393   4.999454   4.562079   5.795698   4.790659
    27  H    6.614919   6.077849   4.716639   6.172401   4.935656
    28  H    7.023976   5.805862   5.624444   6.410472   4.621974
    29  H    8.002820   6.979275   6.438858   7.542960   5.877538
    30  H    7.538385   6.678707   5.412772   6.234451   4.023556
    31  H    8.912586   7.892893   6.962412   7.826801   5.652177
    32  H    8.406690   7.685713   6.192061   7.347194   5.388924
                   21         22         23         24         25
    21  H    0.000000
    22  H    2.415796   0.000000
    23  H    2.484579   1.730493   0.000000
    24  H    3.795813   2.493686   3.072502   0.000000
    25  H    3.811706   3.056831   2.565405   1.733049   0.000000
    26  H    4.912680   3.223917   2.599599   3.060766   2.458906
    27  H    5.617115   3.838468   3.770342   2.492725   2.411208
    28  H    4.708522   2.337521   3.015028   3.290286   3.871272
    29  H    6.187911   3.868291   4.216700   3.868232   4.290579
    30  H    4.957329   2.883587   4.221590   2.374291   3.907848
    31  H    6.320792   3.997924   5.194627   3.912076   5.176152
    32  H    6.361521   4.215842   5.124554   3.064187   4.252381
                   26         27         28         29         30
    26  H    0.000000
    27  H    1.733984   0.000000
    28  H    2.496710   3.062883   0.000000
    29  H    2.436711   2.468431   1.735208   0.000000
    30  H    3.884335   3.270155   2.517254   3.067911   0.000000
    31  H    4.320888   3.802057   2.511114   2.461655   1.756430
    32  H    3.801703   2.640545   3.076638   2.535934   1.763278
                   31         32
    31  H    0.000000
    32  H    1.760014   0.000000
 Stoichiometry    C10H20O2
 Framework group  C1[X(C10H20O2)]
 Deg. of freedom    90
 Full point group                 C1      NOp   1
 Largest Abelian subgroup         C1      NOp   1
 Largest concise Abelian subgroup C1      NOp   1
                         Standard orientation:                         
 ---------------------------------------------------------------------
 Center     Atomic      Atomic             Coordinates (Angstroms)
 Number     Number       Type             X           Y           Z
 ---------------------------------------------------------------------
      1          8           0       -3.868625   -0.912494   -0.368589
      2          6           0       -2.588269   -1.139127   -0.002872
      3          6           0       -2.079626   -0.126984    1.020716
      4          6           0       -2.132418    1.356172    0.565443
      5          6           0       -1.250179    1.727577   -0.652039
      6          6           0        0.186604    2.193776   -0.321834
      7          6           0        1.109094    1.168154    0.367243
      8          6           0        1.375484   -0.104252   -0.463352
      9          6           0        2.227815   -1.166248    0.262484
     10          6           0        3.654587   -0.729001    0.654280
     11          6           0        4.542326   -0.342916   -0.539260
     12          8           0       -1.923493   -2.070704   -0.431773
     13          1           0       -4.057750   -1.608824   -0.997968
     14          1           0       -1.071297   -0.417454    1.306862
     15          1           0       -2.687354   -0.259283    1.914979
     16          1           0       -3.170037    1.610840    0.337148
     17          1           0       -1.873183    2.000838    1.407126
     18          1           0       -1.228727    0.917200   -1.381359
     19          1           0       -1.739063    2.550015   -1.177146
     20          1           0        0.665239    2.522178   -1.246246
     21          1           0        0.130705    3.086815    0.302941
     22          1           0        2.060799    1.659377    0.573549
     23          1           0        0.707394    0.906657    1.345760
     24          1           0        1.843570    0.165011   -1.410929
     25          1           0        0.427242   -0.569173   -0.733842
     26          1           0        1.697268   -1.489893    1.159708
     27          1           0        2.291099   -2.054580   -0.368426
     28          1           0        3.612238    0.099199    1.362781
     29          1           0        4.133050   -1.547443    1.194642
     30          1           0        4.160908    0.539142   -1.054238
     31          1           0        5.556826   -0.113938   -0.211654
     32          1           0        4.605507   -1.154018   -1.265634
 ---------------------------------------------------------------------
 Rotational constants (GHZ):           1.3732126           0.4088113           0.3438533
 Standard basis: 6-31G(d,p) (6D, 7F)
 There are   280 symmetry adapted cartesian basis functions of A   symmetry.
 There are   280 symmetry adapted basis functions of A   symmetry.
   280 basis functions,   476 primitive gaussians,   280 cartesian basis functions
    48 alpha electrons       48 beta electrons
       nuclear repulsion energy       738.4527606271 Hartrees.
 NAtoms=   32 NActive=   32 NUniq=   32 SFac= 1.00D+00 NAtFMM=   60 NAOKFM=F Big=F
 Integral buffers will be    131072 words long.
 Raffenetti 2 integral format.
 Two-electron integral symmetry is turned on.
 Nuclear repulsion after empirical dispersion term =      738.4022009142 Hartrees.
 One-electron integrals computed using PRISM.
 NBasis=   280 RedAO= T EigKep=  3.34D-03  NBF=   280
 NBsUse=   280 1.00D-06 EigRej= -1.00D+00 NBFU=   280
 ExpMin= 1.61D-01 ExpMax= 5.48D+03 ExpMxC= 8.25D+02 IAcc=3 IRadAn=         5 AccDes= 0.00D+00
 Harris functional with IExCor=  402 and IRadAn=       5 diagonalized for initial guess.
 HarFok:  IExCor=  402 AccDes= 0.00D+00 IRadAn=         5 IDoV= 1 UseB2=F ITyADJ=14
 ICtDFT=  3500011 ScaDFX=  1.000000  1.000000  1.000000  1.000000
 FoFCou: FMM=F IPFlag=           0 FMFlag=      100000 FMFlg1=           0
         NFxFlg=           0 DoJE=T BraDBF=F KetDBF=T FulRan=T
         wScrn=  0.000000 ICntrl=       500 IOpCl=  0 I1Cent=   200000004 NGrid=           0
         NMat0=    1 NMatS0=      1 NMatT0=    0 NMatD0=    1 NMtDS0=    0 NMtDT0=    0
 Petite list used in FoFCou.
 Requested convergence on RMS density matrix=1.00D-08 within 128 cycles.
 Requested convergence on MAX density matrix=1.00D-06.
 Requested convergence on             energy=1.00D-06.
 No special actions if energy rises.
 Integral accuracy reduced to 1.0D-05 until final iterations.
 Initial convergence to 1.0D-05 achieved.  Increase integral accuracy.
 SCF Done:  E(RB3LYP) =  -543.662987066     A.U. after   13 cycles
            NFock= 13  Conv=0.79D-08     -V/T= 2.0096

 **********************************************************************

            Population analysis using the SCF Density.

 **********************************************************************

 Orbital symmetries:
       Occupied  (A) (A) (A) (A) (A) (A) (A) (A) (A) (A) (A) (A)
                 (A) (A) (A) (A) (A) (A) (A) (A) (A) (A) (A) (A)
                 (A) (A) (A) (A) (A) (A) (A) (A) (A) (A) (A) (A)
                 (A) (A) (A) (A) (A) (A) (A) (A) (A) (A) (A) (A)
       Virtual   (A) (A) (A) (A) (A) (A) (A) (A) (A) (A) (A) (A)
                 (A) (A) (A) (A) (A) (A) (A) (A) (A) (A) (A) (A)
                 (A) (A) (A) (A) (A) (A) (A) (A) (A) (A) (A) (A)
                 (A) (A) (A) (A) (A) (A) (A) (A) (A) (A) (A) (A)
                 (A) (A) (A) (A) (A) (A) (A) (A) (A) (A) (A) (A)
                 (A) (A) (A) (A) (A) (A) (A) (A) (A) (A) (A) (A)
                 (A) (A) (A) (A) (A) (A) (A) (A) (A) (A) (A) (A)
                 (A) (A) (A) (A) (A) (A) (A) (A) (A) (A) (A) (A)
                 (A) (A) (A) (A) (A) (A) (A) (A) (A) (A) (A) (A)
                 (A) (A) (A) (A) (A) (A) (A) (A) (A) (A) (A) (A)
                 (A) (A) (A) (A) (A) (A) (A) (A) (A) (A) (A) (A)
                 (A) (A) (A) (A) (A) (A) (A) (A) (A) (A) (A) (A)
                 (A) (A) (A) (A) (A) (A) (A) (A) (A) (A) (A) (A)
                 (A) (A) (A) (A) (A) (A) (A) (A) (A) (A) (A) (A)
                 (A) (A) (A) (A) (A) (A) (A) (A) (A) (A) (A) (A)
                 (A) (A) (A) (A) (A) (A) (A) (A) (A) (A) (A) (A)
                 (A) (A) (A) (A) (A) (A) (A) (A) (A) (A) (A) (A)
                 (A) (A) (A) (A) (A) (A) (A) (A) (A) (A) (A) (A)
                 (A) (A) (A) (A) (A) (A) (A) (A) (A) (A) (A) (A)
                 (A) (A) (A) (A)
 The electronic state is 1-A.
 Alpha  occ. eigenvalues --  -19.20092 -19.13935 -10.32207 -10.19897 -10.19157
 Alpha  occ. eigenvalues --  -10.18083 -10.17723 -10.17282 -10.17144 -10.16839
 Alpha  occ. eigenvalues --  -10.16676 -10.16568  -1.10942  -1.01276  -0.81094
 Alpha  occ. eigenvalues --   -0.78973  -0.76164  -0.72432  -0.68588  -0.64524
 Alpha  occ. eigenvalues --   -0.62048  -0.59729  -0.56822  -0.54223  -0.48613
 Alpha  occ. eigenvalues --   -0.47988  -0.47413  -0.46124  -0.44883  -0.44293
 Alpha  occ. eigenvalues --   -0.42703  -0.41124  -0.40752  -0.39594  -0.38658
 Alpha  occ. eigenvalues --   -0.38388  -0.37602  -0.36055  -0.35435  -0.34434
 Alpha  occ. eigenvalues --   -0.33139  -0.32496  -0.31757  -0.31411  -0.30822
 Alpha  occ. eigenvalues --   -0.30168  -0.29707  -0.27100
 Alpha virt. eigenvalues --    0.00564   0.06977   0.08726   0.10234   0.11124
 Alpha virt. eigenvalues --    0.12095   0.13224   0.13912   0.14586   0.15653
 Alpha virt. eigenvalues --    0.15944   0.16567   0.17128   0.17364   0.18473
 Alpha virt. eigenvalues --    0.19130   0.19926   0.20850   0.21279   0.21796
 Alpha virt. eigenvalues --    0.22511   0.23502   0.24026   0.24620   0.25142
 Alpha virt. eigenvalues --    0.25557   0.26336   0.27148   0.29870   0.30257
 Alpha virt. eigenvalues --    0.32326   0.37839   0.48635   0.49420   0.50718
 Alpha virt. eigenvalues --    0.52011   0.52205   0.53249   0.54427   0.55554
 Alpha virt. eigenvalues --    0.55994   0.58344   0.60883   0.61756   0.62930
 Alpha virt. eigenvalues --    0.63855   0.65328   0.65776   0.66946   0.68326
 Alpha virt. eigenvalues --    0.68951   0.69957   0.70782   0.71963   0.73801
 Alpha virt. eigenvalues --    0.75420   0.76138   0.78532   0.80104   0.81665
 Alpha virt. eigenvalues --    0.83029   0.84071   0.85004   0.85848   0.87065
 Alpha virt. eigenvalues --    0.87771   0.88101   0.89143   0.89647   0.90417
 Alpha virt. eigenvalues --    0.91466   0.91953   0.93255   0.94091   0.94732
 Alpha virt. eigenvalues --    0.95314   0.96277   0.97181   0.97461   0.98911
 Alpha virt. eigenvalues --    0.99220   0.99539   1.00673   1.04060   1.04786
 Alpha virt. eigenvalues --    1.05388   1.08555   1.11260   1.14117   1.16942
 Alpha virt. eigenvalues --    1.22706   1.25749   1.28884   1.30517   1.34683
 Alpha virt. eigenvalues --    1.36935   1.39581   1.41298   1.44374   1.47239
 Alpha virt. eigenvalues --    1.50141   1.51664   1.52435   1.54602   1.56593
 Alpha virt. eigenvalues --    1.59769   1.62199   1.64253   1.65741   1.67411
 Alpha virt. eigenvalues --    1.68941   1.71839   1.71960   1.74652   1.76771
 Alpha virt. eigenvalues --    1.77341   1.79204   1.79621   1.81438   1.82080
 Alpha virt. eigenvalues --    1.82692   1.84481   1.85831   1.88566   1.88990
 Alpha virt. eigenvalues --    1.90476   1.92205   1.93728   1.95695   1.97450
 Alpha virt. eigenvalues --    1.98303   2.00664   2.03259   2.05302   2.06520
 Alpha virt. eigenvalues --    2.09804   2.12065   2.12605   2.14666   2.15459
 Alpha virt. eigenvalues --    2.16159   2.18399   2.19044   2.19787   2.22220
 Alpha virt. eigenvalues --    2.22856   2.23814   2.25987   2.26535   2.27165
 Alpha virt. eigenvalues --    2.27967   2.29856   2.29872   2.30700   2.32539
 Alpha virt. eigenvalues --    2.33897   2.36025   2.36449   2.38244   2.38878
 Alpha virt. eigenvalues --    2.42544   2.43247   2.46666   2.46877   2.48339
 Alpha virt. eigenvalues --    2.52593   2.53325   2.54197   2.55777   2.57151
 Alpha virt. eigenvalues --    2.60896   2.61574   2.62987   2.64580   2.67553
 Alpha virt. eigenvalues --    2.68318   2.70294   2.71168   2.72930   2.73214
 Alpha virt. eigenvalues --    2.76168   2.76989   2.79134   2.81032   2.81631
 Alpha virt. eigenvalues --    2.82009   2.86013   2.87221   2.89168   2.90053
 Alpha virt. eigenvalues --    2.90920   2.91410   2.91994   2.92523   2.92776
 Alpha virt. eigenvalues --    2.93000   2.94594   2.96364   3.02839   3.11480
 Alpha virt. eigenvalues --    3.20554   3.27309   3.31060   3.32413   3.33295
 Alpha virt. eigenvalues --    3.34425   3.34913   3.35536   3.38933   3.40109
 Alpha virt. eigenvalues --    3.43144   3.45703   3.46900   3.47641   3.51152
 Alpha virt. eigenvalues --    3.54039   3.55351   3.58557   3.58902   3.61264
 Alpha virt. eigenvalues --    3.93351   4.12939   4.23691   4.29752   4.35432
 Alpha virt. eigenvalues --    4.44229   4.56049   4.60247   4.65624   4.67783
 Alpha virt. eigenvalues --    4.71772   4.76452
          Condensed to atoms (all electrons):
               1          2          3          4          5          6
     1  O    8.113171   0.251703  -0.098743   0.003165  -0.000316   0.000009
     2  C    0.251703   4.383665   0.348033  -0.028413  -0.002385  -0.000139
     3  C   -0.098743   0.348033   5.102064   0.340263  -0.042631  -0.001150
     4  C    0.003165  -0.028413   0.340263   4.917970   0.367545  -0.039345
     5  C   -0.000316  -0.002385  -0.042631   0.367545   4.921732   0.377613
     6  C    0.000009  -0.000139  -0.001150  -0.039345   0.377613   4.905660
     7  C   -0.000001   0.000101  -0.000448  -0.002560  -0.045302   0.372017
     8  C   -0.000003  -0.000429   0.000408  -0.000853  -0.003851  -0.040633
     9  C    0.000000   0.000020  -0.000178   0.000015   0.000087   0.003749
    10  C    0.000000   0.000000   0.000003  -0.000001   0.000002   0.000124
    11  C   -0.000000   0.000000  -0.000000   0.000000  -0.000000  -0.000008
    12  O   -0.081335   0.553203  -0.072979   0.000617   0.000198   0.000010
    13  H    0.268885  -0.009552   0.010866  -0.000309  -0.000074   0.000000
    14  H    0.003214  -0.033148   0.379231  -0.032867  -0.003918   0.000841
    15  H    0.001280  -0.025712   0.355320  -0.022918   0.004429  -0.000075
    16  H    0.005563  -0.008703  -0.036841   0.382143  -0.032710   0.003996
    17  H    0.000018   0.003471  -0.030256   0.379362  -0.044553  -0.006943
    18  H   -0.000102   0.005340  -0.009035  -0.041695   0.385045  -0.036684
    19  H   -0.000032   0.000202   0.004675  -0.034049   0.376341  -0.033951
    20  H   -0.000000   0.000009  -0.000132   0.005010  -0.035098   0.377873
    21  H   -0.000000  -0.000000  -0.000117  -0.007853  -0.039213   0.376299
    22  H    0.000000  -0.000005   0.000074  -0.000102   0.005130  -0.031758
    23  H   -0.000001   0.000122  -0.002330   0.004482  -0.007377  -0.038682
    24  H    0.000000   0.000010  -0.000032   0.000084  -0.000758  -0.002251
    25  H    0.000031   0.000855  -0.000912  -0.000782   0.003089  -0.004970
    26  H    0.000000   0.000032  -0.000154   0.000005  -0.000017   0.000090
    27  H    0.000000  -0.000003   0.000006  -0.000001  -0.000001  -0.000152
    28  H   -0.000000  -0.000000   0.000000  -0.000000  -0.000000  -0.000127
    29  H    0.000000   0.000000   0.000000   0.000000   0.000000  -0.000001
    30  H    0.000000  -0.000000   0.000000  -0.000000   0.000001  -0.000047
    31  H    0.000000  -0.000000   0.000000   0.000000  -0.000000   0.000000
    32  H    0.000000   0.000000   0.000000  -0.000000  -0.000000   0.000000
               7          8          9         10         11         12
     1  O   -0.000001  -0.000003   0.000000   0.000000  -0.000000  -0.081335
     2  C    0.000101  -0.000429   0.000020   0.000000   0.000000   0.553203
     3  C   -0.000448   0.000408  -0.000178   0.000003  -0.000000  -0.072979
     4  C   -0.002560  -0.000853   0.000015  -0.000001   0.000000   0.000617
     5  C   -0.045302  -0.003851   0.000087   0.000002  -0.000000   0.000198
     6  C    0.372017  -0.040633   0.003749   0.000124  -0.000008   0.000010
     7  C    4.912397   0.379382  -0.038717  -0.004481  -0.001380   0.000005
     8  C    0.379382   4.932457   0.373033  -0.044602  -0.004048  -0.002629
     9  C   -0.038717   0.373033   4.897132   0.380031  -0.046783   0.000113
    10  C   -0.004481  -0.044602   0.380031   4.878000   0.375106   0.000000
    11  C   -0.001380  -0.004048  -0.046783   0.375106   4.915321  -0.000000
    12  O    0.000005  -0.002629   0.000113   0.000000  -0.000000   8.049642
    13  H    0.000000   0.000002  -0.000000  -0.000000   0.000000   0.011228
    14  H    0.000215  -0.000526   0.000243  -0.000014   0.000000   0.001089
    15  H   -0.000006  -0.000003  -0.000000   0.000000   0.000000   0.001916
    16  H    0.000010  -0.000011   0.000000  -0.000000  -0.000000   0.000027
    17  H   -0.000590   0.000120  -0.000001  -0.000000   0.000000  -0.000075
    18  H   -0.006417   0.002938  -0.000143   0.000000  -0.000000   0.000171
    19  H    0.004959   0.000120  -0.000000   0.000000   0.000000   0.000001
    20  H   -0.038503  -0.006293   0.000065  -0.000019   0.000004  -0.000000
    21  H   -0.034361   0.004678  -0.000156   0.000000   0.000000  -0.000000
    22  H    0.378773  -0.038534  -0.004875   0.002723   0.000346  -0.000000
    23  H    0.381499  -0.043966  -0.002641  -0.001001   0.000087  -0.000023
    24  H   -0.040785   0.378758  -0.037419  -0.007811   0.003848   0.000021
    25  H   -0.040114   0.375374  -0.029930   0.004876   0.000020   0.010047
    26  H   -0.007331  -0.038929   0.378329  -0.035918   0.005173   0.000085
    27  H    0.004685  -0.033509   0.378435  -0.040024  -0.006495   0.000013
    28  H    0.003462  -0.007522  -0.037711   0.385014  -0.040601   0.000000
    29  H    0.000077   0.004952  -0.032762   0.382855  -0.040071  -0.000000
    30  H    0.000325   0.002497  -0.005240  -0.034633   0.388210  -0.000000
    31  H   -0.000001   0.000117   0.004360  -0.028296   0.380965  -0.000000
    32  H    0.000092  -0.000832  -0.003914  -0.035934   0.387320   0.000000
              13         14         15         16         17         18
     1  O    0.268885   0.003214   0.001280   0.005563   0.000018  -0.000102
     2  C   -0.009552  -0.033148  -0.025712  -0.008703   0.003471   0.005340
     3  C    0.010866   0.379231   0.355320  -0.036841  -0.030256  -0.009035
     4  C   -0.000309  -0.032867  -0.022918   0.382143   0.379362  -0.041695
     5  C   -0.000074  -0.003918   0.004429  -0.032710  -0.044553   0.385045
     6  C    0.000000   0.000841  -0.000075   0.003996  -0.006943  -0.036684
     7  C    0.000000   0.000215  -0.000006   0.000010  -0.000590  -0.006417
     8  C    0.000002  -0.000526  -0.000003  -0.000011   0.000120   0.002938
     9  C   -0.000000   0.000243  -0.000000   0.000000  -0.000001  -0.000143
    10  C   -0.000000  -0.000014   0.000000  -0.000000  -0.000000   0.000000
    11  C    0.000000   0.000000   0.000000  -0.000000   0.000000  -0.000000
    12  O    0.011228   0.001089   0.001916   0.000027  -0.000075   0.000171
    13  H    0.400634  -0.000316  -0.000464  -0.000207   0.000016   0.000071
    14  H   -0.000316   0.576242  -0.032370   0.005221  -0.003617  -0.000031
    15  H   -0.000464  -0.032370   0.601204  -0.003294  -0.005103   0.000172
    16  H   -0.000207   0.005221  -0.003294   0.616757  -0.036497   0.000924
    17  H    0.000016  -0.003617  -0.005103  -0.036497   0.632171   0.005381
    18  H    0.000071  -0.000031   0.000172   0.000924   0.005381   0.625899
    19  H    0.000003  -0.000020  -0.000172  -0.009367   0.000796  -0.038404
    20  H   -0.000000  -0.000054   0.000003  -0.000203   0.000139  -0.003635
    21  H    0.000000   0.000040   0.000004   0.000083   0.005319   0.005864
    22  H   -0.000000   0.000001  -0.000002   0.000002  -0.000093  -0.000008
    23  H    0.000000   0.002276   0.000113  -0.000071   0.001077   0.000050
    24  H   -0.000000   0.000020  -0.000000   0.000000   0.000001   0.000373
    25  H   -0.000015   0.000515   0.000116  -0.000008  -0.000066   0.001655
    26  H   -0.000000   0.001240  -0.000003   0.000000  -0.000001   0.000010
    27  H   -0.000000  -0.000020   0.000000  -0.000000   0.000000   0.000009
    28  H   -0.000000  -0.000003   0.000000   0.000000  -0.000000  -0.000000
    29  H   -0.000000   0.000000  -0.000000   0.000000  -0.000000  -0.000000
    30  H   -0.000000  -0.000000  -0.000000   0.000000  -0.000000  -0.000000
    31  H   -0.000000  -0.000000  -0.000000   0.000000  -0.000000   0.000000
    32  H   -0.000000  -0.000000  -0.000000   0.000000  -0.000000   0.000000
              19         20         21         22         23         24
     1  O   -0.000032  -0.000000  -0.000000   0.000000  -0.000001   0.000000
     2  C    0.000202   0.000009  -0.000000  -0.000005   0.000122   0.000010
     3  C    0.004675  -0.000132  -0.000117   0.000074  -0.002330  -0.000032
     4  C   -0.034049   0.005010  -0.007853  -0.000102   0.004482   0.000084
     5  C    0.376341  -0.035098  -0.039213   0.005130  -0.007377  -0.000758
     6  C   -0.033951   0.377873   0.376299  -0.031758  -0.038682  -0.002251
     7  C    0.004959  -0.038503  -0.034361   0.378773   0.381499  -0.040785
     8  C    0.000120  -0.006293   0.004678  -0.038534  -0.043966   0.378758
     9  C   -0.000000   0.000065  -0.000156  -0.004875  -0.002641  -0.037419
    10  C    0.000000  -0.000019   0.000000   0.002723  -0.001001  -0.007811
    11  C    0.000000   0.000004   0.000000   0.000346   0.000087   0.003848
    12  O    0.000001  -0.000000  -0.000000  -0.000000  -0.000023   0.000021
    13  H    0.000003  -0.000000   0.000000  -0.000000   0.000000  -0.000000
    14  H   -0.000020  -0.000054   0.000040   0.000001   0.002276   0.000020
    15  H   -0.000172   0.000003   0.000004  -0.000002   0.000113  -0.000000
    16  H   -0.009367  -0.000203   0.000083   0.000002  -0.000071   0.000000
    17  H    0.000796   0.000139   0.005319  -0.000093   0.001077   0.000001
    18  H   -0.038404  -0.003635   0.005864  -0.000008   0.000050   0.000373
    19  H    0.643978  -0.003786  -0.004574  -0.000164  -0.000022  -0.000031
    20  H   -0.003786   0.648257  -0.039421  -0.005147   0.006310   0.004737
    21  H   -0.004574  -0.039421   0.654691  -0.003678  -0.003828  -0.000022
    22  H   -0.000164  -0.005147  -0.003678   0.645604  -0.041582  -0.006785
    23  H   -0.000022   0.006310  -0.003828  -0.041582   0.654260   0.006268
    24  H   -0.000031   0.004737  -0.000022  -0.006785   0.006268   0.648122
    25  H   -0.000082  -0.000421  -0.000006   0.005816  -0.005350  -0.038346
    26  H   -0.000000   0.000007   0.000001  -0.000228   0.004757   0.006110
    27  H   -0.000000   0.000002   0.000003  -0.000051   0.000041  -0.003369
    28  H   -0.000000   0.000007   0.000010   0.001644   0.000569   0.000029
    29  H   -0.000000  -0.000000  -0.000000  -0.000070  -0.000036   0.000005
    30  H   -0.000000   0.000018  -0.000001   0.000839  -0.000016   0.001485
    31  H    0.000000   0.000000  -0.000000  -0.000041   0.000001  -0.000133
    32  H   -0.000000  -0.000000   0.000000  -0.000022  -0.000001   0.000389
              25         26         27         28         29         30
     1  O    0.000031   0.000000   0.000000  -0.000000   0.000000   0.000000
     2  C    0.000855   0.000032  -0.000003  -0.000000   0.000000  -0.000000
     3  C   -0.000912  -0.000154   0.000006   0.000000   0.000000   0.000000
     4  C   -0.000782   0.000005  -0.000001  -0.000000   0.000000  -0.000000
     5  C    0.003089  -0.000017  -0.000001  -0.000000   0.000000   0.000001
     6  C   -0.004970   0.000090  -0.000152  -0.000127  -0.000001  -0.000047
     7  C   -0.040114  -0.007331   0.004685   0.003462   0.000077   0.000325
     8  C    0.375374  -0.038929  -0.033509  -0.007522   0.004952   0.002497
     9  C   -0.029930   0.378329   0.378435  -0.037711  -0.032762  -0.005240
    10  C    0.004876  -0.035918  -0.040024   0.385014   0.382855  -0.034633
    11  C    0.000020   0.005173  -0.006495  -0.040601  -0.040071   0.388210
    12  O    0.010047   0.000085   0.000013   0.000000  -0.000000  -0.000000
    13  H   -0.000015  -0.000000  -0.000000  -0.000000  -0.000000  -0.000000
    14  H    0.000515   0.001240  -0.000020  -0.000003   0.000000  -0.000000
    15  H    0.000116  -0.000003   0.000000   0.000000  -0.000000  -0.000000
    16  H   -0.000008   0.000000  -0.000000   0.000000   0.000000   0.000000
    17  H   -0.000066  -0.000001   0.000000  -0.000000  -0.000000  -0.000000
    18  H    0.001655   0.000010   0.000009  -0.000000  -0.000000  -0.000000
    19  H   -0.000082  -0.000000  -0.000000  -0.000000  -0.000000  -0.000000
    20  H   -0.000421   0.000007   0.000002   0.000007  -0.000000   0.000018
    21  H   -0.000006   0.000001   0.000003   0.000010  -0.000000  -0.000001
    22  H    0.005816  -0.000228  -0.000051   0.001644  -0.000070   0.000839
    23  H   -0.005350   0.004757   0.000041   0.000569  -0.000036  -0.000016
    24  H   -0.038346   0.006110  -0.003369   0.000029   0.000005   0.001485
    25  H    0.615222  -0.004408  -0.003807   0.000003  -0.000152  -0.000065
    26  H   -0.004408   0.649600  -0.038130  -0.003635  -0.003569  -0.000016
    27  H   -0.003807  -0.038130   0.644611   0.006098  -0.004380  -0.000250
    28  H    0.000003  -0.003635   0.006098   0.643898  -0.040268  -0.005618
    29  H   -0.000152  -0.003569  -0.004380  -0.040268   0.646827   0.005568
    30  H   -0.000065  -0.000016  -0.000250  -0.005618   0.005568   0.609360
    31  H   -0.000001  -0.000181  -0.000012  -0.002481  -0.004084  -0.032570
    32  H   -0.000032   0.000013   0.005053   0.005594  -0.004454  -0.034059
              31         32
     1  O    0.000000   0.000000
     2  C   -0.000000   0.000000
     3  C    0.000000   0.000000
     4  C    0.000000  -0.000000
     5  C   -0.000000  -0.000000
     6  C    0.000000   0.000000
     7  C   -0.000001   0.000092
     8  C    0.000117  -0.000832
     9  C    0.004360  -0.003914
    10  C   -0.028296  -0.035934
    11  C    0.380965   0.387320
    12  O   -0.000000   0.000000
    13  H   -0.000000  -0.000000
    14  H   -0.000000  -0.000000
    15  H   -0.000000  -0.000000
    16  H    0.000000   0.000000
    17  H   -0.000000  -0.000000
    18  H    0.000000   0.000000
    19  H    0.000000  -0.000000
    20  H    0.000000  -0.000000
    21  H   -0.000000   0.000000
    22  H   -0.000041  -0.000022
    23  H    0.000001  -0.000001
    24  H   -0.000133   0.000389
    25  H   -0.000001  -0.000032
    26  H   -0.000181   0.000013
    27  H   -0.000012   0.005053
    28  H   -0.002481   0.005594
    29  H   -0.004084  -0.004454
    30  H   -0.032570  -0.034059
    31  H    0.617274  -0.032682
    32  H   -0.032682   0.611038
 Mulliken charges:
               1
     1  O   -0.466506
     2  C    0.561724
     3  C   -0.245006
     4  C   -0.188913
     5  C   -0.183007
     6  C   -0.181366
     7  C   -0.177001
     8  C   -0.187662
     9  C   -0.175140
    10  C   -0.176001
    11  C   -0.317015
    12  O   -0.471344
    13  H    0.319233
    14  H    0.136516
    15  H    0.125565
    16  H    0.113184
    17  H    0.099924
    18  H    0.102253
    19  H    0.093581
    20  H    0.090272
    21  H    0.086240
    22  H    0.092192
    23  H    0.085015
    24  H    0.087483
    25  H    0.111848
    26  H    0.087070
    27  H    0.091249
    28  H    0.091640
    29  H    0.089562
    30  H    0.104213
    31  H    0.097765
    32  H    0.102432
 Sum of Mulliken charges =  -0.00000
 Mulliken charges with hydrogens summed into heavy atoms:
               1
     1  O   -0.147274
     2  C    0.561724
     3  C    0.017075
     4  C    0.024195
     5  C    0.012827
     6  C   -0.004854
     7  C    0.000207
     8  C    0.011669
     9  C    0.003179
    10  C    0.005201
    11  C   -0.012605
    12  O   -0.471344
 Electronic spatial extent (au):  <R**2>=           3325.6622
 Charge=             -0.0000 electrons
 Dipole moment (field-independent basis, Debye):
    X=             -1.0893    Y=              1.2263    Z=              0.3210  Tot=              1.6714
 Quadrupole moment (field-independent basis, Debye-Ang):
   XX=            -71.6262   YY=            -78.9264   ZZ=            -73.9267
   XY=              1.4609   XZ=              1.4758   YZ=              0.2357
 Traceless Quadrupole moment (field-independent basis, Debye-Ang):
   XX=              3.2003   YY=             -4.1000   ZZ=              0.8998
   XY=              1.4609   XZ=              1.4758   YZ=              0.2357
 Octapole moment (field-independent basis, Debye-Ang**2):
  XXX=            -49.9209  YYY=             -2.1064  ZZZ=             -3.4844  XYY=            -12.1383
  XXY=            -22.8529  XXZ=            -12.3365  XZZ=            -18.2586  YZZ=             -6.3515
  YYZ=             -1.1316  XYZ=             -5.0293
 Hexadecapole moment (field-independent basis, Debye-Ang**3):
 XXXX=          -3124.9589 YYYY=           -911.0194 ZZZZ=           -289.5354 XXXY=            126.2051
 XXXZ=             86.8935 YYYX=             26.4253 YYYZ=              5.2556 ZZZX=             13.0321
 ZZZY=              8.0348 XXYY=           -633.0407 XXZZ=           -550.8911 YYZZ=           -191.0750
 XXYZ=             34.3460 YYXZ=             11.3952 ZZXY=             21.8898
 N-N= 7.384022009142D+02 E-N=-2.740199214742D+03  KE= 5.384706950591D+02
 Calling FoFJK, ICntrl=      2127 FMM=F ISym2X=0 I1Cent= 0 IOpClX= 0 NMat=1 NMatS=1 NMatT=0.
 ***** Axes restored to original set *****
 -------------------------------------------------------------------
 Center     Atomic                   Forces (Hartrees/Bohr)
 Number     Number              X              Y              Z
 -------------------------------------------------------------------
      1        8          -0.010702725   -0.004081399    0.000837883
      2        6          -0.014777960   -0.004368276   -0.016667642
      3        6           0.002957956   -0.004472544    0.001003937
      4        6           0.006658891    0.001319548   -0.002162714
      5        6          -0.006503482   -0.000528929    0.000440651
      6        6           0.002372911    0.007394409   -0.002830169
      7        6           0.008054801   -0.003999009   -0.002845203
      8        6          -0.006052320    0.004879854    0.002319116
      9        6          -0.002284791   -0.006542920    0.001322441
     10        6           0.006764937   -0.001468789   -0.000374384
     11        6          -0.003043983    0.003512361    0.003812650
     12        8           0.000486256   -0.002836756    0.016283520
     13        1           0.015703881    0.004860591   -0.002220345
     14        1           0.002667615   -0.001285180   -0.003758863
     15        1          -0.001200862    0.002310671    0.006095364
     16        1           0.003109424    0.002047633    0.000203397
     17        1          -0.004445336    0.000980182   -0.002225385
     18        1           0.001930454    0.003642123   -0.003348250
     19        1           0.000030333   -0.002382976    0.002865063
     20        1           0.003229607   -0.002757272   -0.001811458
     21        1          -0.003213902    0.000245930    0.003565791
     22        1          -0.002898682   -0.002843368   -0.001339200
     23        1          -0.001022185    0.005629214    0.001387236
     24        1           0.000246535   -0.004876536   -0.001339046
     25        1           0.002035270    0.003204460    0.001458326
     26        1          -0.002489861    0.002995844    0.002530603
     27        1           0.003308498   -0.000127728   -0.002727936
     28        1          -0.002504536   -0.001750364    0.003032941
     29        1          -0.000569530    0.003264439   -0.002347608
     30        1           0.001444163   -0.002011277    0.001797096
     31        1          -0.002185404   -0.001023931   -0.001684670
     32        1           0.002894024    0.001069996   -0.001273140
 -------------------------------------------------------------------
 Cartesian Forces:  Max     0.016667642 RMS     0.004641715

 GradGradGradGradGradGradGradGradGradGradGradGradGradGradGradGradGradGrad
 Berny optimization.
 FormGI is forming the generalized inverse of G from B-inverse, IUseBI=4.
 Internal  Forces:  Max     0.016121621 RMS     0.003073388
 Search for a local minimum.
 Step number   1 out of a maximum of  179
 All quantities printed in internal units (Hartrees-Bohrs-Radians)
 Mixed Optimization -- RFO/linear search
 Second derivative matrix not updated -- first step.
 ITU=  0
     Eigenvalues ---    0.00230   0.00230   0.00230   0.00230   0.00230
     Eigenvalues ---    0.00230   0.00230   0.00279   0.00412   0.00891
     Eigenvalues ---    0.02344   0.03015   0.03028   0.03042   0.03100
     Eigenvalues ---    0.03207   0.03230   0.03263   0.03654   0.04620
     Eigenvalues ---    0.04626   0.04643   0.04667   0.04676   0.04678
     Eigenvalues ---    0.04701   0.05128   0.05369   0.05458   0.08565
     Eigenvalues ---    0.08574   0.08598   0.08840   0.08861   0.08926
     Eigenvalues ---    0.09006   0.09832   0.12388   0.12395   0.12418
     Eigenvalues ---    0.12577   0.12628   0.12637   0.12690   0.13104
     Eigenvalues ---    0.16000   0.16000   0.16000   0.16000   0.21887
     Eigenvalues ---    0.21890   0.21893   0.21893   0.21902   0.21925
     Eigenvalues ---    0.21944   0.21945   0.24996   0.25000   0.27452
     Eigenvalues ---    0.27760   0.27977   0.28247   0.28268   0.28283
     Eigenvalues ---    0.28344   0.28806   0.29728   0.34522   0.34634
     Eigenvalues ---    0.34647   0.34647   0.34650   0.34652   0.34660
     Eigenvalues ---    0.34672   0.34729   0.34733   0.34738   0.34739
     Eigenvalues ---    0.34761   0.34767   0.34780   0.34793   0.34858
     Eigenvalues ---    0.34895   0.35086   0.54870   0.56020   0.94425
 RFO step:  Lambda=-7.29118180D-03 EMin= 2.30000000D-03
 Linear search not attempted -- first point.
 Iteration  1 RMS(Cart)=  0.17643529 RMS(Int)=  0.00357156
 Iteration  2 RMS(Cart)=  0.00876666 RMS(Int)=  0.00025223
 Iteration  3 RMS(Cart)=  0.00003700 RMS(Int)=  0.00025182
 Iteration  4 RMS(Cart)=  0.00000002 RMS(Int)=  0.00025182
 Variable       Old X    -DE/DX   Delta X   Delta X   Delta X     New X
                                 (Linear)    (Quad)   (Total)
    R1        2.55248   0.00184   0.00000   0.00330   0.00330   2.55578
    R2        1.80937   0.01612   0.00000   0.02841   0.02841   1.83778
    R3        2.88509  -0.01013   0.00000  -0.03325  -0.03325   2.85184
    R4        2.30958  -0.01549   0.00000  -0.01627  -0.01627   2.29331
    R5        2.93353  -0.00971   0.00000  -0.03445  -0.03445   2.89908
    R6        2.05536   0.00181   0.00000   0.00505   0.00505   2.06041
    R7        2.05845   0.00554   0.00000   0.01555   0.01555   2.07400
    R8        2.92667  -0.00590   0.00000  -0.02070  -0.02070   2.90597
    R9        2.06459   0.00190   0.00000   0.00538   0.00538   2.06997
   R10        2.06251   0.00346   0.00000   0.00977   0.00977   2.07228
   R11        2.92189  -0.00654   0.00000  -0.02280  -0.02280   2.89909
   R12        2.06065   0.00419   0.00000   0.01181   0.01181   2.07246
   R13        2.06244   0.00351   0.00000   0.00993   0.00993   2.07237
   R14        2.91393  -0.00356   0.00000  -0.01224  -0.01224   2.90169
   R15        2.06273   0.00429   0.00000   0.01214   0.01214   2.07487
   R16        2.06230   0.00443   0.00000   0.01251   0.01251   2.07482
   R17        2.91525  -0.00581   0.00000  -0.02004  -0.02004   2.89521
   R18        2.06111   0.00423   0.00000   0.01193   0.01193   2.07304
   R19        2.05906   0.00544   0.00000   0.01529   0.01529   2.07434
   R20        2.91603  -0.00467   0.00000  -0.01612  -0.01612   2.89990
   R21        2.06102   0.00454   0.00000   0.01281   0.01281   2.07383
   R22        2.06013   0.00382   0.00000   0.01074   0.01074   2.07087
   R23        2.91555  -0.00432   0.00000  -0.01490  -0.01490   2.90066
   R24        2.06252   0.00445   0.00000   0.01257   0.01257   2.07509
   R25        2.06248   0.00405   0.00000   0.01144   0.01144   2.07392
   R26        2.90409  -0.00284   0.00000  -0.00961  -0.00961   2.89448
   R27        2.06117   0.00411   0.00000   0.01159   0.01159   2.07277
   R28        2.06211   0.00392   0.00000   0.01108   0.01108   2.07319
   R29        2.06033   0.00298   0.00000   0.00840   0.00840   2.06873
   R30        2.06055   0.00294   0.00000   0.00829   0.00829   2.06884
   R31        2.06101   0.00324   0.00000   0.00913   0.00913   2.07014
    A1        1.81645   0.00707   0.00000   0.04226   0.04226   1.85871
    A2        1.96720  -0.00082   0.00000  -0.00279  -0.00342   1.96378
    A3        2.15133  -0.00614   0.00000  -0.02345  -0.02405   2.12728
    A4        2.16444   0.00699   0.00000   0.02753   0.02688   2.19132
    A5        2.01024  -0.00634   0.00000  -0.03712  -0.03754   1.97270
    A6        1.88410  -0.00074   0.00000  -0.02619  -0.02667   1.85743
    A7        1.85878   0.00401   0.00000   0.02615   0.02625   1.88503
    A8        1.94319   0.00301   0.00000   0.00823   0.00717   1.95036
    A9        1.91542  -0.00056   0.00000  -0.00164  -0.00150   1.91391
   A10        1.84295   0.00129   0.00000   0.03770   0.03776   1.88071
   A11        2.02673  -0.00669   0.00000  -0.03817  -0.03847   1.98827
   A12        1.89261   0.00157   0.00000   0.00384   0.00404   1.89666
   A13        1.90719  -0.00019   0.00000  -0.01852  -0.01870   1.88849
   A14        1.89743   0.00220   0.00000   0.01447   0.01426   1.91169
   A15        1.90634   0.00321   0.00000   0.01263   0.01170   1.91804
   A16        1.82249   0.00064   0.00000   0.03362   0.03340   1.85589
   A17        2.01947  -0.00241   0.00000  -0.01673  -0.01743   2.00204
   A18        1.93774  -0.00092   0.00000  -0.02835  -0.02921   1.90853
   A19        1.87944   0.00124   0.00000   0.02200   0.02220   1.90164
   A20        1.92690   0.00039   0.00000  -0.01709  -0.01820   1.90870
   A21        1.86689   0.00143   0.00000   0.02522   0.02534   1.89223
   A22        1.82042   0.00075   0.00000   0.02325   0.02364   1.84406
   A23        2.03846  -0.00395   0.00000  -0.02203  -0.02211   2.01635
   A24        1.89369   0.00030   0.00000  -0.00354  -0.00350   1.89019
   A25        1.89800   0.00081   0.00000  -0.00169  -0.00175   1.89625
   A26        1.89256   0.00180   0.00000   0.01019   0.01006   1.90262
   A27        1.89557   0.00113   0.00000   0.00322   0.00306   1.89862
   A28        1.83496   0.00030   0.00000   0.01813   0.01806   1.85302
   A29        1.99468  -0.00074   0.00000  -0.00573  -0.00586   1.98882
   A30        1.88282  -0.00031   0.00000   0.00453   0.00451   1.88732
   A31        1.91813   0.00103   0.00000  -0.00075  -0.00102   1.91711
   A32        1.89931   0.00138   0.00000   0.01621   0.01627   1.91558
   A33        1.92755  -0.00162   0.00000  -0.02185  -0.02193   1.90562
   A34        1.83372   0.00040   0.00000   0.00994   0.01005   1.84377
   A35        1.99300  -0.00141   0.00000  -0.01000  -0.01008   1.98292
   A36        1.91587  -0.00104   0.00000  -0.01549  -0.01556   1.90031
   A37        1.91255   0.00112   0.00000   0.00996   0.01001   1.92256
   A38        1.91934   0.00108   0.00000   0.00149   0.00127   1.92061
   A39        1.87931  -0.00017   0.00000   0.00106   0.00109   1.88040
   A40        1.83695   0.00062   0.00000   0.01561   0.01565   1.85260
   A41        2.02106  -0.00174   0.00000  -0.01107  -0.01111   2.00995
   A42        1.89891   0.00044   0.00000   0.00023   0.00020   1.89911
   A43        1.89682   0.00019   0.00000  -0.00165  -0.00168   1.89515
   A44        1.90161   0.00030   0.00000  -0.00049  -0.00052   1.90109
   A45        1.90059   0.00054   0.00000   0.00132   0.00128   1.90187
   A46        1.83593   0.00048   0.00000   0.01416   0.01415   1.85008
   A47        1.99125  -0.00105   0.00000  -0.00702  -0.00707   1.98419
   A48        1.92223   0.00017   0.00000  -0.00489  -0.00497   1.91726
   A49        1.89512  -0.00028   0.00000  -0.00117  -0.00114   1.89398
   A50        1.91363  -0.00014   0.00000  -0.00568  -0.00576   1.90787
   A51        1.89624   0.00106   0.00000   0.01074   0.01075   1.90700
   A52        1.83886   0.00035   0.00000   0.00971   0.00972   1.84858
   A53        1.94766   0.00026   0.00000   0.00109   0.00108   1.94873
   A54        1.93571   0.00018   0.00000   0.00307   0.00307   1.93878
   A55        1.94323  -0.00094   0.00000  -0.00719  -0.00720   1.93603
   A56        1.87288   0.00013   0.00000   0.00367   0.00366   1.87653
   A57        1.88320  -0.00009   0.00000  -0.00424  -0.00426   1.87894
   A58        1.87798   0.00051   0.00000   0.00390   0.00391   1.88189
    D1       -3.13663  -0.00056   0.00000  -0.03110  -0.03028   3.11628
    D2       -0.01667   0.00062   0.00000   0.03300   0.03217   0.01550
    D3       -1.02098   0.00065   0.00000   0.01752   0.01828  -1.00270
    D4        3.07891   0.00187   0.00000   0.05462   0.05440   3.13331
    D5        1.10676  -0.00118   0.00000   0.01091   0.01113   1.11789
    D6        2.14244  -0.00034   0.00000  -0.04639  -0.04614   2.09630
    D7       -0.04086   0.00088   0.00000  -0.00930  -0.01003  -0.05089
    D8       -2.01301  -0.00217   0.00000  -0.05301  -0.05329  -2.06630
    D9       -1.10409   0.00162   0.00000   0.05775   0.05798  -1.04611
   D10        1.03738   0.00103   0.00000   0.05279   0.05291   1.09030
   D11        3.01391   0.00250   0.00000   0.08486   0.08462   3.09853
   D12        1.04817  -0.00184   0.00000   0.00029   0.00045   1.04863
   D13       -3.09354  -0.00244   0.00000  -0.00466  -0.00461  -3.09815
   D14       -1.11701  -0.00096   0.00000   0.02741   0.02709  -1.08992
   D15        3.08218   0.00118   0.00000   0.05049   0.05068   3.13286
   D16       -1.05954   0.00059   0.00000   0.04553   0.04562  -1.01392
   D17        0.91699   0.00207   0.00000   0.07761   0.07732   0.99432
   D18       -1.57432   0.00237   0.00000   0.11085   0.11063  -1.46369
   D19        0.63942   0.00006   0.00000   0.04777   0.04809   0.68750
   D20        2.62208   0.00117   0.00000   0.07309   0.07303   2.69511
   D21        2.56992   0.00331   0.00000   0.12151   0.12144   2.69137
   D22       -1.49953   0.00101   0.00000   0.05844   0.05890  -1.44062
   D23        0.48314   0.00211   0.00000   0.08375   0.08384   0.56698
   D24        0.59131  -0.00027   0.00000   0.06767   0.06727   0.65857
   D25        2.80504  -0.00257   0.00000   0.00460   0.00472   2.80976
   D26       -1.49548  -0.00146   0.00000   0.02991   0.02966  -1.46581
   D27        1.09897  -0.00177   0.00000  -0.06321  -0.06309   1.03588
   D28       -3.03992  -0.00197   0.00000  -0.06847  -0.06830  -3.10822
   D29       -1.05289  -0.00105   0.00000  -0.04988  -0.04979  -1.10268
   D30       -1.12021   0.00117   0.00000   0.00515   0.00499  -1.11522
   D31        1.02409   0.00096   0.00000  -0.00012  -0.00022   1.02387
   D32        3.01112   0.00189   0.00000   0.01848   0.01829   3.02941
   D33       -3.09059  -0.00066   0.00000  -0.02722  -0.02721  -3.11779
   D34       -0.94629  -0.00086   0.00000  -0.03248  -0.03242  -0.97871
   D35        1.04074   0.00006   0.00000  -0.01389  -0.01391   1.02683
   D36        1.07282  -0.00124   0.00000  -0.04102  -0.04106   1.03176
   D37       -3.09568  -0.00019   0.00000  -0.02080  -0.02084  -3.11651
   D38       -1.10549   0.00064   0.00000  -0.00700  -0.00702  -1.11250
   D39       -1.07206  -0.00026   0.00000  -0.02869  -0.02864  -1.10070
   D40        1.04263   0.00079   0.00000  -0.00846  -0.00842   1.03421
   D41        3.03282   0.00162   0.00000   0.00534   0.00540   3.03822
   D42       -3.05726  -0.00212   0.00000  -0.05684  -0.05687  -3.11412
   D43       -0.94257  -0.00107   0.00000  -0.03662  -0.03665  -0.97921
   D44        1.04762  -0.00024   0.00000  -0.02281  -0.02283   1.02479
   D45       -3.07965   0.00007   0.00000  -0.00462  -0.00462  -3.08426
   D46        1.03916   0.00051   0.00000   0.01294   0.01280   1.05196
   D47       -0.97006  -0.00028   0.00000  -0.00274  -0.00280  -0.97286
   D48        1.09799  -0.00004   0.00000  -0.01840  -0.01837   1.07961
   D49       -1.06639   0.00040   0.00000  -0.00085  -0.00096  -1.06735
   D50       -3.07561  -0.00039   0.00000  -0.01653  -0.01656  -3.09217
   D51       -0.90635  -0.00042   0.00000  -0.02756  -0.02739  -0.93374
   D52       -3.07072   0.00002   0.00000  -0.01001  -0.00997  -3.08069
   D53        1.20324  -0.00077   0.00000  -0.02569  -0.02557   1.17767
   D54       -1.07719   0.00081   0.00000   0.02332   0.02333  -1.05386
   D55        1.07077   0.00030   0.00000   0.01488   0.01489   1.08566
   D56        3.06105   0.00119   0.00000   0.03081   0.03081   3.09186
   D57        1.08532  -0.00077   0.00000  -0.00339  -0.00340   1.08192
   D58       -3.04991  -0.00128   0.00000  -0.01183  -0.01184  -3.06175
   D59       -1.05963  -0.00038   0.00000   0.00410   0.00408  -1.05555
   D60        3.07805   0.00042   0.00000   0.01638   0.01639   3.09444
   D61       -1.05718  -0.00009   0.00000   0.00793   0.00794  -1.04923
   D62        0.93310   0.00081   0.00000   0.02387   0.02387   0.95697
   D63       -1.06699   0.00056   0.00000   0.01730   0.01730  -1.04970
   D64        1.09353  -0.00026   0.00000   0.00076   0.00078   1.09431
   D65        3.09875   0.00009   0.00000   0.00906   0.00906   3.10782
   D66        3.06965   0.00099   0.00000   0.02540   0.02538   3.09504
   D67       -1.05301   0.00017   0.00000   0.00886   0.00887  -1.04414
   D68        0.95221   0.00053   0.00000   0.01716   0.01715   0.96936
   D69        1.07597  -0.00001   0.00000   0.00821   0.00820   1.08417
   D70       -3.04669  -0.00083   0.00000  -0.00833  -0.00832  -3.05501
   D71       -1.04147  -0.00048   0.00000  -0.00003  -0.00003  -1.04150
   D72        1.12709  -0.00049   0.00000  -0.01386  -0.01384   1.11325
   D73       -3.06895  -0.00004   0.00000  -0.00643  -0.00641  -3.07535
   D74       -0.97830   0.00009   0.00000  -0.00422  -0.00421  -0.98250
   D75       -1.03806   0.00015   0.00000   0.00217   0.00216  -1.03590
   D76        1.04909   0.00061   0.00000   0.00960   0.00959   1.05868
   D77        3.13974   0.00074   0.00000   0.01181   0.01179  -3.13166
   D78       -3.03927  -0.00077   0.00000  -0.01222  -0.01223  -3.05150
   D79       -0.95213  -0.00032   0.00000  -0.00479  -0.00480  -0.95692
   D80        1.13852  -0.00018   0.00000  -0.00258  -0.00260   1.13593
         Item               Value     Threshold  Converged?
 Maximum Force            0.016122     0.000450     NO 
 RMS     Force            0.003073     0.000300     NO 
 Maximum Displacement     0.798427     0.001800     NO 
 RMS     Displacement     0.178805     0.001200     NO 
 Predicted change in Energy=-4.134902D-03
 GradGradGradGradGradGradGradGradGradGradGradGradGradGradGradGradGradGrad

                          Input orientation:                          
 ---------------------------------------------------------------------
 Center     Atomic      Atomic             Coordinates (Angstroms)
 Number     Number       Type             X           Y           Z
 ---------------------------------------------------------------------
      1          8           0        5.259360   -0.390060   -0.150669
      2          6           0        4.399653   -0.586435   -1.176089
      3          6           0        3.009997   -0.939877   -0.705557
      4          6           0        2.977231   -2.189575    0.183670
      5          6           0        3.505794   -3.458859   -0.505012
      6          6           0        2.474153   -4.197449   -1.367428
      7          6           0        1.869300   -3.382023   -2.519391
      8          6           0        2.903184   -2.862929   -3.523825
      9          6           0        2.300422   -1.982839   -4.627003
     10          6           0        1.245928   -2.669210   -5.506232
     11          6           0        1.774489   -3.894864   -6.257549
     12          8           0        4.757350   -0.521248   -2.333908
     13          1           0        6.124164   -0.192643   -0.549310
     14          1           0        2.403630   -1.066508   -1.602820
     15          1           0        2.611160   -0.081188   -0.150477
     16          1           0        3.563545   -1.992199    1.087628
     17          1           0        1.943776   -2.347436    0.514722
     18          1           0        4.377042   -3.202693   -1.119870
     19          1           0        3.876887   -4.151150    0.260279
     20          1           0        2.949378   -5.098185   -1.777770
     21          1           0        1.661399   -4.549190   -0.718432
     22          1           0        1.135097   -4.012837   -3.035565
     23          1           0        1.300042   -2.534128   -2.116955
     24          1           0        3.426378   -3.718654   -3.969182
     25          1           0        3.668625   -2.273073   -3.007033
     26          1           0        1.854008   -1.092232   -4.165115
     27          1           0        3.114096   -1.616631   -5.265959
     28          1           0        0.384365   -2.962651   -4.894101
     29          1           0        0.865661   -1.937400   -6.229727
     30          1           0        2.080854   -4.689327   -5.569515
     31          1           0        1.009136   -4.310448   -6.920930
     32          1           0        2.643596   -3.633060   -6.870875
 ---------------------------------------------------------------------
                    Distance matrix (angstroms):
                    1          2          3          4          5
     1  O    0.000000
     2  C    1.352459   0.000000
     3  C    2.381141   1.509128   0.000000
     4  C    2.925431   2.538166   1.534125   0.000000
     5  C    3.552193   3.082231   2.575131   1.537773   0.000000
     6  C    4.871764   4.096777   3.367043   2.586610   1.534132
     7  C    5.104428   4.002806   3.248886   3.155310   2.596486
     8  C    4.800503   3.596347   3.413528   3.768874   3.135523
     9  C    5.597305   4.273818   4.119345   4.862446   4.541186
[...]
 Alpha virt. eigenvalues --    4.93328   4.98871   5.05518   5.17050   5.21008
 Alpha virt. eigenvalues --    5.22235   5.38625   5.39766   5.50960   5.59402
 Alpha virt. eigenvalues --    5.73373   5.84562   5.87272   6.14681   6.19871
 Alpha virt. eigenvalues --    6.33021   6.33636   6.44984   6.49914   6.64299
 Alpha virt. eigenvalues --    6.69093   6.73791   6.82435   6.87758   7.07590
 Alpha virt. eigenvalues --    7.10575   7.26967  22.42825  22.55456  22.58278
 Alpha virt. eigenvalues --   22.58750  22.61107  22.61387  22.61773  22.66347
 Alpha virt. eigenvalues --   22.69088  23.27624  43.94699  44.02552
          Condensed to atoms (all electrons):
               1          2          3          4          5          6
     1  O    7.941486   0.359545  -0.103557  -0.006348   0.003213  -0.000019
     2  C    0.359545   4.519383   0.258515  -0.030068   0.021971  -0.003206
     3  C   -0.103557   0.258515   5.312476   0.203407  -0.035292   0.002490
     4  C   -0.006348  -0.030068   0.203407   5.306481   0.155395  -0.034777
     5  C    0.003213   0.021971  -0.035292   0.155395   5.323212   0.226644
     6  C   -0.000019  -0.003206   0.002490  -0.034777   0.226644   5.199640
     7  C    0.000029  -0.001301  -0.007068   0.040351  -0.081782   0.210016
     8  C   -0.000173  -0.001286   0.019171  -0.024050   0.042709  -0.050083
     9  C    0.000013   0.000990  -0.006062   0.002397  -0.003332   0.010769
    10  C    0.000000  -0.000040   0.000484  -0.000158   0.000172  -0.000997
    11  C   -0.000000   0.000002  -0.000016  -0.000006   0.000087   0.000143
    12  O   -0.087603   0.620138  -0.085397  -0.002694  -0.002400  -0.000370
    13  H    0.288363  -0.024395   0.016037  -0.000551  -0.000029   0.000014
    14  H    0.003902  -0.050749   0.429336  -0.035247  -0.007195   0.000490
    15  H    0.003865  -0.020364   0.407266  -0.042479   0.008657  -0.000572
    16  H    0.007200  -0.008040  -0.034837   0.428780  -0.048823   0.006817
    17  H   -0.000239   0.006890  -0.050098   0.428601  -0.044687   0.002934
    18  H   -0.001908   0.004699  -0.004060  -0.051056   0.429623  -0.039236
    19  H   -0.000297   0.000330   0.005563  -0.044325   0.435733  -0.051236
    20  H   -0.000001   0.000144  -0.001204   0.011144  -0.062180   0.436719
    21  H    0.000002   0.000111   0.001334  -0.011676  -0.039509   0.451040
    22  H    0.000000  -0.000148   0.001149  -0.001927   0.010619  -0.041001
    23  H   -0.000029   0.001275  -0.019082   0.015826  -0.016080  -0.038270
    24  H    0.000002   0.000304  -0.001163   0.000936  -0.003250   0.004039
    25  H    0.000387  -0.008359   0.010235  -0.003567   0.002827  -0.005463
    26  H    0.000003   0.000361  -0.001511  -0.000042   0.000345  -0.000479
    27  H    0.000000   0.000037   0.000006   0.000010   0.000018  -0.000630
    28  H   -0.000000   0.000006  -0.000067   0.000057  -0.000144   0.000639
    29  H   -0.000000  -0.000001   0.000007  -0.000002   0.000009   0.000033
    30  H   -0.000000  -0.000002   0.000008  -0.000008   0.000070   0.000253
    31  H    0.000000  -0.000000   0.000000   0.000000  -0.000001   0.000006
    32  H    0.000000   0.000001  -0.000002   0.000001  -0.000009  -0.000001
               7          8          9         10         11         12
     1  O    0.000029  -0.000173   0.000013   0.000000  -0.000000  -0.087603
     2  C   -0.001301  -0.001286   0.000990  -0.000040   0.000002   0.620138
     3  C   -0.007068   0.019171  -0.006062   0.000484  -0.000016  -0.085397
     4  C    0.040351  -0.024050   0.002397  -0.000158  -0.000006  -0.002694
     5  C   -0.081782   0.042709  -0.003332   0.000172   0.000087  -0.002400
     6  C    0.210016  -0.050083   0.010769  -0.000997   0.000143  -0.000370
     7  C    5.456238   0.092548  -0.038842   0.032460  -0.014563   0.000173
     8  C    0.092548   5.518972   0.175763  -0.073782   0.036472  -0.015551
     9  C   -0.038842   0.175763   5.233105   0.240552  -0.062701   0.001873
    10  C    0.032460  -0.073782   0.240552   5.196564   0.239995   0.000049
    11  C   -0.014563   0.036472  -0.062701   0.239995   5.088795  -0.000001
    12  O    0.000173  -0.015551   0.001873   0.000049  -0.000001   7.880933
    13  H   -0.000010   0.000035  -0.000003  -0.000000   0.000000   0.006073
    14  H    0.007700  -0.015118   0.002184  -0.000251   0.000018   0.002229
    15  H    0.000139   0.000133  -0.000013   0.000002  -0.000000   0.003986
    16  H   -0.000502  -0.000050  -0.000010   0.000000   0.000000   0.000027
    17  H   -0.008337   0.001496  -0.000007  -0.000016   0.000001  -0.000499
    18  H   -0.008510  -0.001231   0.000739  -0.000141   0.000015   0.002742
    19  H    0.010301   0.000040   0.000016   0.000006  -0.000000   0.000341
    20  H   -0.034638  -0.007882   0.000026   0.000023  -0.000040   0.000024
    21  H   -0.073616   0.010604  -0.000480  -0.000078   0.000031  -0.000025
    22  H    0.420938  -0.025786  -0.013895   0.005259  -0.000109  -0.000023
    23  H    0.432928  -0.071097   0.008582  -0.005745   0.000558  -0.000135
    24  H   -0.059231   0.413532  -0.018509  -0.013185  -0.000760   0.000360
    25  H   -0.048221   0.439008  -0.047631   0.009446  -0.000575   0.016335
    26  H   -0.011430  -0.023284   0.421377  -0.059562   0.010342   0.000282
    27  H    0.012134  -0.071586   0.446121  -0.037993  -0.006715   0.000090
    28  H    0.005337  -0.018831  -0.034426   0.427789  -0.054321   0.000000
    29  H   -0.001322   0.014306  -0.058521   0.435878  -0.039281  -0.000000
    30  H   -0.005885   0.019124  -0.020370  -0.032739   0.409222  -0.000000
    31  H    0.000300  -0.001609   0.011697  -0.043654   0.415798  -0.000000
    32  H    0.001223  -0.008834   0.009671  -0.051622   0.413509   0.000000
              13         14         15         16         17         18
     1  O    0.288363   0.003902   0.003865   0.007200  -0.000239  -0.001908
     2  C   -0.024395  -0.050749  -0.020364  -0.008040   0.006890   0.004699
     3  C    0.016037   0.429336   0.407266  -0.034837  -0.050098  -0.004060
     4  C   -0.000551  -0.035247  -0.042479   0.428780   0.428601  -0.051056
     5  C   -0.000029  -0.007195   0.008657  -0.048823  -0.044687   0.429623
     6  C    0.000014   0.000490  -0.000572   0.006817   0.002934  -0.039236
     7  C   -0.000010   0.007700   0.000139  -0.000502  -0.008337  -0.008510
     8  C    0.000035  -0.015118   0.000133  -0.000050   0.001496  -0.001231
     9  C   -0.000003   0.002184  -0.000013  -0.000010  -0.000007   0.000739
    10  C   -0.000000  -0.000251   0.000002   0.000000  -0.000016  -0.000141
    11  C    0.000000   0.000018  -0.000000   0.000000   0.000001   0.000015
    12  O    0.006073   0.002229   0.003986   0.000027  -0.000499   0.002742
    13  H    0.381124  -0.000868  -0.000890  -0.000526   0.000078   0.000004
    14  H   -0.000868   0.508709  -0.015300   0.005302  -0.002823   0.001965
    15  H   -0.000890  -0.015300   0.497409  -0.002787  -0.007219  -0.000301
    16  H   -0.000526   0.005302  -0.002787   0.502523  -0.015961   0.002374
    17  H    0.000078  -0.002823  -0.007219  -0.015961   0.517327   0.005059
    18  H    0.000004   0.001965  -0.000301   0.002374   0.005059   0.493079
    19  H    0.000004  -0.000486  -0.000172  -0.010464   0.001822  -0.016153
    20  H    0.000000  -0.000042   0.000035  -0.000267   0.000110  -0.000825
    21  H   -0.000000   0.000114  -0.000054  -0.000133   0.002966   0.005189
    22  H   -0.000000   0.000478  -0.000024   0.000038  -0.000321  -0.000667
    23  H    0.000006   0.000296   0.000533   0.000081   0.001243   0.002024
    24  H   -0.000000   0.000698   0.000003   0.000008  -0.000015   0.000871
    25  H   -0.000047  -0.004048   0.000263  -0.000009  -0.000259  -0.008066
    26  H   -0.000000   0.002230  -0.000017   0.000001   0.000001   0.000009
    27  H    0.000000  -0.000076   0.000000  -0.000000   0.000001   0.000015
    28  H    0.000000   0.000043   0.000001  -0.000000  -0.000000   0.000006
    29  H   -0.000000  -0.000007  -0.000000  -0.000000   0.000000   0.000000
    30  H   -0.000000  -0.000006   0.000000  -0.000000  -0.000000  -0.000009
    31  H   -0.000000   0.000000   0.000000   0.000000  -0.000000  -0.000000
    32  H   -0.000000   0.000001   0.000000  -0.000000  -0.000000   0.000000
              19         20         21         22         23         24
     1  O   -0.000297  -0.000001   0.000002   0.000000  -0.000029   0.000002
     2  C    0.000330   0.000144   0.000111  -0.000148   0.001275   0.000304
     3  C    0.005563  -0.001204   0.001334   0.001149  -0.019082  -0.001163
     4  C   -0.044325   0.011144  -0.011676  -0.001927   0.015826   0.000936
     5  C    0.435733  -0.062180  -0.039509   0.010619  -0.016080  -0.003250
     6  C   -0.051236   0.436719   0.451040  -0.041001  -0.038270   0.004039
     7  C    0.010301  -0.034638  -0.073616   0.420938   0.432928  -0.059231
     8  C    0.000040  -0.007882   0.010604  -0.025786  -0.071097   0.413532
     9  C    0.000016   0.000026  -0.000480  -0.013895   0.008582  -0.018509
    10  C    0.000006   0.000023  -0.000078   0.005259  -0.005745  -0.013185
    11  C   -0.000000  -0.000040   0.000031  -0.000109   0.000558  -0.000760
    12  O    0.000341   0.000024  -0.000025  -0.000023  -0.000135   0.000360
    13  H    0.000004   0.000000  -0.000000  -0.000000   0.000006  -0.000000
    14  H   -0.000486  -0.000042   0.000114   0.000478   0.000296   0.000698
    15  H   -0.000172   0.000035  -0.000054  -0.000024   0.000533   0.000003
    16  H   -0.010464  -0.000267  -0.000133   0.000038   0.000081   0.000008
    17  H    0.001822   0.000110   0.002966  -0.000321   0.001243  -0.000015
    18  H   -0.016153  -0.000825   0.005189  -0.000667   0.002024   0.000871
    19  H    0.533216  -0.007074  -0.003727  -0.000188  -0.000633  -0.000187
    20  H   -0.007074   0.531412  -0.016913  -0.004362   0.005936   0.001342
    21  H   -0.003727  -0.016913   0.530750  -0.007848  -0.000175   0.000182
    22  H   -0.000188  -0.004362  -0.007848   0.526692  -0.019313  -0.001487
    23  H   -0.000633   0.005936  -0.000175  -0.019313   0.534730   0.005911
    24  H   -0.000187   0.001342   0.000182  -0.001487   0.005911   0.522245
    25  H    0.000332   0.001244  -0.000645   0.003648   0.001955  -0.011959
    26  H   -0.000003  -0.000019   0.000029   0.001273   0.001079   0.004991
    27  H   -0.000002   0.000021   0.000018  -0.000558   0.000016  -0.002036
    28  H    0.000000   0.000011   0.000034  -0.009528   0.000625   0.001986
    29  H   -0.000000  -0.000002  -0.000003   0.000682  -0.000208  -0.000826
    30  H    0.000000   0.000249  -0.000034   0.002065   0.000015  -0.009781
    31  H    0.000000  -0.000002  -0.000001  -0.000073  -0.000003   0.000350
    32  H   -0.000000   0.000001   0.000001  -0.000239  -0.000007   0.001695
              25         26         27         28         29         30
     1  O    0.000387   0.000003   0.000000  -0.000000  -0.000000  -0.000000
     2  C   -0.008359   0.000361   0.000037   0.000006  -0.000001  -0.000002
     3  C    0.010235  -0.001511   0.000006  -0.000067   0.000007   0.000008
     4  C   -0.003567  -0.000042   0.000010   0.000057  -0.000002  -0.000008
     5  C    0.002827   0.000345   0.000018  -0.000144   0.000009   0.000070
     6  C   -0.005463  -0.000479  -0.000630   0.000639   0.000033   0.000253
     7  C   -0.048221  -0.011430   0.012134   0.005337  -0.001322  -0.005885
     8  C    0.439008  -0.023284  -0.071586  -0.018831   0.014306   0.019124
     9  C   -0.047631   0.421377   0.446121  -0.034426  -0.058521  -0.020370
    10  C    0.009446  -0.059562  -0.037993   0.427789   0.435878  -0.032739
    11  C   -0.000575   0.010342  -0.006715  -0.054321  -0.039281   0.409222
    12  O    0.016335   0.000282   0.000090   0.000000  -0.000000  -0.000000
    13  H   -0.000047  -0.000000   0.000000   0.000000  -0.000000  -0.000000
    14  H   -0.004048   0.002230  -0.000076   0.000043  -0.000007  -0.000006
    15  H    0.000263  -0.000017   0.000000   0.000001  -0.000000   0.000000
    16  H   -0.000009   0.000001  -0.000000  -0.000000  -0.000000  -0.000000
    17  H   -0.000259   0.000001   0.000001  -0.000000   0.000000  -0.000000
    18  H   -0.008066   0.000009   0.000015   0.000006   0.000000  -0.000009
    19  H    0.000332  -0.000003  -0.000002   0.000000  -0.000000   0.000000
    20  H    0.001244  -0.000019   0.000021   0.000011  -0.000002   0.000249
    21  H   -0.000645   0.000029   0.000018   0.000034  -0.000003  -0.000034
    22  H    0.003648   0.001273  -0.000558  -0.009528   0.000682   0.002065
    23  H    0.001955   0.001079   0.000016   0.000625  -0.000208   0.000015
    24  H   -0.011959   0.004991  -0.002036   0.001986  -0.000826  -0.009781
    25  H    0.476952  -0.004710  -0.007096  -0.000878  -0.000078   0.000539
    26  H   -0.004710   0.546754  -0.015410  -0.001369  -0.006441  -0.000608
    27  H   -0.007096  -0.015410   0.526747   0.005887  -0.003878   0.001136
    28  H   -0.000878  -0.001369   0.005887   0.557031  -0.023770  -0.004079
    29  H   -0.000078  -0.006441  -0.003878  -0.023770   0.548653   0.006358
    30  H    0.000539  -0.000608   0.001136  -0.004079   0.006358   0.550973
    31  H    0.000039  -0.000369  -0.000331  -0.003431  -0.005928  -0.024912
    32  H   -0.000313   0.000099   0.001595   0.007472  -0.003044  -0.030280
              31         32
     1  O    0.000000   0.000000
     2  C   -0.000000   0.000001
     3  C    0.000000  -0.000002
     4  C    0.000000   0.000001
     5  C   -0.000001  -0.000009
     6  C    0.000006  -0.000001
     7  C    0.000300   0.001223
     8  C   -0.001609  -0.008834
     9  C    0.011697   0.009671
    10  C   -0.043654  -0.051622
    11  C    0.415798   0.413509
    12  O   -0.000000   0.000000
    13  H   -0.000000  -0.000000
    14  H    0.000000   0.000001
    15  H    0.000000   0.000000
    16  H    0.000000  -0.000000
    17  H   -0.000000  -0.000000
    18  H   -0.000000   0.000000
    19  H    0.000000  -0.000000
    20  H   -0.000002   0.000001
    21  H   -0.000001   0.000001
    22  H   -0.000073  -0.000239
    23  H   -0.000003  -0.000007
    24  H    0.000350   0.001695
    25  H    0.000039  -0.000313
    26  H   -0.000369   0.000099
    27  H   -0.000331   0.001595
    28  H   -0.003431   0.007472
    29  H   -0.005928  -0.003044
    30  H   -0.024912  -0.030280
    31  H    0.532812  -0.022763
    32  H   -0.022763   0.539788
 Mulliken charges:
               1
     1  O   -0.407837
     2  C    0.353257
     3  C   -0.318066
     4  C   -0.304406
     5  C   -0.316588
     6  C   -0.286348
     7  C   -0.327558
     8  C   -0.373681
     9  C   -0.261074
    10  C   -0.268716
    11  C   -0.435899
    12  O   -0.340957
    13  H    0.335582
    14  H    0.166523
    15  H    0.167901
    16  H    0.169259
    17  H    0.161953
    18  H    0.183749
    19  H    0.147243
    20  H    0.147011
    21  H    0.152516
    22  H    0.154657
    23  H    0.157157
    24  H    0.162934
    25  H    0.188713
    26  H    0.136078
    27  H    0.152460
    28  H    0.143919
    29  H    0.137388
    30  H    0.138702
    31  H    0.142074
    32  H    0.142057
 Sum of Mulliken charges =  -0.00000
 Mulliken charges with hydrogens summed into heavy atoms:
               1
     1  O   -0.072255
     2  C    0.353257
     3  C    0.016359
     4  C    0.026806
     5  C    0.014403
     6  C    0.013178
     7  C   -0.015744
     8  C   -0.022035
     9  C    0.027464
    10  C    0.012591
    11  C   -0.013066
    12  O   -0.340957
 Electronic spatial extent (au):  <R**2>=           3244.6541
 Charge=             -0.0000 electrons
 Dipole moment (field-independent basis, Debye):
    X=             -1.0274    Y=              1.0382    Z=              0.7996  Tot=              1.6651
 Quadrupole moment (field-independent basis, Debye-Ang):
   XX=            -73.3264   YY=            -78.3185   ZZ=            -76.9443
   XY=              1.0652   XZ=              1.3683   YZ=             -0.6970
 Traceless Quadrupole moment (field-independent basis, Debye-Ang):
   XX=              2.8700   YY=             -2.1221   ZZ=             -0.7479
   XY=              1.0652   XZ=              1.3683   YZ=             -0.6970
 Octapole moment (field-independent basis, Debye-Ang**2):
  XXX=            -49.0594  YYY=             -7.8304  ZZZ=             -0.9454  XYY=            -14.8661
  XXY=            -20.6160  XXZ=            -15.6789  XZZ=            -15.0416  YZZ=             -2.9164
  YYZ=             -0.0777  XYZ=             -3.8117
 Hexadecapole moment (field-independent basis, Debye-Ang**3):
 XXXX=          -3121.6512 YYYY=           -856.6265 ZZZZ=           -316.1838 XXXY=            112.5100
 XXXZ=            111.1167 YYYX=             36.7269 YYYZ=              5.0495 ZZZX=              1.8280
 ZZZY=              4.7614 XXYY=           -622.8516 XXZZ=           -566.9018 YYZZ=           -193.0871
 XXYZ=             36.2503 YYXZ=              9.8399 ZZXY=             14.0107
 N-N= 7.460777473894D+02 E-N=-2.757177671500D+03  KE= 5.405692275538D+02
 Unable to Open any file for archive entry.
 1\1\GINC-NOTCH075\SP\RM062X\def2TZVP\C10H20O2\U6032257\03-Feb-2022\0\\
 # M062X/def2tzvp int=(grid=ultrafine) nmr=giao guess=read geom=check\\
 Ac1.xyz\\0,1\O,0,5.1569004649,0.0050724504,0.2182023707\C,0,4.53788367
 4,-0.511318637,-0.8728024115\C,0,3.1006632246,-0.8671730853,-0.5874916
 29\C,0,3.0009221962,-2.205823086,0.1813769368\C,0,3.5375753356,-3.4402
 547122,-0.568940831\C,0,2.5091721421,-4.1717414717,-1.4480902869\C,0,1
 .8932290934,-3.3732562304,-2.6058948237\C,0,2.9052113722,-2.9042823338
 ,-3.6570252075\C,0,2.2889442453,-2.0455786955,-4.7714173453\C,0,1.1703
 781551,-2.7144704925,-5.5847267695\C,0,1.6023139278,-4.0048176626,-6.2
 864103739\O,0,5.1241009395,-0.6884303643,-1.9205775725\H,0,6.080149645
 ,0.1583955623,-0.0450334574\H,0,2.5797188783,-0.9165943665,-1.54313174
 07\H,0,2.6545132467,-0.0715227375,0.0166514805\H,0,3.5457265674,-2.083
 0413667,1.1235557209\H,0,1.9500905824,-2.3660214262,0.4512137542\H,0,4
 .4127753737,-3.1597779739,-1.1655217849\H,0,3.9018776989,-4.159382469,
 0.1740901092\H,0,2.9896208446,-5.0689415914,-1.8607585659\H,0,1.698751
 1875,-4.533432298,-0.8007837236\H,0,1.1363578344,-4.0062896399,-3.0848
 583436\H,0,1.3405402004,-2.5089832183,-2.2128511213\H,0,3.3974900555,-
 3.7843962329,-4.0914951105\H,0,3.6991407137,-2.3183357338,-3.183130805
 8\H,0,1.8972882383,-1.1196943132,-4.3277279949\H,0,3.0891587,-1.736556
 3819,-5.4565707909\H,0,0.3113611741,-2.9234578593,-4.934986132\H,0,0.8
 10381136,-1.9991665537,-6.334747055\H,0,1.8789816118,-4.7825291746,-5.
 5673904518\H,0,0.7976182792,-4.4054493193,-6.9111061258\H,0,2.47086326
 16,-3.8297485855,-6.931619917\\Version=ES64L-G16RevC.01\State=1-A\HF=-
 543.5399785\RMSD=2.504e-09\Dipole=-0.2302663,0.005269,0.6132945\Quadru
 pole=0.4868386,-0.2935291,-0.1933095,0.3933922,2.0595639,1.0145774\PG=
 C01 [X(C10H20O2)]\\@
 The archive entry for this job was punched.


 I MET A TRAVELLER FROM AN ANTIQUE LAND
 WHO SAID... TWO VAST AND TRUNKLESS LEGS OF STONE
 STAND IN THE DESERT..... NEAR THEM,  ON THE SAND,
 HALF SUNK,  A SHATTERED VISAGE LIES,  WHOSE FROWN,
 AND WRINKLED LIP,  AND SNEER OF COLD COMMAND
 TELL THAT ITS SCULPTOR WELL THOSE PASSIONS READ
 WHICH YET SURVIVE,  STAMPED ON THESE LIFELESS THINGS
 THE HAND THAT MOCKED THEM,  AND THE HEART THAT FED-
 AND ON THE PEDESTAL THESE WORDS APPEAR 
 MY NAME IS OZYMANDIAS, KING OF KINGS--   
 LOOK ON MY WORKS YE MIGHTY AND DESPAIR. 
 NOTHING BESIDE REMAINS,  ROUND THE DECAY 
 OF THAT COLOSSAL WRECK,  BOUNDLESS AND BARE
 THE LONE AND LEVEL SANDS STRETCH FAR AWAY.
                                    SHELLEY
 Job cpu time:       0 days  0 hours 42 minutes 26.0 seconds.
 Elapsed time:       0 days  0 hours  1 minutes 30.8 seconds.
 File lengths (MBytes):  RWF=    140 Int=      0 D2E=      0 Chk=     24 Scr=      1
 Normal termination of Gaussian 16 at Thu Feb  3 07:14:10 2022.
