 Entering Gaussian System, Link 0=/uufs/chpc.utah.edu/sys/installdir/gaussian16/C01/AVX2/g16/g16
 Input=Ac1_clust-36.com
 Output=Ac1_clust-36.log
 Initial command:
 /uufs/chpc.utah.edu/sys/installdir/gaussian16/C01/AVX2/g16/l1.exe "/scratch/general/lustre/u6032257/3857493/notchpeak.peaks/Gau-31273.inp" -scrdir="/scratch/general/lustre/u6032257/3857493/notchpeak.peaks/"
 Entering Link 1 = /uufs/chpc.utah.edu/sys/installdir/gaussian16/C01/AVX2/g16/l1.exe PID=     31275.
  
 Copyright (c) 1988-2019, Gaussian, Inc.  All Rights Reserved.
  
 This is part of the Gaussian(R) 16 program.  It is based on
 the Gaussian(R) 09 system (copyright 2009, Gaussian, Inc.),
 the Gaussian(R) 03 system (copyright 2003, Gaussian, Inc.),
 the Gaussian(R) 98 system (copyright 1998, Gaussian, Inc.),
 the Gaussian(R) 94 system (copyright 1995, Gaussian, Inc.),
 the Gaussian 92(TM) system (copyright 1992, Gaussian, Inc.),
 the Gaussian 90(TM) system (copyright 1990, Gaussian, Inc.),
 the Gaussian 88(TM) system (copyright 1988, Gaussian, Inc.),
 the Gaussian 86(TM) system (copyright 1986, Carnegie Mellon
 University), and the Gaussian 82(TM) system (copyright 1983,
 Carnegie Mellon University). Gaussian is a federally registered
 trademark of Gaussian, Inc.
  
 This software contains proprietary and confidential information,
 including trade secrets, belonging to Gaussian, Inc.
  
 This software is provided under written license and may be
 used, copied, transmitted, or stored only in accord with that
 written license.
  
 The following legend is applicable only to US Government
 contracts under FAR:
  
                    RESTRICTED RIGHTS LEGEND
  
 Use, reproduction and disclosure by the US Government is
 subject to restrictions as set forth in subparagraphs (a)
 and (c) of the Commercial Computer Software - Restricted
 Rights clause in FAR 52.227-19.
  
 Gaussian, Inc.
 340 Quinnipiac St., Bldg. 40, Wallingford CT 06492
  
  
 ---------------------------------------------------------------
 Warning -- This program may not be used in any manner that
 competes with the business of Gaussian, Inc. or will provide
 assistance to any competitor of Gaussian, Inc.  The licensee
 of this program is prohibited from giving any competitor of
 Gaussian, Inc. access to this program.  By using this program,
 the user acknowledges that Gaussian, Inc. is engaged in the
 business of creating and licensing software in the field of
 computational chemistry and represents and warrants to the
 licensee that it is not a competitor of Gaussian, Inc. and that
 it will not use this program in any manner prohibited above.
 ---------------------------------------------------------------
  

 Cite this work as:
 Gaussian 16, Revision C.01,
 M. J. Frisch, G. W. Trucks, H. B. Schlegel, G. E. Scuseria, 
 M. A. Robb, J. R. Cheeseman, G. Scalmani, V. Barone, 
 G. A. Petersson, H. Nakatsuji, X. Li, M. Caricato, A. V. Marenich, 
 J. Bloino, B. G. Janesko, R. Gomperts, B. Mennucci, H. P. Hratchian, 
 J. V. Ortiz, A. F. Izmaylov, J. L. Sonnenberg, D. Williams-Young, 
 F. Ding, F. Lipparini, F. Egidi, J. Goings, B. Peng, A. Petrone, 
 T. Henderson, D. Ranasinghe, V. G. Zakrzewski, J. Gao, N. Rega, 
 G. Zheng, W. Liang, M. Hada, M. Ehara, K. Toyota, R. Fukuda, 
 J. Hasegawa, M. Ishida, T. Nakajima, Y. Honda, O. Kitao, H. Nakai, 
 T. Vreven, K. Throssell, J. A. Montgomery, Jr., J. E. Peralta, 
 F. Ogliaro, M. J. Bearpark, J. J. Heyd, E. N. Brothers, K. N. Kudin, 
 V. N. Staroverov, T. A. Keith, R. Kobayashi, J. Normand, 
 K. Raghavachari, A. P. Rendell, J. C. Burant, S. S. Iyengar, 
 J. Tomasi, M. Cossi, J. M. Millam, M. Klene, C. Adamo, R. Cammi, 
 J. W. Ochterski, R. L. Martin, K. Morokuma, O. Farkas, 
 J. B. Foresman, and D. J. Fox, Gaussian, Inc., Wallingford CT, 2019.
 
 ******************************************
 Gaussian 16:  ES64L-G16RevC.01  3-Jul-2019
                 3-Feb-2022 
 ******************************************
 %NProcShared=32
 Will use up to   32 processors via shared memory.
 %mem=16GB
 %chk=Ac1_clust-36.chk
 ----------------------------------------------------------------------
 # B3LYP/6-31G(d,p) empiricaldispersion=GD3BJ int=(grid=ultrafine) opt 
 freq=noraman
 ----------------------------------------------------------------------
 1/18=20,19=15,26=4,38=1/1,3;
 2/9=110,12=2,17=6,18=5,40=1/2;
 3/5=1,6=6,7=101,11=2,25=1,30=1,71=1,74=-5,75=-5,124=41/1,2,3;
 4//1;
 5/5=2,38=5/2;
 6/7=2,8=2,9=2,10=2,28=1/1;
 7//1,2,3,16;
 1/18=20,19=15,26=4/3(2);
 2/9=110/2;
 99//99;
 2/9=110/2;
 3/5=1,6=6,7=101,11=2,25=1,30=1,71=1,74=-5,75=-5,124=41/1,2,3;
 4/5=5,16=3,69=1/1;
 5/5=2,38=5/2;
 7//1,2,3,16;
 1/18=20,19=15,26=4/3(-5);
 2/9=110/2;
 6/7=2,8=2,9=2,10=2,19=2,28=1/1;
 99/9=1/99;
 -------
 Ac1.xyz
 -------
 Symbolic Z-matrix:
 Charge =  0 Multiplicity = 1
 O                     5.7492    0.003     1.5356 
 C                     5.0696   -0.177     0.3836 
 C                     3.9369   -1.1912    0.5477 
 C                     3.2079   -1.6003   -0.7571 
 C                     4.0574   -2.475    -1.7044 
 C                     3.3498   -2.8475   -3.0221 
 C                     2.1269   -3.7717   -2.8452 
 C                     1.5336   -4.2887   -4.1707 
 C                     0.9207   -3.1857   -5.0585 
 C                     0.1825   -3.7182   -6.3018 
 C                     1.0971   -4.413    -7.3232 
 O                     5.3344    0.4238   -0.6484 
 H                     6.4166    0.6527    1.3127 
 H                     3.2201   -0.7295    1.226 
 H                     4.3253   -2.0737    1.0557 
 H                     2.3033   -2.1455   -0.485 
 H                     2.8631   -0.709    -1.2868 
 H                     4.9793   -1.9462   -1.9528 
 H                     4.3699   -3.3841   -1.1878 
 H                     3.0573   -1.9337   -3.5413 
 H                     4.0733   -3.3389   -3.675 
 H                     2.4167   -4.6309   -2.2378 
 H                     1.3472   -3.2584   -2.2811 
 H                     0.7637   -5.0272   -3.9408 
 H                     2.3047   -4.8271   -4.7234 
 H                     0.2185   -2.5999   -4.4627 
 H                     1.6961   -2.4866   -5.3749 
 H                    -0.6102   -4.4029   -5.9954 
 H                    -0.3215   -2.885    -6.7944 
 H                     0.5353   -4.7093   -8.2095 
 H                     1.9016   -3.7526   -7.6493 
 H                     1.5506   -5.3145   -6.9107 
 

 GradGradGradGradGradGradGradGradGradGradGradGradGradGradGradGradGradGrad
 Berny optimization.
 Initialization pass.
                           ----------------------------
                           !    Initial Parameters    !
                           ! (Angstroms and Degrees)  !
 --------------------------                            --------------------------
 ! Name  Definition              Value          Derivative Info.                !
 --------------------------------------------------------------------------------
 ! R1    R(1,2)                  1.3496         estimate D2E/DX2                !
 ! R2    R(1,13)                 0.9577         estimate D2E/DX2                !
 ! R3    R(2,3)                  1.5292         estimate D2E/DX2                !
 ! R4    R(2,12)                 1.2232         estimate D2E/DX2                !
 ! R5    R(3,4)                  1.5496         estimate D2E/DX2                !
 ! R6    R(3,14)                 1.0895         estimate D2E/DX2                !
 ! R7    R(3,15)                 1.0898         estimate D2E/DX2                !
 ! R8    R(4,5)                  1.5441         estimate D2E/DX2                !
 ! R9    R(4,16)                 1.0907         estimate D2E/DX2                !
 ! R10   R(4,17)                 1.0927         estimate D2E/DX2                !
 ! R11   R(5,6)                  1.5414         estimate D2E/DX2                !
 ! R12   R(5,18)                 1.0914         estimate D2E/DX2                !
 ! R13   R(5,19)                 1.0913         estimate D2E/DX2                !
 ! R14   R(6,7)                  1.543          estimate D2E/DX2                !
 ! R15   R(6,20)                 1.0909         estimate D2E/DX2                !
 ! R16   R(6,21)                 1.0914         estimate D2E/DX2                !
 ! R17   R(7,8)                  1.5415         estimate D2E/DX2                !
 ! R18   R(7,22)                 1.0914         estimate D2E/DX2                !
 ! R19   R(7,23)                 1.0907         estimate D2E/DX2                !
 ! R20   R(8,9)                  1.5429         estimate D2E/DX2                !
 ! R21   R(8,24)                 1.0913         estimate D2E/DX2                !
 ! R22   R(8,25)                 1.0908         estimate D2E/DX2                !
 ! R23   R(9,10)                 1.5409         estimate D2E/DX2                !
 ! R24   R(9,26)                 1.0914         estimate D2E/DX2                !
 ! R25   R(9,27)                 1.0909         estimate D2E/DX2                !
 ! R26   R(10,11)                1.537          estimate D2E/DX2                !
 ! R27   R(10,28)                1.0914         estimate D2E/DX2                !
 ! R28   R(10,29)                1.0913         estimate D2E/DX2                !
 ! R29   R(11,30)                1.0904         estimate D2E/DX2                !
 ! R30   R(11,31)                1.0907         estimate D2E/DX2                !
 ! R31   R(11,32)                1.0902         estimate D2E/DX2                !
 ! A1    A(2,1,13)             104.0477         estimate D2E/DX2                !
 ! A2    A(1,2,3)              111.7062         estimate D2E/DX2                !
 ! A3    A(1,2,12)             123.0706         estimate D2E/DX2                !
 ! A4    A(3,2,12)             125.2156         estimate D2E/DX2                !
 ! A5    A(2,3,4)              115.67           estimate D2E/DX2                !
 ! A6    A(2,3,14)             105.8471         estimate D2E/DX2                !
 ! A7    A(2,3,15)             108.8497         estimate D2E/DX2                !
 ! A8    A(4,3,14)             109.0614         estimate D2E/DX2                !
 ! A9    A(4,3,15)             110.2653         estimate D2E/DX2                !
 ! A10   A(14,3,15)            106.7035         estimate D2E/DX2                !
 ! A11   A(3,4,5)              114.0365         estimate D2E/DX2                !
 ! A12   A(3,4,16)             108.1847         estimate D2E/DX2                !
 ! A13   A(3,4,17)             109.956          estimate D2E/DX2                !
 ! A14   A(5,4,16)             109.0378         estimate D2E/DX2                !
 ! A15   A(5,4,17)             109.773          estimate D2E/DX2                !
 ! A16   A(16,4,17)            105.4843         estimate D2E/DX2                !
 ! A17   A(4,5,6)              114.1308         estimate D2E/DX2                !
 ! A18   A(4,5,18)             109.2613         estimate D2E/DX2                !
 ! A19   A(4,5,19)             109.8175         estimate D2E/DX2                !
 ! A20   A(6,5,18)             108.0767         estimate D2E/DX2                !
 ! A21   A(6,5,19)             109.5616         estimate D2E/DX2                !
 ! A22   A(18,5,19)            105.6324         estimate D2E/DX2                !
 ! A23   A(5,6,7)              114.2408         estimate D2E/DX2                !
 ! A24   A(5,6,20)             109.1182         estimate D2E/DX2                !
 ! A25   A(5,6,21)             108.4149         estimate D2E/DX2                !
 ! A26   A(7,6,20)             110.1066         estimate D2E/DX2                !
 ! A27   A(7,6,21)             108.9218         estimate D2E/DX2                !
 ! A28   A(20,6,21)            105.6741         estimate D2E/DX2                !
 ! A29   A(6,7,8)              114.0375         estimate D2E/DX2                !
 ! A30   A(6,7,22)             108.9587         estimate D2E/DX2                !
 ! A31   A(6,7,23)             110.119          estimate D2E/DX2                !
 ! A32   A(8,7,22)             108.4644         estimate D2E/DX2                !
 ! A33   A(8,7,23)             109.1122         estimate D2E/DX2                !
 ! A34   A(22,7,23)            105.8117         estimate D2E/DX2                !
 ! A35   A(7,8,9)              114.0739         estimate D2E/DX2                !
 ! A36   A(7,8,24)             108.5021         estimate D2E/DX2                !
 ! A37   A(7,8,25)             109.2165         estimate D2E/DX2                !
 ! A38   A(9,8,24)             108.9503         estimate D2E/DX2                !
 ! A39   A(9,8,25)             110.0052         estimate D2E/DX2                !
 ! A40   A(24,8,25)            105.7493         estimate D2E/DX2                !
 ! A41   A(8,9,10)             114.0511         estimate D2E/DX2                !
 ! A42   A(8,9,26)             108.9758         estimate D2E/DX2                !
 ! A43   A(8,9,27)             110.0398         estimate D2E/DX2                !
 ! A44   A(10,9,26)            108.5252         estimate D2E/DX2                !
 ! A45   A(10,9,27)            109.1451         estimate D2E/DX2                !
 ! A46   A(26,9,27)            105.7636         estimate D2E/DX2                !
 ! A47   A(9,10,11)            114.0376         estimate D2E/DX2                !
 ! A48   A(9,10,28)            109.7706         estimate D2E/DX2                !
 ! A49   A(9,10,29)            108.7613         estimate D2E/DX2                !
 ! A50   A(11,10,28)           109.5827         estimate D2E/DX2                !
 ! A51   A(11,10,29)           108.662          estimate D2E/DX2                !
 ! A52   A(28,10,29)           105.6812         estimate D2E/DX2                !
 ! A53   A(10,11,30)           110.8792         estimate D2E/DX2                !
 ! A54   A(10,11,31)           111.3381         estimate D2E/DX2                !
 ! A55   A(10,11,32)           111.7085         estimate D2E/DX2                !
 ! A56   A(30,11,31)           107.5499         estimate D2E/DX2                !
 ! A57   A(30,11,32)           107.288          estimate D2E/DX2                !
 ! A58   A(31,11,32)           107.8771         estimate D2E/DX2                !
 ! D1    D(13,1,2,3)          -179.5958         estimate D2E/DX2                !
 ! D2    D(13,1,2,12)           -0.5541         estimate D2E/DX2                !
 ! D3    D(1,2,3,4)           -172.7174         estimate D2E/DX2                !
 ! D4    D(1,2,3,14)            66.4129         estimate D2E/DX2                !
 ! D5    D(1,2,3,15)           -47.9562         estimate D2E/DX2                !
 ! D6    D(12,2,3,4)             8.2655         estimate D2E/DX2                !
 ! D7    D(12,2,3,14)         -112.6042         estimate D2E/DX2                !
 ! D8    D(12,2,3,15)          133.0267         estimate D2E/DX2                !
 ! D9    D(2,3,4,5)             70.5505         estimate D2E/DX2                !
 ! D10   D(2,3,4,16)          -167.9534         estimate D2E/DX2                !
 ! D11   D(2,3,4,17)           -53.2303         estimate D2E/DX2                !
 ! D12   D(14,3,4,5)          -170.331          estimate D2E/DX2                !
 ! D13   D(14,3,4,16)          -48.8349         estimate D2E/DX2                !
 ! D14   D(14,3,4,17)           65.8882         estimate D2E/DX2                !
 ! D15   D(15,3,4,5)           -53.476          estimate D2E/DX2                !
 ! D16   D(15,3,4,16)           68.0201         estimate D2E/DX2                !
 ! D17   D(15,3,4,17)         -177.2567         estimate D2E/DX2                !
 ! D18   D(3,4,5,6)           -178.2349         estimate D2E/DX2                !
 ! D19   D(3,4,5,18)           -57.1239         estimate D2E/DX2                !
 ! D20   D(3,4,5,19)            58.3015         estimate D2E/DX2                !
 ! D21   D(16,4,5,6)            60.7423         estimate D2E/DX2                !
 ! D22   D(16,4,5,18)         -178.1468         estimate D2E/DX2                !
 ! D23   D(16,4,5,19)          -62.7214         estimate D2E/DX2                !
 ! D24   D(17,4,5,6)           -54.3555         estimate D2E/DX2                !
 ! D25   D(17,4,5,18)           66.7554         estimate D2E/DX2                !
 ! D26   D(17,4,5,19)         -177.8192         estimate D2E/DX2                !
 ! D27   D(4,5,6,7)            -66.2673         estimate D2E/DX2                !
 ! D28   D(4,5,6,20)            57.4503         estimate D2E/DX2                !
 ! D29   D(4,5,6,21)           172.0816         estimate D2E/DX2                !
 ! D30   D(18,5,6,7)           171.967          estimate D2E/DX2                !
 ! D31   D(18,5,6,20)          -64.3154         estimate D2E/DX2                !
 ! D32   D(18,5,6,21)           50.3159         estimate D2E/DX2                !
 ! D33   D(19,5,6,7)            57.3346         estimate D2E/DX2                !
 ! D34   D(19,5,6,20)         -178.9479         estimate D2E/DX2                !
 ! D35   D(19,5,6,21)          -64.3166         estimate D2E/DX2                !
 ! D36   D(5,6,7,8)           -172.4866         estimate D2E/DX2                !
 ! D37   D(5,6,7,22)           -51.1614         estimate D2E/DX2                !
 ! D38   D(5,6,7,23)            64.4756         estimate D2E/DX2                !
 ! D39   D(20,6,7,8)            64.3289         estimate D2E/DX2                !
 ! D40   D(20,6,7,22)         -174.3458         estimate D2E/DX2                !
 ! D41   D(20,6,7,23)          -58.7088         estimate D2E/DX2                !
 ! D42   D(21,6,7,8)           -51.1149         estimate D2E/DX2                !
 ! D43   D(21,6,7,22)           70.2104         estimate D2E/DX2                !
 ! D44   D(21,6,7,23)         -174.1527         estimate D2E/DX2                !
 ! D45   D(6,7,8,9)            -65.5227         estimate D2E/DX2                !
 ! D46   D(6,7,8,24)           172.8374         estimate D2E/DX2                !
 ! D47   D(6,7,8,25)            58.0183         estimate D2E/DX2                !
 ! D48   D(22,7,8,9)           172.8784         estimate D2E/DX2                !
 ! D49   D(22,7,8,24)           51.2385         estimate D2E/DX2                !
 ! D50   D(22,7,8,25)          -63.5805         estimate D2E/DX2                !
 ! D51   D(23,7,8,9)            58.0611         estimate D2E/DX2                !
 ! D52   D(23,7,8,24)          -63.5788         estimate D2E/DX2                !
 ! D53   D(23,7,8,25)         -178.3979         estimate D2E/DX2                !
 ! D54   D(7,8,9,10)          -173.1841         estimate D2E/DX2                !
 ! D55   D(7,8,9,26)           -51.7589         estimate D2E/DX2                !
 ! D56   D(7,8,9,27)            63.786          estimate D2E/DX2                !
 ! D57   D(24,8,9,10)          -51.792          estimate D2E/DX2                !
 ! D58   D(24,8,9,26)           69.6332         estimate D2E/DX2                !
 ! D59   D(24,8,9,27)         -174.8219         estimate D2E/DX2                !
 ! D60   D(25,8,9,10)           63.7022         estimate D2E/DX2                !
 ! D61   D(25,8,9,26)         -174.8726         estimate D2E/DX2                !
 ! D62   D(25,8,9,27)          -59.3277         estimate D2E/DX2                !
 ! D63   D(8,9,10,11)          -65.7022         estimate D2E/DX2                !
 ! D64   D(8,9,10,28)           57.6852         estimate D2E/DX2                !
 ! D65   D(8,9,10,29)          172.8628         estimate D2E/DX2                !
 ! D66   D(26,9,10,11)         172.6234         estimate D2E/DX2                !
 ! D67   D(26,9,10,28)         -63.9892         estimate D2E/DX2                !
 ! D68   D(26,9,10,29)          51.1885         estimate D2E/DX2                !
 ! D69   D(27,9,10,11)          57.8129         estimate D2E/DX2                !
 ! D70   D(27,9,10,28)        -178.7996         estimate D2E/DX2                !
 ! D71   D(27,9,10,29)         -63.622          estimate D2E/DX2                !
 ! D72   D(9,10,11,30)        -176.1973         estimate D2E/DX2                !
 ! D73   D(9,10,11,31)         -56.495          estimate D2E/DX2                !
 ! D74   D(9,10,11,32)          64.1856         estimate D2E/DX2                !
 ! D75   D(28,10,11,30)         60.3135         estimate D2E/DX2                !
 ! D76   D(28,10,11,31)       -179.9842         estimate D2E/DX2                !
 ! D77   D(28,10,11,32)        -59.3036         estimate D2E/DX2                !
 ! D78   D(29,10,11,30)        -54.7073         estimate D2E/DX2                !
 ! D79   D(29,10,11,31)         64.995          estimate D2E/DX2                !
 ! D80   D(29,10,11,32)       -174.3245         estimate D2E/DX2                !
 --------------------------------------------------------------------------------
 Trust Radius=3.00D-01 FncErr=1.00D-07 GrdErr=1.00D-06 EigMax=2.50D+02 EigMin=1.00D-04
 Number of steps in this run=    179 maximum allowed number of steps=    192.
 GradGradGradGradGradGradGradGradGradGradGradGradGradGradGradGradGradGrad

                          Input orientation:                          
 ---------------------------------------------------------------------
 Center     Atomic      Atomic             Coordinates (Angstroms)
 Number     Number       Type             X           Y           Z
 ---------------------------------------------------------------------
      1          8           0        5.749200    0.003000    1.535600
      2          6           0        5.069600   -0.177000    0.383600
      3          6           0        3.936900   -1.191200    0.547700
      4          6           0        3.207900   -1.600300   -0.757100
      5          6           0        4.057400   -2.475000   -1.704400
      6          6           0        3.349800   -2.847500   -3.022100
      7          6           0        2.126900   -3.771700   -2.845200
      8          6           0        1.533600   -4.288700   -4.170700
      9          6           0        0.920700   -3.185700   -5.058500
     10          6           0        0.182500   -3.718200   -6.301800
     11          6           0        1.097100   -4.413000   -7.323200
     12          8           0        5.334400    0.423800   -0.648400
     13          1           0        6.416600    0.652700    1.312700
     14          1           0        3.220100   -0.729500    1.226000
     15          1           0        4.325300   -2.073700    1.055700
     16          1           0        2.303300   -2.145500   -0.485000
     17          1           0        2.863100   -0.709000   -1.286800
     18          1           0        4.979300   -1.946200   -1.952800
     19          1           0        4.369900   -3.384100   -1.187800
     20          1           0        3.057300   -1.933700   -3.541300
     21          1           0        4.073300   -3.338900   -3.675000
     22          1           0        2.416700   -4.630900   -2.237800
     23          1           0        1.347200   -3.258400   -2.281100
     24          1           0        0.763700   -5.027200   -3.940800
     25          1           0        2.304700   -4.827100   -4.723400
     26          1           0        0.218500   -2.599900   -4.462700
     27          1           0        1.696100   -2.486600   -5.374900
     28          1           0       -0.610200   -4.402900   -5.995400
     29          1           0       -0.321500   -2.885000   -6.794400
     30          1           0        0.535300   -4.709300   -8.209500
     31          1           0        1.901600   -3.752600   -7.649300
     32          1           0        1.550600   -5.314500   -6.910700
 ---------------------------------------------------------------------
                    Distance matrix (angstroms):
                    1          2          3          4          5
     1  O    0.000000
     2  C    1.349578   0.000000
     3  C    2.384637   1.529228   0.000000
     4  C    3.779583   2.606320   1.549615   0.000000
     5  C    4.415911   3.265746   2.595114   1.544062   0.000000
     6  C    5.886858   4.657046   3.978880   2.589569   1.541359
     7  C    6.823549   5.657429   4.631074   3.200578   2.590306
     8  C    8.291672   7.081739   6.134628   4.656548   3.967582
     9  C    8.772934   7.475433   6.671205   5.123165   4.646931
    10  C   10.308265   9.006576   8.209561   6.662000   6.139746
    11  C   10.937158   9.649830   8.966355   7.448518   6.640040
    12  O    2.262518   1.223153   2.447833   2.937822   3.338998
    13  H    0.957715   1.834677   3.183411   4.433490   4.944818
    14  H    2.651180   2.106073   1.089523   2.165901   3.512134
    15  H    2.563294   2.145500   1.089828   2.181498   2.801957
    16  H    4.535758   3.504550   2.155413   1.090680   2.161567
    17  H    4.099080   2.818138   2.179668   1.092650   2.172441
    18  H    4.069528   2.932062   2.812316   2.164995   1.091436
    19  H    4.559805   3.639281   2.829887   2.172024   1.091327
    20  H    6.063996   4.747651   4.247932   2.808132   2.160418
    21  H    6.413056   5.240464   4.739453   3.505109   2.151706
    22  H    6.842305   5.809203   4.679910   3.464536   2.761217
    23  H    6.676940   5.518325   4.356830   2.921314   2.879493
    24  H    8.952602   7.795233   6.703039   5.277661   4.729024
    25  H    8.623777   7.439728   6.608203   5.192258   4.209358
    26  H    8.564072   7.272568   6.396487   4.864893   4.728739
    27  H    8.389323   7.062229   6.463469   4.939144   4.364452
    28  H   10.796753   9.529428   8.590884   7.062028   6.626912
    29  H   10.704338   9.376615   8.655019   7.110282   6.726884
    30  H   12.014887  10.721147  10.031773   8.505700   7.727458
    31  H   10.642882   9.346048   8.825759   7.337659   6.451478
    32  H   10.827928   9.590833   8.850071   7.376227   6.438351
                    6          7          8          9         10
     6  C    0.000000
     7  C    1.543024   0.000000
     8  C    2.587455   1.541507   0.000000
     9  C    3.187763   2.587858   1.542869   0.000000
    10  C    4.641804   3.966313   2.586992   1.540873   0.000000
    11  C    5.101461   4.639422   3.185002   2.581908   1.537042
    12  O    4.502721   5.719808   7.004308   7.208205   8.698228
    13  H    6.359808   7.434042   8.850356   9.248266  10.767979
    14  H    4.748589   5.198532   6.681060   7.128471   8.650267
    15  H    4.263663   4.788861   6.325747   7.085992   8.602324
    16  H    2.832815   2.871618   4.332451   4.889837   6.387984
    17  H    2.796663   3.514361   4.785259   4.912503   6.433594
    18  H    2.147327   3.502144   4.720088   5.258704   6.712904
    19  H    2.166379   2.815716   4.214332   5.188320   6.618077
    20  H    1.090942   2.174498   2.874688   2.904214   4.366838
    21  H    1.091423   2.159712   2.756432   3.446220   4.709806
    22  H    2.160166   1.091395   2.152456   3.504706   4.726602
    23  H    2.174472   1.090696   2.160290   2.810896   4.211172
    24  H    3.504713   2.152890   1.091321   2.159867   2.761448
    25  H    2.811667   2.161739   1.090847   2.173003   2.867881
    26  H    3.455673   2.762501   2.160277   1.091432   2.152714
    27  H    2.898386   2.869922   2.173492   1.090915   2.160316
    28  H    5.190509   4.220650   2.817526   2.168643   1.091361
    29  H    5.264038   4.730442   3.506504   2.155651   1.091280
    30  H    6.188443   5.673447   4.181556   3.521178   2.178547
    31  H    4.932288   4.809418   3.538854   2.827682   2.184547
    32  H    4.944130   4.386416   2.925774   2.891230   2.188751
                   11         12         13         14         15
    11  C    0.000000
    12  O    9.268349   0.000000
    13  H   11.337423   2.251547   0.000000
    14  H    9.547990   3.051842   3.483620   0.000000
    15  H    9.278985   3.187436   3.445699   1.748526   0.000000
    16  H    7.304619   3.976879   5.289696   2.402727   2.543107
    17  H    7.299075   2.792510   4.608578   2.538116   3.080218
    18  H    7.070910   2.728453   4.414023   3.831437   3.081403
    19  H    7.029437   3.965011   5.170806   3.767675   2.598544
    20  H    4.928700   4.371711   6.444818   4.919731   4.770727
    21  H    4.829164   4.990851   6.804489   5.617537   4.903443
    22  H    5.258338   6.048897   7.518090   5.278663   4.585757
    23  H    5.178651   5.667634   7.342405   4.711989   4.626751
    24  H    3.453842   7.838660   9.582056   7.155414   6.809785
    25  H    2.896332   7.304564   9.130741   7.281734   6.712826
    26  H    3.498818   7.061450   9.074750   6.698456   6.898944
    27  H    2.804584   6.636826   8.767116   6.998704   6.959583
    28  H    2.162875   9.339471  11.328872   8.961790   8.916409
    29  H    2.151009   8.983912  11.119460   9.028617   9.158331
    30  H    1.090386  10.322321  12.410198  10.586577  10.351542
    31  H    1.090729   8.845283  10.959441   9.468291   9.190759
    32  H    1.090193   9.298475  11.265422   9.487642   9.036884
                   16         17         18         19         20
    16  H    0.000000
    17  H    1.737755   0.000000
    18  H    3.058616   2.540182   0.000000
    19  H    2.509760   3.071874   1.739008   0.000000
    20  H    3.155051   2.573009   2.493506   3.060317   0.000000
    21  H    3.838386   3.752926   2.392994   2.505230   1.739172
    22  H    3.043416   4.060169   3.722332   2.544013   3.063392
    23  H    2.319191   3.128262   3.875797   3.216803   2.503473
    24  H    4.755746   5.486169   5.587127   4.825294   3.871685
    25  H    5.015478   5.392660   4.809292   4.341402   3.214892
    26  H    4.513864   4.544860   5.421452   5.345471   3.058036
    27  H    4.939247   4.608070   4.773071   5.048417   2.349607
    28  H    6.629393   6.919510   7.322602   6.996597   5.056690
    29  H    6.873497   6.723861   7.240229   7.327503   4.785804
    30  H    8.328673   8.327354   8.156602   8.109537   5.988032
    31  H    7.353321   7.118243   6.722011   6.926708   4.638933
    32  H    7.204078   7.386578   6.905230   6.665319   5.005278
                   21         22         23         24         25
    21  H    0.000000
    22  H    2.545414   0.000000
    23  H    3.062851   1.740535   0.000000
    24  H    3.724843   2.406174   2.494740   0.000000
    25  H    2.538076   2.495846   3.056543   1.739880   0.000000
    26  H    4.003258   3.729239   2.543023   2.541930   3.062779
    27  H    3.044200   3.867646   3.207648   3.062786   2.504553
    28  H    5.333997   4.830493   4.351703   2.549261   3.208515
    29  H    5.408415   5.595401   4.826372   3.729573   3.867521
    30  H    5.912456   6.261550   6.157127   4.286610   3.911208
    31  H    4.547800   5.506457   5.419332   4.083184   3.142918
    32  H    4.553764   4.801399   5.069725   3.085783   2.364425
                   26         27         28         29         30
    26  H    0.000000
    27  H    1.740186   0.000000
    28  H    2.507334   3.062066   0.000000
    29  H    2.410333   2.498882   1.739474   0.000000
    30  H    4.311431   3.784549   2.511631   2.462658   0.000000
    31  H    3.783644   2.611107   3.076916   2.534908   1.759510
    32  H    3.890533   3.221315   2.517508   3.069325   1.756127
                   31         32
    31  H    0.000000
    32  H    1.763027   0.000000
 Stoichiometry    C10H20O2
 Framework group  C1[X(C10H20O2)]
 Deg. of freedom    90
 Full point group                 C1      NOp   1
 Largest Abelian subgroup         C1      NOp   1
 Largest concise Abelian subgroup C1      NOp   1
                         Standard orientation:                         
 ---------------------------------------------------------------------
 Center     Atomic      Atomic             Coordinates (Angstroms)
 Number     Number       Type             X           Y           Z
 ---------------------------------------------------------------------
      1          8           0        5.409562    0.074277   -0.120346
      2          6           0        4.126493    0.410819    0.128319
      3          6           0        3.264869   -0.819200    0.416760
      4          6           0        1.742522   -0.558088    0.541607
      5          6           0        1.053999   -0.201451   -0.793637
      6          6           0       -0.451981    0.100676   -0.665066
      7          6           0       -1.308540   -1.113672   -0.249627
      8          6           0       -2.827708   -0.856954   -0.299296
      9          6           0       -3.322383    0.191749    0.718526
     10          6           0       -4.855772    0.328355    0.784459
     11          6           0       -5.491366    0.877328   -0.502843
     12          8           0        3.729198    1.567631    0.135110
     13          1           0        5.843755    0.913366   -0.277260
     14          1           0        3.634176   -1.227292    1.357043
     15          1           0        3.457395   -1.571205   -0.348188
     16          1           0        1.276288   -1.453597    0.954245
     17          1           0        1.558372    0.230891    1.274741
     18          1           0        1.539537    0.675105   -1.226227
     19          1           0        1.204862   -1.006886   -1.514407
     20          1           0       -0.593118    0.918867    0.042606
     21          1           0       -0.811571    0.475669   -1.624899
     22          1           0       -1.077971   -1.952378   -0.908834
     23          1           0       -1.034218   -1.440480    0.754148
     24          1           0       -3.344557   -1.800414   -0.115631
     25          1           0       -3.108373   -0.557459   -1.309978
     26          1           0       -2.955100   -0.075950    1.710829
     27          1           0       -2.885743    1.165868    0.493731
     28          1           0       -5.302157   -0.636792    1.030020
     29          1           0       -5.113806    0.991694    1.611680
     30          1           0       -6.565616    1.015840   -0.377377
     31          1           0       -5.064780    1.843489   -0.775326
     32          1           0       -5.348251    0.199031   -1.344242
 ---------------------------------------------------------------------
 Rotational constants (GHZ):           2.8714945           0.2208166           0.2157789
 Standard basis: 6-31G(d,p) (6D, 7F)
 There are   280 symmetry adapted cartesian basis functions of A   symmetry.
 There are   280 symmetry adapted basis functions of A   symmetry.
   280 basis functions,   476 primitive gaussians,   280 cartesian basis functions
    48 alpha electrons       48 beta electrons
       nuclear repulsion energy       692.0870971802 Hartrees.
 NAtoms=   32 NActive=   32 NUniq=   32 SFac= 1.00D+00 NAtFMM=   60 NAOKFM=F Big=F
 Integral buffers will be    131072 words long.
 Raffenetti 2 integral format.
 Two-electron integral symmetry is turned on.
 Nuclear repulsion after empirical dispersion term =      692.0400356461 Hartrees.
 One-electron integrals computed using PRISM.
 NBasis=   280 RedAO= T EigKep=  2.86D-03  NBF=   280
 NBsUse=   280 1.00D-06 EigRej= -1.00D+00 NBFU=   280
 ExpMin= 1.61D-01 ExpMax= 5.48D+03 ExpMxC= 8.25D+02 IAcc=3 IRadAn=         5 AccDes= 0.00D+00
 Harris functional with IExCor=  402 and IRadAn=       5 diagonalized for initial guess.
 HarFok:  IExCor=  402 AccDes= 0.00D+00 IRadAn=         5 IDoV= 1 UseB2=F ITyADJ=14
 ICtDFT=  3500011 ScaDFX=  1.000000  1.000000  1.000000  1.000000
 FoFCou: FMM=F IPFlag=           0 FMFlag=      100000 FMFlg1=           0
         NFxFlg=           0 DoJE=T BraDBF=F KetDBF=T FulRan=T
         wScrn=  0.000000 ICntrl=       500 IOpCl=  0 I1Cent=   200000004 NGrid=           0
         NMat0=    1 NMatS0=      1 NMatT0=    0 NMatD0=    1 NMtDS0=    0 NMtDT0=    0
 Petite list used in FoFCou.
 Requested convergence on RMS density matrix=1.00D-08 within 128 cycles.
 Requested convergence on MAX density matrix=1.00D-06.
 Requested convergence on             energy=1.00D-06.
 No special actions if energy rises.
 Integral accuracy reduced to 1.0D-05 until final iterations.
 Initial convergence to 1.0D-05 achieved.  Increase integral accuracy.
 SCF Done:  E(RB3LYP) =  -543.665386596     A.U. after   13 cycles
            NFock= 13  Conv=0.54D-08     -V/T= 2.0097

 **********************************************************************

            Population analysis using the SCF Density.

 **********************************************************************

 Orbital symmetries:
       Occupied  (A) (A) (A) (A) (A) (A) (A) (A) (A) (A) (A) (A)
                 (A) (A) (A) (A) (A) (A) (A) (A) (A) (A) (A) (A)
                 (A) (A) (A) (A) (A) (A) (A) (A) (A) (A) (A) (A)
                 (A) (A) (A) (A) (A) (A) (A) (A) (A) (A) (A) (A)
       Virtual   (A) (A) (A) (A) (A) (A) (A) (A) (A) (A) (A) (A)
                 (A) (A) (A) (A) (A) (A) (A) (A) (A) (A) (A) (A)
                 (A) (A) (A) (A) (A) (A) (A) (A) (A) (A) (A) (A)
                 (A) (A) (A) (A) (A) (A) (A) (A) (A) (A) (A) (A)
                 (A) (A) (A) (A) (A) (A) (A) (A) (A) (A) (A) (A)
                 (A) (A) (A) (A) (A) (A) (A) (A) (A) (A) (A) (A)
                 (A) (A) (A) (A) (A) (A) (A) (A) (A) (A) (A) (A)
                 (A) (A) (A) (A) (A) (A) (A) (A) (A) (A) (A) (A)
                 (A) (A) (A) (A) (A) (A) (A) (A) (A) (A) (A) (A)
                 (A) (A) (A) (A) (A) (A) (A) (A) (A) (A) (A) (A)
                 (A) (A) (A) (A) (A) (A) (A) (A) (A) (A) (A) (A)
                 (A) (A) (A) (A) (A) (A) (A) (A) (A) (A) (A) (A)
                 (A) (A) (A) (A) (A) (A) (A) (A) (A) (A) (A) (A)
                 (A) (A) (A) (A) (A) (A) (A) (A) (A) (A) (A) (A)
                 (A) (A) (A) (A) (A) (A) (A) (A) (A) (A) (A) (A)
                 (A) (A) (A) (A) (A) (A) (A) (A) (A) (A) (A) (A)
                 (A) (A) (A) (A) (A) (A) (A) (A) (A) (A) (A) (A)
                 (A) (A) (A) (A) (A) (A) (A) (A) (A) (A) (A) (A)
                 (A) (A) (A) (A) (A) (A) (A) (A) (A) (A) (A) (A)
                 (A) (A) (A) (A)
 The electronic state is 1-A.
 Alpha  occ. eigenvalues --  -19.19936 -19.13902 -10.32228 -10.20140 -10.18445
 Alpha  occ. eigenvalues --  -10.17478 -10.17419 -10.17350 -10.17301 -10.17275
 Alpha  occ. eigenvalues --  -10.17212 -10.16762  -1.10883  -1.01172  -0.80852
 Alpha  occ. eigenvalues --   -0.79227  -0.76417  -0.72690  -0.68179  -0.65177
 Alpha  occ. eigenvalues --   -0.61112  -0.58688  -0.56971  -0.55050  -0.49437
 Alpha  occ. eigenvalues --   -0.48209  -0.47057  -0.46299  -0.44647  -0.43449
 Alpha  occ. eigenvalues --   -0.42809  -0.42465  -0.40406  -0.39980  -0.39048
 Alpha  occ. eigenvalues --   -0.37504  -0.36758  -0.36361  -0.34910  -0.34295
 Alpha  occ. eigenvalues --   -0.32928  -0.32765  -0.31958  -0.31722  -0.30846
 Alpha  occ. eigenvalues --   -0.30356  -0.29986  -0.27271
 Alpha virt. eigenvalues --    0.00930   0.08228   0.09265   0.09550   0.11322
 Alpha virt. eigenvalues --    0.11892   0.12106   0.13932   0.14641   0.15355
 Alpha virt. eigenvalues --    0.16272   0.16788   0.17244   0.17563   0.18385
 Alpha virt. eigenvalues --    0.18476   0.19017   0.19750   0.20627   0.21283
 Alpha virt. eigenvalues --    0.22008   0.23255   0.24576   0.25137   0.25840
 Alpha virt. eigenvalues --    0.25980   0.26878   0.27699   0.28439   0.28657
 Alpha virt. eigenvalues --    0.30612   0.36625   0.48802   0.49558   0.51077
 Alpha virt. eigenvalues --    0.52131   0.53054   0.53175   0.54236   0.54814
 Alpha virt. eigenvalues --    0.56134   0.56379   0.58775   0.60525   0.62823
 Alpha virt. eigenvalues --    0.63316   0.64848   0.65538   0.66019   0.67317
 Alpha virt. eigenvalues --    0.68997   0.69146   0.70309   0.70634   0.73071
 Alpha virt. eigenvalues --    0.76352   0.77201   0.80219   0.80990   0.82652
 Alpha virt. eigenvalues --    0.83740   0.85040   0.85917   0.86313   0.86602
 Alpha virt. eigenvalues --    0.87492   0.88252   0.88856   0.89585   0.89668
 Alpha virt. eigenvalues --    0.90844   0.91531   0.92064   0.93222   0.94256
 Alpha virt. eigenvalues --    0.94457   0.95068   0.95447   0.96701   0.97301
 Alpha virt. eigenvalues --    0.98453   1.00256   1.00759   1.02058   1.02496
 Alpha virt. eigenvalues --    1.06222   1.10606   1.11688   1.13786   1.14570
 Alpha virt. eigenvalues --    1.20702   1.27849   1.29187   1.30707   1.34930
 Alpha virt. eigenvalues --    1.37510   1.38240   1.39689   1.41828   1.46908
 Alpha virt. eigenvalues --    1.50673   1.54328   1.55392   1.56929   1.57597
 Alpha virt. eigenvalues --    1.60684   1.63080   1.64221   1.64762   1.67326
 Alpha virt. eigenvalues --    1.68550   1.70755   1.71375   1.72608   1.73827
 Alpha virt. eigenvalues --    1.76126   1.77995   1.79222   1.81029   1.83860
 Alpha virt. eigenvalues --    1.84675   1.85734   1.86634   1.87996   1.89350
 Alpha virt. eigenvalues --    1.90131   1.90823   1.91893   1.92337   1.94780
 Alpha virt. eigenvalues --    1.99590   2.01737   2.03224   2.04523   2.06162
 Alpha virt. eigenvalues --    2.09153   2.12041   2.12595   2.13538   2.14489
 Alpha virt. eigenvalues --    2.15548   2.16383   2.18150   2.19025   2.19255
 Alpha virt. eigenvalues --    2.22190   2.23524   2.24883   2.25503   2.26706
 Alpha virt. eigenvalues --    2.27270   2.27802   2.28641   2.30758   2.32591
 Alpha virt. eigenvalues --    2.33213   2.34708   2.35448   2.38276   2.39477
 Alpha virt. eigenvalues --    2.41693   2.42891   2.46120   2.50353   2.51383
 Alpha virt. eigenvalues --    2.54732   2.55602   2.55954   2.58324   2.59469
 Alpha virt. eigenvalues --    2.61450   2.62579   2.63035   2.64182   2.66724
 Alpha virt. eigenvalues --    2.70375   2.71007   2.71707   2.73982   2.75042
 Alpha virt. eigenvalues --    2.76194   2.78433   2.80100   2.83060   2.83695
 Alpha virt. eigenvalues --    2.84436   2.85283   2.86394   2.87237   2.88740
 Alpha virt. eigenvalues --    2.89999   2.91254   2.91999   2.92091   2.92619
 Alpha virt. eigenvalues --    2.93159   2.93592   2.99604   3.01645   3.15365
 Alpha virt. eigenvalues --    3.20441   3.24970   3.27813   3.30434   3.32028
 Alpha virt. eigenvalues --    3.33018   3.34266   3.37062   3.37177   3.40166
 Alpha virt. eigenvalues --    3.43359   3.44113   3.45566   3.47896   3.49281
 Alpha virt. eigenvalues --    3.52908   3.55528   3.58039   3.59846   3.60991
 Alpha virt. eigenvalues --    3.92797   4.15283   4.24599   4.27157   4.34813
 Alpha virt. eigenvalues --    4.43039   4.50581   4.61058   4.63042   4.65603
 Alpha virt. eigenvalues --    4.69781   4.76691
          Condensed to atoms (all electrons):
               1          2          3          4          5          6
     1  O    8.113168   0.257360  -0.094269   0.002561  -0.000041  -0.000000
     2  C    0.257360   4.380104   0.325346  -0.033663  -0.003129   0.000029
     3  C   -0.094269   0.325346   5.143033   0.339508  -0.035224   0.003470
     4  C    0.002561  -0.033663   0.339508   4.906653   0.380806  -0.037466
     5  C   -0.000041  -0.003129  -0.035224   0.380806   4.911324   0.369773
     6  C   -0.000000   0.000029   0.003470  -0.037466   0.369773   4.899148
     7  C    0.000000  -0.000000   0.000130  -0.004892  -0.038958   0.380389
     8  C   -0.000000   0.000000  -0.000001   0.000157   0.003681  -0.038293
     9  C    0.000000   0.000000   0.000000  -0.000022   0.000170  -0.004867
    10  C   -0.000000  -0.000000   0.000000   0.000000  -0.000002   0.000161
    11  C    0.000000  -0.000000   0.000000  -0.000000   0.000000  -0.000024
    12  O   -0.080098   0.565101  -0.084787   0.004706  -0.003910  -0.000014
    13  H    0.267691  -0.009223   0.011209  -0.000319   0.000010  -0.000000
    14  H    0.001823  -0.026647   0.364821  -0.027834   0.003698  -0.000118
    15  H    0.002866  -0.025795   0.365317  -0.035202  -0.005214   0.000010
    16  H   -0.000048   0.004621  -0.029528   0.373084  -0.040146  -0.004298
    17  H    0.000111  -0.006087  -0.035682   0.382956  -0.035803  -0.003556
    18  H   -0.000062   0.004397  -0.006440  -0.038434   0.378178  -0.028248
    19  H    0.000000  -0.000346  -0.003722  -0.042367   0.375989  -0.037016
    20  H    0.000000  -0.000011   0.000087  -0.007568  -0.037741   0.384340
    21  H   -0.000000  -0.000005  -0.000149   0.004600  -0.032061   0.378290
    22  H   -0.000000   0.000000  -0.000026  -0.000927  -0.004120  -0.041980
    23  H   -0.000000  -0.000003  -0.000076   0.001994  -0.003853  -0.039576
    24  H   -0.000000  -0.000000  -0.000000   0.000002  -0.000152   0.004628
    25  H    0.000000  -0.000000   0.000000   0.000003   0.000020  -0.007607
    26  H    0.000000  -0.000000   0.000000  -0.000001  -0.000030  -0.001011
    27  H   -0.000000   0.000000  -0.000000   0.000005  -0.000071   0.002735
    28  H    0.000000   0.000000   0.000000   0.000000   0.000000   0.000004
    29  H   -0.000000  -0.000000  -0.000000  -0.000000  -0.000000   0.000003
    30  H    0.000000  -0.000000   0.000000   0.000000  -0.000000   0.000000
    31  H    0.000000   0.000000  -0.000000   0.000000   0.000000  -0.000002
    32  H   -0.000000  -0.000000   0.000000  -0.000000  -0.000000   0.000006
               7          8          9         10         11         12
     1  O    0.000000  -0.000000   0.000000  -0.000000   0.000000  -0.080098
     2  C   -0.000000   0.000000   0.000000  -0.000000  -0.000000   0.565101
     3  C    0.000130  -0.000001   0.000000   0.000000   0.000000  -0.084787
     4  C   -0.004892   0.000157  -0.000022   0.000000  -0.000000   0.004706
     5  C   -0.038958   0.003681   0.000170  -0.000002   0.000000  -0.003910
     6  C    0.380389  -0.038293  -0.004867   0.000161  -0.000024  -0.000014
     7  C    4.910253   0.369585  -0.038246   0.003713   0.000151  -0.000001
     8  C    0.369585   4.904465   0.383257  -0.039465  -0.004701   0.000000
     9  C   -0.038246   0.383257   4.894839   0.377443  -0.046023  -0.000000
    10  C    0.003713  -0.039465   0.377443   4.873712   0.376189  -0.000000
    11  C    0.000151  -0.004701  -0.046023   0.376189   4.914850  -0.000000
    12  O   -0.000001   0.000000  -0.000000  -0.000000  -0.000000   8.044819
    13  H    0.000000   0.000000   0.000000   0.000000  -0.000000   0.011372
    14  H   -0.000001  -0.000000  -0.000000  -0.000000  -0.000000   0.000592
    15  H   -0.000013  -0.000000  -0.000000   0.000000  -0.000000   0.001851
    16  H    0.003085  -0.000111   0.000007  -0.000000   0.000000   0.000252
    17  H   -0.000789  -0.000022  -0.000002   0.000000   0.000000   0.005254
    18  H    0.004296  -0.000136   0.000003  -0.000000  -0.000000   0.007062
    19  H   -0.007911   0.000013   0.000004   0.000000   0.000000   0.000120
    20  H   -0.039743  -0.003943   0.002699  -0.000079   0.000008   0.000018
    21  H   -0.042418  -0.003953  -0.001025  -0.000032  -0.000001  -0.000000
    22  H    0.376194  -0.032414   0.004650  -0.000151   0.000004   0.000000
    23  H    0.381152  -0.037327  -0.007653   0.000012   0.000003  -0.000000
    24  H   -0.032439   0.376532  -0.042083  -0.004099  -0.000803  -0.000000
    25  H   -0.037475   0.382213  -0.039425  -0.003981   0.002632   0.000000
    26  H   -0.003925  -0.042143   0.378710  -0.033725   0.005105   0.000000
    27  H   -0.004019  -0.039884   0.382962  -0.037552  -0.007076  -0.000000
    28  H    0.000011  -0.007491  -0.038347   0.384636  -0.040058   0.000000
    29  H   -0.000150   0.004641  -0.032576   0.380905  -0.039656  -0.000000
    30  H   -0.000001   0.000119   0.004373  -0.028238   0.380820   0.000000
    31  H   -0.000022  -0.000719  -0.004559  -0.035820   0.387075  -0.000000
    32  H   -0.000096   0.002746  -0.004903  -0.035027   0.388572  -0.000000
              13         14         15         16         17         18
     1  O    0.267691   0.001823   0.002866  -0.000048   0.000111  -0.000062
     2  C   -0.009223  -0.026647  -0.025795   0.004621  -0.006087   0.004397
     3  C    0.011209   0.364821   0.365317  -0.029528  -0.035682  -0.006440
     4  C   -0.000319  -0.027834  -0.035202   0.373084   0.382956  -0.038434
     5  C    0.000010   0.003698  -0.005214  -0.040146  -0.035803   0.378178
     6  C   -0.000000  -0.000118   0.000010  -0.004298  -0.003556  -0.028248
     7  C    0.000000  -0.000001  -0.000013   0.003085  -0.000789   0.004296
     8  C    0.000000  -0.000000  -0.000000  -0.000111  -0.000022  -0.000136
     9  C    0.000000  -0.000000  -0.000000   0.000007  -0.000002   0.000003
    10  C    0.000000  -0.000000   0.000000  -0.000000   0.000000  -0.000000
    11  C   -0.000000  -0.000000  -0.000000   0.000000   0.000000  -0.000000
    12  O    0.011372   0.000592   0.001851   0.000252   0.005254   0.007062
    13  H    0.401066  -0.000381  -0.000391   0.000004  -0.000012   0.000004
    14  H   -0.000381   0.582015  -0.027402  -0.003966  -0.001552   0.000114
    15  H   -0.000391  -0.027402   0.585740  -0.002225   0.005205  -0.000481
    16  H    0.000004  -0.003966  -0.002225   0.643036  -0.040173   0.006031
    17  H   -0.000012  -0.001552   0.005205  -0.040173   0.612068  -0.005242
    18  H    0.000004   0.000114  -0.000481   0.006031  -0.005242   0.616007
    19  H   -0.000001   0.000011   0.005024  -0.005950   0.005936  -0.039826
    20  H   -0.000000   0.000001   0.000010  -0.000162   0.005400  -0.002933
    21  H    0.000000   0.000002   0.000001  -0.000042   0.000044  -0.004502
    22  H    0.000000   0.000000   0.000002   0.000582   0.000089   0.000071
    23  H    0.000000   0.000005   0.000009   0.001695   0.000483  -0.000068
    24  H    0.000000   0.000000  -0.000000   0.000007  -0.000000   0.000003
    25  H   -0.000000   0.000000   0.000000  -0.000000   0.000001  -0.000009
    26  H   -0.000000   0.000000   0.000000  -0.000005   0.000008  -0.000000
    27  H    0.000000   0.000000  -0.000000   0.000002  -0.000005   0.000006
    28  H   -0.000000  -0.000000  -0.000000   0.000000  -0.000000   0.000000
    29  H    0.000000   0.000000  -0.000000   0.000000   0.000000   0.000000
    30  H   -0.000000   0.000000   0.000000  -0.000000   0.000000  -0.000000
    31  H   -0.000000   0.000000  -0.000000  -0.000000  -0.000000  -0.000000
    32  H    0.000000   0.000000   0.000000   0.000000  -0.000000   0.000000
              19         20         21         22         23         24
     1  O    0.000000   0.000000  -0.000000  -0.000000  -0.000000  -0.000000
     2  C   -0.000346  -0.000011  -0.000005   0.000000  -0.000003  -0.000000
     3  C   -0.003722   0.000087  -0.000149  -0.000026  -0.000076  -0.000000
     4  C   -0.042367  -0.007568   0.004600  -0.000927   0.001994   0.000002
     5  C    0.375989  -0.037741  -0.032061  -0.004120  -0.003853  -0.000152
     6  C   -0.037016   0.384340   0.378290  -0.041980  -0.039576   0.004628
     7  C   -0.007911  -0.039743  -0.042418   0.376194   0.381152  -0.032439
     8  C    0.000013  -0.003943  -0.003953  -0.032414  -0.037327   0.376532
     9  C    0.000004   0.002699  -0.001025   0.004650  -0.007653  -0.042083
    10  C    0.000000  -0.000079  -0.000032  -0.000151   0.000012  -0.004099
    11  C    0.000000   0.000008  -0.000001   0.000004   0.000003  -0.000803
    12  O    0.000120   0.000018  -0.000000   0.000000  -0.000000  -0.000000
    13  H   -0.000001  -0.000000   0.000000   0.000000   0.000000   0.000000
    14  H    0.000011   0.000001   0.000002   0.000000   0.000005   0.000000
    15  H    0.005024   0.000010   0.000001   0.000002   0.000009  -0.000000
    16  H   -0.005950  -0.000162  -0.000042   0.000582   0.001695   0.000007
    17  H    0.005936   0.005400   0.000044   0.000089   0.000483  -0.000000
    18  H   -0.039826  -0.002933  -0.004502   0.000071  -0.000068   0.000003
    19  H    0.658134   0.006047  -0.003133   0.006087  -0.000193  -0.000009
    20  H    0.006047   0.633032  -0.040074   0.006114  -0.006353  -0.000062
    21  H   -0.003133  -0.040074   0.648346  -0.004802   0.006151   0.000072
    22  H    0.006087   0.006114  -0.004802   0.655663  -0.041621  -0.004536
    23  H   -0.000193  -0.006353   0.006151  -0.041621   0.646129  -0.003204
    24  H   -0.000009  -0.000062   0.000072  -0.004536  -0.003204   0.654783
    25  H    0.000002  -0.000173   0.006038  -0.003144   0.006028  -0.041210
    26  H    0.000001   0.000578   0.000106   0.000069   0.006048  -0.004897
    27  H   -0.000001   0.001636   0.000588  -0.000057  -0.000185   0.006171
    28  H   -0.000000  -0.000001   0.000001  -0.000008   0.000001   0.006001
    29  H    0.000000   0.000006  -0.000000   0.000003  -0.000008   0.000058
    30  H    0.000000  -0.000000   0.000000  -0.000000   0.000000  -0.000030
    31  H   -0.000000  -0.000004   0.000007  -0.000000   0.000000   0.000094
    32  H    0.000000   0.000001  -0.000004   0.000007  -0.000001   0.000516
              25         26         27         28         29         30
     1  O    0.000000   0.000000  -0.000000   0.000000  -0.000000   0.000000
     2  C   -0.000000  -0.000000   0.000000   0.000000  -0.000000  -0.000000
     3  C    0.000000   0.000000  -0.000000   0.000000  -0.000000   0.000000
     4  C    0.000003  -0.000001   0.000005   0.000000  -0.000000   0.000000
     5  C    0.000020  -0.000030  -0.000071   0.000000  -0.000000  -0.000000
     6  C   -0.007607  -0.001011   0.002735   0.000004   0.000003   0.000000
     7  C   -0.037475  -0.003925  -0.004019   0.000011  -0.000150  -0.000001
     8  C    0.382213  -0.042143  -0.039884  -0.007491   0.004641   0.000119
     9  C   -0.039425   0.378710   0.382962  -0.038347  -0.032576   0.004373
    10  C   -0.003981  -0.033725  -0.037552   0.384636   0.380905  -0.028238
    11  C    0.002632   0.005105  -0.007076  -0.040058  -0.039656   0.380820
    12  O    0.000000   0.000000  -0.000000   0.000000  -0.000000   0.000000
    13  H   -0.000000  -0.000000   0.000000  -0.000000   0.000000  -0.000000
    14  H    0.000000   0.000000   0.000000  -0.000000   0.000000   0.000000
    15  H    0.000000   0.000000  -0.000000  -0.000000  -0.000000   0.000000
    16  H   -0.000000  -0.000005   0.000002   0.000000   0.000000  -0.000000
    17  H    0.000001   0.000008  -0.000005  -0.000000   0.000000   0.000000
    18  H   -0.000009  -0.000000   0.000006   0.000000   0.000000  -0.000000
    19  H    0.000002   0.000001  -0.000001  -0.000000   0.000000   0.000000
    20  H   -0.000173   0.000578   0.001636  -0.000001   0.000006  -0.000000
    21  H    0.006038   0.000106   0.000588   0.000001  -0.000000   0.000000
    22  H   -0.003144   0.000069  -0.000057  -0.000008   0.000003  -0.000000
    23  H    0.006028   0.006048  -0.000185   0.000001  -0.000008   0.000000
    24  H   -0.041210  -0.004897   0.006171   0.006001   0.000058  -0.000030
    25  H    0.642060   0.006159  -0.006288  -0.000231  -0.000049  -0.000103
    26  H    0.006159   0.651900  -0.040727  -0.003251  -0.004384  -0.000185
    27  H   -0.006288  -0.040727   0.639659   0.006032  -0.003200   0.000008
    28  H   -0.000231  -0.003251   0.006032   0.644259  -0.040195  -0.002637
    29  H   -0.000049  -0.004384  -0.003200  -0.040195   0.647932  -0.004114
    30  H   -0.000103  -0.000185   0.000008  -0.002637  -0.004114   0.615802
    31  H    0.000390   0.000033   0.005423   0.005540  -0.004458  -0.032541
    32  H    0.001624  -0.000020  -0.000146  -0.005206   0.005537  -0.032244
              31         32
     1  O    0.000000  -0.000000
     2  C    0.000000  -0.000000
     3  C   -0.000000   0.000000
     4  C    0.000000  -0.000000
     5  C    0.000000  -0.000000
     6  C   -0.000002   0.000006
     7  C   -0.000022  -0.000096
     8  C   -0.000719   0.002746
     9  C   -0.004559  -0.004903
    10  C   -0.035820  -0.035027
    11  C    0.387075   0.388572
    12  O   -0.000000  -0.000000
    13  H   -0.000000   0.000000
    14  H    0.000000   0.000000
    15  H   -0.000000   0.000000
    16  H   -0.000000   0.000000
    17  H   -0.000000  -0.000000
    18  H   -0.000000   0.000000
    19  H   -0.000000   0.000000
    20  H   -0.000004   0.000001
    21  H    0.000007  -0.000004
    22  H   -0.000000   0.000007
    23  H    0.000000  -0.000001
    24  H    0.000094   0.000516
    25  H    0.000390   0.001624
    26  H    0.000033  -0.000020
    27  H    0.005423  -0.000146
    28  H    0.005540  -0.005206
    29  H   -0.004458   0.005537
    30  H   -0.032541  -0.032244
    31  H    0.611351  -0.033936
    32  H   -0.033936   0.607354
 Mulliken charges:
               1
     1  O   -0.471062
     2  C    0.567950
     3  C   -0.263017
     4  C   -0.168343
     5  C   -0.183195
     6  C   -0.178912
     7  C   -0.177861
     8  C   -0.176806
     9  C   -0.169384
    10  C   -0.178601
    11  C   -0.317066
    12  O   -0.472337
    13  H    0.318970
    14  H    0.134818
    15  H    0.130689
    16  H    0.094247
    17  H    0.111369
    18  H    0.110206
    19  H    0.083108
    20  H    0.098870
    21  H    0.087955
    22  H    0.084251
    23  H    0.090409
    24  H    0.084657
    25  H    0.092524
    26  H    0.085588
    27  H    0.093984
    28  H    0.090942
    29  H    0.089707
    30  H    0.098972
    31  H    0.102147
    32  H    0.105218
 Sum of Mulliken charges =  -0.00000
 Mulliken charges with hydrogens summed into heavy atoms:
               1
     1  O   -0.152092
     2  C    0.567950
     3  C    0.002489
     4  C    0.037273
     5  C    0.010120
     6  C    0.007913
     7  C   -0.003201
     8  C    0.000376
     9  C    0.010188
    10  C    0.002048
    11  C   -0.010728
    12  O   -0.472337
 Electronic spatial extent (au):  <R**2>=           5012.9889
 Charge=             -0.0000 electrons
 Dipole moment (field-independent basis, Debye):
    X=              0.5155    Y=             -1.2587    Z=              0.0126  Tot=              1.3603
 Quadrupole moment (field-independent basis, Debye-Ang):
   XX=            -69.6468   YY=            -78.8909   ZZ=            -75.1778
   XY=             -0.9945   XZ=             -0.8271   YZ=             -0.9643
 Traceless Quadrupole moment (field-independent basis, Debye-Ang):
   XX=              4.9250   YY=             -4.3191   ZZ=             -0.6060
   XY=             -0.9945   XZ=             -0.8271   YZ=             -0.9643
 Octapole moment (field-independent basis, Debye-Ang**2):
  XXX=            105.9158  YYY=             -0.9488  ZZZ=              1.0487  XYY=              6.4659
  XXY=             20.1366  XXZ=             -4.0980  XZZ=             18.2766  YZZ=              1.7335
  YYZ=             -0.8239  XYZ=             -5.1899
 Hexadecapole moment (field-independent basis, Debye-Ang**3):
 XXXX=          -5384.9564 YYYY=           -409.7104 ZZZZ=           -276.3690 XXXY=            233.6000
 XXXZ=            -58.6871 YYYX=              1.0188 YYYZ=             -0.9481 ZZZX=              2.6870
 ZZZY=              0.0703 XXYY=          -1047.0023 XXZZ=          -1009.5676 YYZZ=           -110.6917
 XXYZ=            -19.8046 YYXZ=             -7.0942 ZZXY=              9.4521
 N-N= 6.920400356461D+02 E-N=-2.647468312061D+03  KE= 5.384636541969D+02
 Calling FoFJK, ICntrl=      2127 FMM=F ISym2X=0 I1Cent= 0 IOpClX= 0 NMat=1 NMatS=1 NMatT=0.
 ***** Axes restored to original set *****
 -------------------------------------------------------------------
 Center     Atomic                   Forces (Hartrees/Bohr)
 Number     Number              X              Y              Z
 -------------------------------------------------------------------
      1        8          -0.007869753   -0.007345659    0.000263914
      2        6          -0.010519623   -0.004726139   -0.021609153
      3        6          -0.001082948    0.003110678   -0.011764620
      4        6           0.009754374   -0.001062340    0.000551820
      5        6          -0.003422485    0.006722136   -0.002649752
      6        6          -0.003792774   -0.003453612    0.007677348
      7        6           0.004329700    0.001994110   -0.007746534
      8        6          -0.001087949    0.008581569    0.001662605
      9        6          -0.001114052   -0.008470444   -0.000603096
     10        6           0.007916258    0.001037725   -0.000755048
     11        6          -0.004290128    0.000681758    0.003466686
     12        8          -0.001309333   -0.007109014    0.016849077
     13        1           0.012220430    0.010996198    0.000068331
     14        1          -0.002380394    0.001052539    0.005161606
     15        1           0.002224812   -0.001795966    0.003183035
     16        1          -0.001754910   -0.001922770    0.003340412
     17        1           0.002421911    0.002888356   -0.000946299
     18        1           0.001544818    0.003510264    0.000492043
     19        1          -0.000740825   -0.004619850    0.003125698
     20        1          -0.001671387    0.003566868   -0.001032384
     21        1           0.002340911   -0.002935020   -0.002251133
     22        1           0.002336350   -0.003207107    0.002480781
     23        1          -0.003301997    0.002842012    0.001563647
     24        1          -0.004055345   -0.002341664    0.000496255
     25        1           0.003649297   -0.001116266   -0.002157586
     26        1          -0.002761150    0.001639836    0.003451148
     27        1           0.003480071    0.001848966   -0.001721770
     28        1          -0.002224159   -0.003279456    0.002191626
     29        1          -0.001342132    0.003444385   -0.001490910
     30        1          -0.001551197   -0.000817699   -0.002387878
     31        1           0.002427506    0.002291868   -0.000184850
     32        1           0.001626102   -0.002006262    0.001274982
 -------------------------------------------------------------------
 Cartesian Forces:  Max     0.021609153 RMS     0.005003548

 GradGradGradGradGradGradGradGradGradGradGradGradGradGradGradGradGradGrad
 Berny optimization.
 FormGI is forming the generalized inverse of G from B-inverse, IUseBI=4.
 Internal  Forces:  Max     0.017991171 RMS     0.003084092
 Search for a local minimum.
 Step number   1 out of a maximum of  179
 All quantities printed in internal units (Hartrees-Bohrs-Radians)
 Mixed Optimization -- RFO/linear search
 Second derivative matrix not updated -- first step.
 ITU=  0
     Eigenvalues ---    0.00230   0.00230   0.00230   0.00230   0.00230
     Eigenvalues ---    0.00230   0.00230   0.00276   0.00379   0.00857
     Eigenvalues ---    0.02359   0.03246   0.03252   0.03253   0.03263
     Eigenvalues ---    0.03266   0.03269   0.03282   0.03639   0.04685
     Eigenvalues ---    0.04686   0.04688   0.04690   0.04690   0.04692
     Eigenvalues ---    0.04707   0.05196   0.05355   0.05457   0.08527
     Eigenvalues ---    0.08531   0.08535   0.08539   0.08542   0.08549
     Eigenvalues ---    0.08566   0.09818   0.12360   0.12363   0.12366
     Eigenvalues ---    0.12370   0.12372   0.12376   0.12388   0.13125
     Eigenvalues ---    0.16000   0.16000   0.16000   0.16000   0.21896
     Eigenvalues ---    0.21904   0.21905   0.21908   0.21908   0.21909
     Eigenvalues ---    0.21909   0.22004   0.24998   0.25000   0.27684
     Eigenvalues ---    0.28162   0.28253   0.28266   0.28386   0.28399
     Eigenvalues ---    0.28442   0.28783   0.29495   0.34508   0.34647
     Eigenvalues ---    0.34648   0.34649   0.34652   0.34656   0.34660
     Eigenvalues ---    0.34660   0.34665   0.34704   0.34707   0.34715
     Eigenvalues ---    0.34729   0.34732   0.34734   0.34768   0.34790
     Eigenvalues ---    0.34833   0.34868   0.55111   0.55968   0.94000
 RFO step:  Lambda=-5.25216491D-03 EMin= 2.30000000D-03
 Linear search not attempted -- first point.
 Iteration  1 RMS(Cart)=  0.05763148 RMS(Int)=  0.00058205
 Iteration  2 RMS(Cart)=  0.00097581 RMS(Int)=  0.00011417
 Iteration  3 RMS(Cart)=  0.00000056 RMS(Int)=  0.00011417
 Variable       Old X    -DE/DX   Delta X   Delta X   Delta X     New X
                                 (Linear)    (Quad)   (Total)
    R1        2.55033   0.00296   0.00000   0.00532   0.00532   2.55566
    R2        1.80982   0.01596   0.00000   0.02825   0.02825   1.83807
    R3        2.88982  -0.01049   0.00000  -0.03495  -0.03495   2.85487
    R4        2.31142  -0.01799   0.00000  -0.01903  -0.01903   2.29239
    R5        2.92835  -0.01224   0.00000  -0.04341  -0.04341   2.88494
    R6        2.05890   0.00523   0.00000   0.01476   0.01476   2.07366
    R7        2.05948   0.00373   0.00000   0.01055   0.01055   2.07003
    R8        2.91785  -0.00730   0.00000  -0.02544  -0.02544   2.89242
    R9        2.06109   0.00325   0.00000   0.00922   0.00922   2.07030
   R10        2.06481   0.00205   0.00000   0.00585   0.00585   2.07066
   R11        2.91275  -0.00386   0.00000  -0.01333  -0.01333   2.89942
   R12        2.06251   0.00289   0.00000   0.00823   0.00823   2.07074
   R13        2.06231   0.00512   0.00000   0.01454   0.01454   2.07685
   R14        2.91589  -0.00512   0.00000  -0.01780  -0.01780   2.89809
   R15        2.06158   0.00393   0.00000   0.01115   0.01115   2.07273
   R16        2.06249   0.00422   0.00000   0.01200   0.01200   2.07449
   R17        2.91303  -0.00355   0.00000  -0.01227  -0.01227   2.90075
   R18        2.06244   0.00453   0.00000   0.01287   0.01287   2.07530
   R19        2.06112   0.00451   0.00000   0.01278   0.01278   2.07390
   R20        2.91560  -0.00532   0.00000  -0.01848  -0.01848   2.89712
   R21        2.06230   0.00455   0.00000   0.01293   0.01293   2.07523
   R22        2.06140   0.00422   0.00000   0.01199   0.01199   2.07339
   R23        2.91183  -0.00340   0.00000  -0.01174  -0.01174   2.90009
   R24        2.06251   0.00454   0.00000   0.01291   0.01291   2.07542
   R25        2.06153   0.00416   0.00000   0.01180   0.01180   2.07333
   R26        2.90459  -0.00257   0.00000  -0.00878  -0.00878   2.89581
   R27        2.06237   0.00429   0.00000   0.01219   0.01219   2.07456
   R28        2.06222   0.00392   0.00000   0.01115   0.01115   2.07337
   R29        2.06053   0.00296   0.00000   0.00839   0.00839   2.06892
   R30        2.06118   0.00323   0.00000   0.00917   0.00917   2.07035
   R31        2.06017   0.00282   0.00000   0.00798   0.00798   2.06815
    A1        1.81597   0.00710   0.00000   0.04295   0.04295   1.85893
    A2        1.94964   0.00081   0.00000   0.00309   0.00306   1.95270
    A3        2.14799  -0.00448   0.00000  -0.01762  -0.01765   2.13034
    A4        2.18542   0.00367   0.00000   0.01431   0.01428   2.19970
    A5        2.01882  -0.01022   0.00000  -0.04687  -0.04682   1.97200
    A6        1.84738   0.00320   0.00000   0.01864   0.01917   1.86655
    A7        1.89978   0.00171   0.00000  -0.00938  -0.00951   1.89027
    A8        1.90348   0.00388   0.00000   0.03047   0.03057   1.93405
    A9        1.92449   0.00424   0.00000   0.01702   0.01628   1.94077
   A10        1.86233  -0.00242   0.00000  -0.00718  -0.00751   1.85482
   A11        1.99031  -0.00227   0.00000  -0.01669  -0.01689   1.97342
   A12        1.88818  -0.00074   0.00000  -0.00558  -0.00540   1.88278
   A13        1.91909  -0.00001   0.00000  -0.01445  -0.01478   1.90431
   A14        1.90307   0.00221   0.00000   0.02265   0.02264   1.92571
   A15        1.91590   0.00008   0.00000  -0.00862  -0.00909   1.90681
   A16        1.84105   0.00100   0.00000   0.02668   0.02666   1.86771
   A17        1.99196  -0.00100   0.00000  -0.00883  -0.00890   1.98306
   A18        1.90697  -0.00114   0.00000  -0.01004  -0.00997   1.89700
   A19        1.91668  -0.00032   0.00000  -0.01142  -0.01152   1.90515
   A20        1.88629   0.00168   0.00000   0.01707   0.01703   1.90332
   A21        1.91221   0.00008   0.00000  -0.00334  -0.00353   1.90868
   A22        1.84363   0.00087   0.00000   0.01924   0.01917   1.86280
   A23        1.99388  -0.00001   0.00000  -0.00217  -0.00219   1.99169
   A24        1.90447  -0.00033   0.00000  -0.00481  -0.00484   1.89963
   A25        1.89220   0.00053   0.00000   0.00622   0.00623   1.89843
   A26        1.92172  -0.00012   0.00000  -0.00444  -0.00446   1.91726
   A27        1.90104  -0.00053   0.00000  -0.00330  -0.00330   1.89775
   A28        1.84436   0.00053   0.00000   0.00966   0.00966   1.85402
   A29        1.99033  -0.00049   0.00000  -0.00420  -0.00423   1.98610
   A30        1.90169  -0.00055   0.00000  -0.00379  -0.00377   1.89791
   A31        1.92194   0.00003   0.00000  -0.00446  -0.00450   1.91744
   A32        1.89306   0.00090   0.00000   0.00937   0.00937   1.90243
   A33        1.90437  -0.00021   0.00000  -0.00451  -0.00455   1.89981
   A34        1.84676   0.00039   0.00000   0.00884   0.00884   1.85561
   A35        1.99097  -0.00048   0.00000  -0.00438  -0.00440   1.98656
   A36        1.89372   0.00088   0.00000   0.00922   0.00922   1.90294
   A37        1.90619  -0.00029   0.00000  -0.00535  -0.00540   1.90079
   A38        1.90154  -0.00055   0.00000  -0.00361  -0.00360   1.89794
   A39        1.91995   0.00007   0.00000  -0.00428  -0.00433   1.91562
   A40        1.84567   0.00044   0.00000   0.00973   0.00974   1.85541
   A41        1.99057  -0.00041   0.00000  -0.00390  -0.00392   1.98665
   A42        1.90199  -0.00061   0.00000  -0.00419  -0.00418   1.89781
   A43        1.92056  -0.00002   0.00000  -0.00505  -0.00509   1.91546
   A44        1.89412   0.00093   0.00000   0.00994   0.00994   1.90406
   A45        1.90494  -0.00023   0.00000  -0.00462  -0.00467   1.90028
   A46        1.84592   0.00042   0.00000   0.00907   0.00907   1.85499
   A47        1.99033  -0.00017   0.00000  -0.00292  -0.00296   1.98737
   A48        1.91586  -0.00060   0.00000  -0.01056  -0.01061   1.90525
   A49        1.89824  -0.00011   0.00000   0.00153   0.00154   1.89978
   A50        1.91258   0.00003   0.00000  -0.00391  -0.00399   1.90859
   A51        1.89651   0.00043   0.00000   0.00763   0.00763   1.90414
   A52        1.84449   0.00048   0.00000   0.00950   0.00951   1.85400
   A53        1.93521   0.00030   0.00000   0.00388   0.00388   1.93909
   A54        1.94322  -0.00110   0.00000  -0.00829  -0.00829   1.93492
   A55        1.94968   0.00010   0.00000   0.00012   0.00010   1.94978
   A56        1.87710   0.00052   0.00000   0.00398   0.00399   1.88109
   A57        1.87253   0.00014   0.00000   0.00389   0.00388   1.87641
   A58        1.88281   0.00010   0.00000  -0.00319  -0.00322   1.87959
    D1       -3.13454   0.00041   0.00000   0.01911   0.01900  -3.11554
    D2       -0.00967   0.00029   0.00000   0.00541   0.00552  -0.00415
    D3       -3.01449   0.00043   0.00000   0.01130   0.01099  -3.00350
    D4        1.15912  -0.00052   0.00000  -0.01203  -0.01207   1.14705
    D5       -0.83699  -0.00013   0.00000  -0.00874  -0.00849  -0.84548
    D6        0.14426   0.00065   0.00000   0.02573   0.02548   0.16974
    D7       -1.96531  -0.00030   0.00000   0.00240   0.00242  -1.96289
    D8        2.32175   0.00009   0.00000   0.00568   0.00601   2.32776
    D9        1.23134  -0.00165   0.00000  -0.04693  -0.04679   1.18454
   D10       -2.93134  -0.00086   0.00000  -0.03302  -0.03292  -2.96426
   D11       -0.92904  -0.00008   0.00000  -0.01204  -0.01207  -0.94112
   D12       -2.97284  -0.00141   0.00000  -0.03129  -0.03145  -3.00429
   D13       -0.85233  -0.00062   0.00000  -0.01738  -0.01757  -0.86990
   D14        1.14997   0.00016   0.00000   0.00360   0.00327   1.15323
   D15       -0.93333   0.00038   0.00000  -0.01228  -0.01204  -0.94538
   D16        1.18718   0.00117   0.00000   0.00163   0.00183   1.18901
   D17       -3.09371   0.00196   0.00000   0.02262   0.02267  -3.07104
   D18       -3.11079  -0.00023   0.00000   0.00500   0.00493  -3.10585
   D19       -0.99700   0.00041   0.00000   0.01363   0.01356  -0.98344
   D20        1.01755   0.00063   0.00000   0.02468   0.02455   1.04210
   D21        1.06015   0.00063   0.00000   0.00687   0.00697   1.06712
   D22       -3.10925   0.00127   0.00000   0.01550   0.01559  -3.09366
   D23       -1.09469   0.00149   0.00000   0.02655   0.02658  -1.06811
   D24       -0.94868  -0.00185   0.00000  -0.03296  -0.03291  -0.98159
   D25        1.16510  -0.00121   0.00000  -0.02433  -0.02429   1.14081
   D26       -3.10353  -0.00099   0.00000  -0.01328  -0.01330  -3.11683
   D27       -1.15658   0.00019   0.00000   0.02107   0.02103  -1.13555
   D28        1.00270  -0.00024   0.00000   0.00998   0.00996   1.01266
   D29        3.00339   0.00049   0.00000   0.02219   0.02216   3.02555
   D30        3.00139   0.00109   0.00000   0.02732   0.02736   3.02876
   D31       -1.12252   0.00067   0.00000   0.01624   0.01629  -1.10623
   D32        0.87818   0.00140   0.00000   0.02845   0.02850   0.90667
   D33        1.00068  -0.00089   0.00000  -0.00291  -0.00294   0.99774
   D34       -3.12323  -0.00131   0.00000  -0.01400  -0.01401  -3.13724
   D35       -1.12254  -0.00058   0.00000  -0.00179  -0.00181  -1.12434
   D36       -3.01046  -0.00066   0.00000  -0.01691  -0.01690  -3.02736
   D37       -0.89293  -0.00023   0.00000  -0.01047  -0.01046  -0.90339
   D38        1.12531  -0.00005   0.00000  -0.00449  -0.00449   1.12082
   D39        1.12275  -0.00012   0.00000  -0.00553  -0.00553   1.11722
   D40       -3.04291   0.00031   0.00000   0.00091   0.00091  -3.04200
   D41       -1.02466   0.00049   0.00000   0.00689   0.00688  -1.01778
   D42       -0.89212  -0.00038   0.00000  -0.01279  -0.01278  -0.90490
   D43        1.22540   0.00004   0.00000  -0.00634  -0.00634   1.21906
   D44       -3.03954   0.00022   0.00000  -0.00037  -0.00037  -3.03991
   D45       -1.14359   0.00012   0.00000   0.01505   0.01502  -1.12856
   D46        3.01658   0.00049   0.00000   0.01587   0.01587   3.03245
   D47        1.01261  -0.00035   0.00000   0.00222   0.00221   1.01482
   D48        3.01730   0.00049   0.00000   0.01588   0.01587   3.03317
   D49        0.89428   0.00087   0.00000   0.01670   0.01671   0.91099
   D50       -1.10969   0.00002   0.00000   0.00304   0.00306  -1.10663
   D51        1.01336  -0.00035   0.00000   0.00277   0.00277   1.01612
   D52       -1.10966   0.00003   0.00000   0.00360   0.00361  -1.10605
   D53       -3.11363  -0.00082   0.00000  -0.01006  -0.01004  -3.12367
   D54       -3.02263  -0.00076   0.00000  -0.01785  -0.01783  -3.04047
   D55       -0.90336  -0.00029   0.00000  -0.01077  -0.01076  -0.91412
   D56        1.11328  -0.00014   0.00000  -0.00507  -0.00507   1.10821
   D57       -0.90394  -0.00035   0.00000  -0.01159  -0.01158  -0.91552
   D58        1.21533   0.00012   0.00000  -0.00451  -0.00450   1.21083
   D59       -3.05122   0.00027   0.00000   0.00119   0.00119  -3.05003
   D60        1.11181  -0.00009   0.00000  -0.00433  -0.00434   1.10748
   D61       -3.05210   0.00038   0.00000   0.00275   0.00274  -3.04936
   D62       -1.03546   0.00053   0.00000   0.00845   0.00843  -1.02703
   D63       -1.14672   0.00040   0.00000   0.02080   0.02077  -1.12595
   D64        1.00680  -0.00014   0.00000   0.00541   0.00542   1.01222
   D65        3.01702   0.00005   0.00000   0.01185   0.01184   3.02886
   D66        3.01285   0.00078   0.00000   0.02153   0.02151   3.03436
   D67       -1.11682   0.00024   0.00000   0.00613   0.00616  -1.11066
   D68        0.89341   0.00043   0.00000   0.01257   0.01258   0.90598
   D69        1.00903  -0.00009   0.00000   0.00790   0.00788   1.01691
   D70       -3.12064  -0.00064   0.00000  -0.00750  -0.00747  -3.12811
   D71       -1.11041  -0.00045   0.00000  -0.00106  -0.00106  -1.11147
   D72       -3.07522  -0.00023   0.00000  -0.00963  -0.00962  -3.08484
   D73       -0.98602  -0.00011   0.00000  -0.00750  -0.00751  -0.99353
   D74        1.12025  -0.00068   0.00000  -0.01725  -0.01724   1.10301
   D75        1.05267   0.00065   0.00000   0.00934   0.00934   1.06201
   D76       -3.14132   0.00078   0.00000   0.01147   0.01145  -3.12986
   D77       -1.03504   0.00020   0.00000   0.00171   0.00172  -1.03333
   D78       -0.95482  -0.00017   0.00000  -0.00405  -0.00405  -0.95887
   D79        1.13438  -0.00005   0.00000  -0.00193  -0.00194   1.13244
   D80       -3.04254  -0.00062   0.00000  -0.01168  -0.01168  -3.05421
         Item               Value     Threshold  Converged?
 Maximum Force            0.017991     0.000450     NO 
 RMS     Force            0.003084     0.000300     NO 
 Maximum Displacement     0.303886     0.001800     NO 
 RMS     Displacement     0.057764     0.001200     NO 
 Predicted change in Energy=-2.720950D-03
 GradGradGradGradGradGradGradGradGradGradGradGradGradGradGradGradGradGrad

                          Input orientation:                          
 ---------------------------------------------------------------------
 Center     Atomic      Atomic             Coordinates (Angstroms)
 Number     Number       Type             X           Y           Z
 ---------------------------------------------------------------------
      1          8           0        5.749024   -0.020714    1.390432
      2          6           0        5.015496   -0.238342    0.275289
      3          6           0        3.894309   -1.220467    0.521638
      4          6           0        3.170339   -1.632017   -0.757871
      5          6           0        4.041223   -2.470683   -1.696457
      6          6           0        3.342520   -2.849423   -3.008883
      7          6           0        2.133531   -3.775941   -2.830406
      8          6           0        1.537202   -4.277694   -4.152865
      9          6           0        0.937211   -3.166802   -5.022519
     10          6           0        0.217353   -3.681557   -6.276319
     11          6           0        1.141315   -4.382332   -7.278040
     12          8           0        5.245437    0.334976   -0.768742
     13          1           0        6.426722    0.634954    1.151891
     14          1           0        3.200774   -0.744029    1.226024
     15          1           0        4.308149   -2.091990    1.040397
     16          1           0        2.272307   -2.190332   -0.471396
     17          1           0        2.833878   -0.732193   -1.284913
     18          1           0        4.952931   -1.907820   -1.926085
     19          1           0        4.356861   -3.385024   -1.174730
     20          1           0        3.035277   -1.931304   -3.524364
     21          1           0        4.070057   -3.341983   -3.667047
     22          1           0        2.437544   -4.640026   -2.224614
     23          1           0        1.349668   -3.260549   -2.260889
     24          1           0        0.754789   -5.016903   -3.935227
     25          1           0        2.315405   -4.809148   -4.714809
     26          1           0        0.229970   -2.586346   -4.415013
     27          1           0        1.726122   -2.468107   -5.327812
     28          1           0       -0.582390   -4.370746   -5.975289
     29          1           0       -0.276494   -2.837215   -6.773315
     30          1           0        0.593625   -4.679644   -8.178200
     31          1           0        1.956991   -3.719141   -7.586503
     32          1           0        1.589756   -5.285258   -6.852164
 ---------------------------------------------------------------------
                    Distance matrix (angstroms):
                    1          2          3          4          5
     1  O    0.000000
     2  C    1.352394   0.000000
     3  C    2.373643   1.510734   0.000000
     4  C    3.723052   2.532657   1.526646   0.000000
     5  C    4.295092   3.133741   2.550405   1.530602   0.000000
     6  C    5.757329   4.516899   3.927155   2.564913   1.534305
     7  C    6.707383   5.519571   4.568039   3.157021   2.574651
     8  C    8.160237   6.929894   6.062472   4.603556   3.945802
     9  C    8.612628   7.298976   6.578018   5.052687   4.602408
    10  C   10.138058   8.820513   8.111053   6.585895   6.087966
[...]
 Alpha virt. eigenvalues --    4.20995   4.21914   4.24738   4.29435   4.32823
 Alpha virt. eigenvalues --    4.37897   4.38750   4.40389   4.42492   4.43202
 Alpha virt. eigenvalues --    4.46799   4.47972   4.50469   4.52708   4.55180
 Alpha virt. eigenvalues --    4.56940   4.58066   4.60361   4.62494   4.64681
 Alpha virt. eigenvalues --    4.65290   4.68363   4.71972   4.72548   4.73891
 Alpha virt. eigenvalues --    4.77046   4.78757   4.80370   4.84492   4.87117
 Alpha virt. eigenvalues --    4.96126   4.98446   5.16851   5.18131   5.21285
 Alpha virt. eigenvalues --    5.22249   5.38617   5.40895   5.50438   5.59309
 Alpha virt. eigenvalues --    5.74922   5.84529   5.86473   6.15013   6.19160
 Alpha virt. eigenvalues --    6.32795   6.33629   6.44237   6.48738   6.64413
 Alpha virt. eigenvalues --    6.68766   6.73773   6.81785   6.88196   7.07517
 Alpha virt. eigenvalues --    7.08988   7.26690  22.42180  22.51525  22.53799
 Alpha virt. eigenvalues --   22.54339  22.56717  22.58842  22.59799  22.63311
 Alpha virt. eigenvalues --   22.64790  23.27806  43.93769  44.02013
          Condensed to atoms (all electrons):
               1          2          3          4          5          6
     1  O    7.937239   0.379238  -0.127681   0.010918   0.000850  -0.000020
     2  C    0.379238   4.485598   0.246574  -0.027978   0.006831   0.000473
     3  C   -0.127681   0.246574   5.404206   0.170650  -0.030471   0.005063
     4  C    0.010918  -0.027978   0.170650   5.278874   0.195146  -0.039588
     5  C    0.000850   0.006831  -0.030471   0.195146   5.243387   0.235340
     6  C   -0.000020   0.000473   0.005063  -0.039588   0.235340   5.273730
     7  C    0.000003   0.000130   0.000347   0.006533  -0.029762   0.175467
     8  C   -0.000000   0.000015  -0.000121   0.001752   0.002761  -0.040181
     9  C   -0.000000   0.000001   0.000000  -0.000394   0.001878   0.009916
    10  C   -0.000000  -0.000000  -0.000000   0.000009  -0.000048   0.001319
    11  C    0.000000   0.000000   0.000000  -0.000002   0.000002  -0.000268
    12  O   -0.088559   0.648796  -0.110840   0.021749  -0.005966  -0.000972
    13  H    0.288985  -0.029025   0.020887  -0.002110   0.000147  -0.000012
    14  H    0.003058  -0.019751   0.407901  -0.043095   0.008006  -0.000472
    15  H    0.005690  -0.033283   0.411368  -0.036772  -0.006851   0.000061
    16  H   -0.000128   0.008504  -0.044733   0.432020  -0.037976  -0.009832
    17  H    0.000259  -0.013314  -0.017036   0.417627  -0.058434   0.007550
    18  H   -0.000561   0.005471  -0.008094  -0.038759   0.439631  -0.046109
    19  H   -0.000073  -0.002184   0.002635  -0.064468   0.419294  -0.025180
    20  H    0.000002   0.000172  -0.000305  -0.010686  -0.032106   0.439542
    21  H   -0.000000  -0.000105  -0.000195   0.010053  -0.048643   0.429803
    22  H   -0.000000   0.000031  -0.000171  -0.003267   0.004930  -0.048556
    23  H    0.000000  -0.000088   0.000859   0.001673  -0.008366  -0.059912
    24  H    0.000000  -0.000000  -0.000002   0.000079  -0.000446   0.010331
    25  H    0.000000  -0.000001   0.000007  -0.000074  -0.000172  -0.013448
    26  H   -0.000000  -0.000000   0.000007  -0.000059  -0.000027  -0.004711
    27  H   -0.000000  -0.000001   0.000003   0.000131   0.000682   0.002425
    28  H   -0.000000  -0.000000   0.000000  -0.000000   0.000006  -0.000064
    29  H    0.000000   0.000000  -0.000000   0.000001  -0.000004   0.000082
    30  H   -0.000000  -0.000000  -0.000000   0.000000  -0.000000  -0.000003
    31  H   -0.000000  -0.000000  -0.000000  -0.000000   0.000005   0.000001
    32  H    0.000000   0.000000  -0.000000   0.000000  -0.000001   0.000150
               7          8          9         10         11         12
     1  O    0.000003  -0.000000  -0.000000  -0.000000   0.000000  -0.088559
     2  C    0.000130   0.000015   0.000001  -0.000000   0.000000   0.648796
     3  C    0.000347  -0.000121   0.000000  -0.000000   0.000000  -0.110840
     4  C    0.006533   0.001752  -0.000394   0.000009  -0.000002   0.021749
     5  C   -0.029762   0.002761   0.001878  -0.000048   0.000002  -0.005966
     6  C    0.175467  -0.040181   0.009916   0.001319  -0.000268  -0.000972
     7  C    5.250789   0.260576  -0.046466   0.005621   0.001201   0.000117
     8  C    0.260576   5.240393   0.191056  -0.041821   0.013495   0.000001
     9  C   -0.046466   0.191056   5.284822   0.256054  -0.058427  -0.000000
    10  C    0.005621  -0.041821   0.256054   5.103780   0.255375  -0.000000
    11  C    0.001201   0.013495  -0.058427   0.255375   5.090812   0.000000
    12  O    0.000117   0.000001  -0.000000  -0.000000   0.000000   7.853320
    13  H   -0.000000  -0.000000   0.000000   0.000000  -0.000000   0.006124
    14  H    0.000007  -0.000003   0.000001  -0.000000  -0.000000   0.001704
    15  H    0.000116   0.000002  -0.000001   0.000000  -0.000000   0.002990
    16  H    0.003075   0.000617   0.000127  -0.000002   0.000001   0.000246
    17  H   -0.003175  -0.000113  -0.000030   0.000004  -0.000000   0.004816
    18  H    0.008605  -0.000392   0.000044  -0.000002   0.000001   0.003265
    19  H   -0.014365  -0.000352  -0.000054   0.000005  -0.000000   0.000561
    20  H   -0.058796  -0.007674   0.001832   0.000491   0.000121   0.000502
    21  H   -0.051782   0.006988  -0.003751  -0.000051  -0.000056  -0.000019
    22  H    0.426770  -0.046691   0.009876  -0.000428   0.000095   0.000001
    23  H    0.438620  -0.031350  -0.012435  -0.000083  -0.000086  -0.000004
    24  H   -0.048111   0.426134  -0.044362   0.001777  -0.002599   0.000000
    25  H   -0.030127   0.437009  -0.059964  -0.005835   0.000551  -0.000000
    26  H    0.008655  -0.051592   0.418066  -0.040600   0.009576  -0.000000
    27  H   -0.007897  -0.061512   0.437493  -0.030526  -0.011031  -0.000001
    28  H   -0.000546  -0.014164  -0.040276   0.434442  -0.055408  -0.000000
    29  H   -0.000703   0.012370  -0.060379   0.436920  -0.039014   0.000000
    30  H    0.000025  -0.000300   0.010945  -0.042162   0.413636  -0.000000
    31  H   -0.000277  -0.005593   0.007370  -0.048037   0.405939  -0.000000
    32  H    0.000612   0.007111  -0.013192  -0.040647   0.418585   0.000000
              13         14         15         16         17         18
     1  O    0.288985   0.003058   0.005690  -0.000128   0.000259  -0.000561
     2  C   -0.029025  -0.019751  -0.033283   0.008504  -0.013314   0.005471
     3  C    0.020887   0.407901   0.411368  -0.044733  -0.017036  -0.008094
     4  C   -0.002110  -0.043095  -0.036772   0.432020   0.417627  -0.038759
     5  C    0.000147   0.008006  -0.006851  -0.037976  -0.058434   0.439631
     6  C   -0.000012  -0.000472   0.000061  -0.009832   0.007550  -0.046109
     7  C   -0.000000   0.000007   0.000116   0.003075  -0.003175   0.008605
     8  C   -0.000000  -0.000003   0.000002   0.000617  -0.000113  -0.000392
     9  C    0.000000   0.000001  -0.000001   0.000127  -0.000030   0.000044
    10  C    0.000000  -0.000000   0.000000  -0.000002   0.000004  -0.000002
    11  C   -0.000000  -0.000000  -0.000000   0.000001  -0.000000   0.000001
    12  O    0.006124   0.001704   0.002990   0.000246   0.004816   0.003265
    13  H    0.381974  -0.000605  -0.000854   0.000035  -0.000037   0.000062
    14  H   -0.000605   0.489704  -0.015381  -0.004801  -0.002491   0.000136
    15  H   -0.000854  -0.015381   0.494841  -0.002317   0.005578   0.000103
    16  H    0.000035  -0.004801  -0.002317   0.528606  -0.021906   0.003752
    17  H   -0.000037  -0.002491   0.005578  -0.021906   0.507427  -0.000214
    18  H    0.000062   0.000136   0.000103   0.003752  -0.000214   0.493353
    19  H   -0.000002   0.000108   0.001206  -0.000847   0.006192  -0.018499
    20  H   -0.000000   0.000040  -0.000052   0.001475   0.000477  -0.002169
    21  H    0.000000   0.000006   0.000028  -0.000482   0.000215  -0.007017
    22  H    0.000000   0.000019  -0.000035   0.000783   0.000098   0.000289
    23  H   -0.000000  -0.000031   0.000042  -0.005658   0.000771  -0.000542
    24  H   -0.000000   0.000000   0.000000  -0.000037   0.000011   0.000007
    25  H   -0.000000  -0.000000  -0.000000  -0.000016   0.000003  -0.000013
    26  H    0.000000  -0.000000  -0.000000   0.000059   0.000026   0.000012
    27  H   -0.000000  -0.000000   0.000000  -0.000040   0.000049  -0.000039
    28  H   -0.000000  -0.000000  -0.000000  -0.000000   0.000000  -0.000000
    29  H   -0.000000   0.000000   0.000000   0.000000  -0.000000   0.000000
    30  H    0.000000   0.000000   0.000000  -0.000000  -0.000000  -0.000000
    31  H    0.000000   0.000000  -0.000000  -0.000000   0.000000  -0.000000
    32  H   -0.000000   0.000000   0.000000   0.000000  -0.000000   0.000000
              19         20         21         22         23         24
     1  O   -0.000073   0.000002  -0.000000  -0.000000   0.000000   0.000000
     2  C   -0.002184   0.000172  -0.000105   0.000031  -0.000088  -0.000000
     3  C    0.002635  -0.000305  -0.000195  -0.000171   0.000859  -0.000002
     4  C   -0.064468  -0.010686   0.010053  -0.003267   0.001673   0.000079
     5  C    0.419294  -0.032106  -0.048643   0.004930  -0.008366  -0.000446
     6  C   -0.025180   0.439542   0.429803  -0.048556  -0.059912   0.010331
     7  C   -0.014365  -0.058796  -0.051782   0.426770   0.438620  -0.048111
     8  C   -0.000352  -0.007674   0.006988  -0.046691  -0.031350   0.426134
     9  C   -0.000054   0.001832  -0.003751   0.009876  -0.012435  -0.044362
    10  C    0.000005   0.000491  -0.000051  -0.000428  -0.000083   0.001777
    11  C   -0.000000   0.000121  -0.000056   0.000095  -0.000086  -0.002599
    12  O    0.000561   0.000502  -0.000019   0.000001  -0.000004   0.000000
    13  H   -0.000002  -0.000000   0.000000   0.000000  -0.000000  -0.000000
    14  H    0.000108   0.000040   0.000006   0.000019  -0.000031   0.000000
    15  H    0.001206  -0.000052   0.000028  -0.000035   0.000042   0.000000
    16  H   -0.000847   0.001475  -0.000482   0.000783  -0.005658  -0.000037
    17  H    0.006192   0.000477   0.000215   0.000098   0.000771   0.000011
    18  H   -0.018499  -0.002169  -0.007017   0.000289  -0.000542   0.000007
    19  H    0.545983   0.006018  -0.002866   0.001801   0.001315  -0.000010
    20  H    0.006018   0.519696  -0.019800   0.005390   0.000389  -0.000608
    21  H   -0.002866  -0.019800   0.533150  -0.000444   0.005483   0.000276
    22  H    0.001801   0.005390  -0.000444   0.539192  -0.022530  -0.008015
    23  H    0.001315   0.000389   0.005483  -0.022530   0.536274  -0.002800
    24  H   -0.000010  -0.000608   0.000276  -0.008015  -0.002800   0.539556
    25  H    0.000083   0.001372   0.001445  -0.002916   0.006256  -0.022350
    26  H   -0.000003   0.000713   0.000168   0.000280   0.001240  -0.001215
    27  H   -0.000013  -0.005860   0.000803  -0.000666   0.001417   0.005730
    28  H   -0.000000  -0.000026   0.000004  -0.000033   0.000119   0.002471
    29  H   -0.000000  -0.000030   0.000009   0.000013  -0.000016   0.000141
    30  H    0.000000   0.000000   0.000002  -0.000002   0.000003  -0.000088
    31  H    0.000000   0.000024   0.000033   0.000005   0.000006   0.000182
    32  H   -0.000000  -0.000032   0.000029  -0.000016  -0.000022   0.000531
              25         26         27         28         29         30
     1  O    0.000000  -0.000000  -0.000000  -0.000000   0.000000  -0.000000
     2  C   -0.000001  -0.000000  -0.000001  -0.000000   0.000000  -0.000000
     3  C    0.000007   0.000007   0.000003   0.000000  -0.000000  -0.000000
     4  C   -0.000074  -0.000059   0.000131  -0.000000   0.000001   0.000000
     5  C   -0.000172  -0.000027   0.000682   0.000006  -0.000004  -0.000000
     6  C   -0.013448  -0.004711   0.002425  -0.000064   0.000082  -0.000003
     7  C   -0.030127   0.008655  -0.007897  -0.000546  -0.000703   0.000025
     8  C    0.437009  -0.051592  -0.061512  -0.014164   0.012370  -0.000300
     9  C   -0.059964   0.418066   0.437493  -0.040276  -0.060379   0.010945
    10  C   -0.005835  -0.040600  -0.030526   0.434442   0.436920  -0.042162
    11  C    0.000551   0.009576  -0.011031  -0.055408  -0.039014   0.413636
    12  O   -0.000000  -0.000000  -0.000001  -0.000000   0.000000  -0.000000
    13  H   -0.000000   0.000000  -0.000000  -0.000000  -0.000000   0.000000
    14  H   -0.000000  -0.000000  -0.000000  -0.000000   0.000000   0.000000
    15  H   -0.000000  -0.000000   0.000000  -0.000000   0.000000   0.000000
    16  H   -0.000016   0.000059  -0.000040  -0.000000   0.000000  -0.000000
    17  H    0.000003   0.000026   0.000049   0.000000  -0.000000  -0.000000
    18  H   -0.000013   0.000012  -0.000039  -0.000000   0.000000  -0.000000
    19  H    0.000083  -0.000003  -0.000013  -0.000000  -0.000000   0.000000
    20  H    0.001372   0.000713  -0.005860  -0.000026  -0.000030   0.000000
    21  H    0.001445   0.000168   0.000803   0.000004   0.000009   0.000002
    22  H   -0.002916   0.000280  -0.000666  -0.000033   0.000013  -0.000002
    23  H    0.006256   0.001240   0.001417   0.000119  -0.000016   0.000003
    24  H   -0.022350  -0.001215   0.005730   0.002471   0.000141  -0.000088
    25  H    0.536045   0.006060   0.000005   0.001357  -0.000603   0.000310
    26  H    0.006060   0.547110  -0.022296  -0.002996  -0.007364  -0.000286
    27  H    0.000005  -0.022296   0.533606   0.006780  -0.003120  -0.000175
    28  H    0.001357  -0.002996   0.006780   0.558227  -0.025129  -0.003700
    29  H   -0.000603  -0.007364  -0.003120  -0.025129   0.554681  -0.005738
    30  H    0.000310  -0.000286  -0.000175  -0.003700  -0.005738   0.532884
    31  H    0.000837   0.000125   0.001952   0.007705  -0.003574  -0.023161
    32  H   -0.007057  -0.000628   0.001265  -0.003374   0.006459  -0.024352
              31         32
     1  O   -0.000000   0.000000
     2  C   -0.000000   0.000000
     3  C   -0.000000  -0.000000
     4  C   -0.000000   0.000000
     5  C    0.000005  -0.000001
     6  C    0.000001   0.000150
     7  C   -0.000277   0.000612
     8  C   -0.005593   0.007111
     9  C    0.007370  -0.013192
    10  C   -0.048037  -0.040647
    11  C    0.405939   0.418585
    12  O   -0.000000   0.000000
    13  H    0.000000  -0.000000
    14  H    0.000000   0.000000
    15  H   -0.000000   0.000000
    16  H   -0.000000   0.000000
    17  H    0.000000  -0.000000
    18  H   -0.000000   0.000000
    19  H    0.000000  -0.000000
    20  H    0.000024  -0.000032
    21  H    0.000033   0.000029
    22  H    0.000005  -0.000016
    23  H    0.000006  -0.000022
    24  H    0.000182   0.000531
    25  H    0.000837  -0.007057
    26  H    0.000125  -0.000628
    27  H    0.001952   0.001265
    28  H    0.007705  -0.003374
    29  H   -0.003574   0.006459
    30  H   -0.023161  -0.024352
    31  H    0.549533  -0.030679
    32  H   -0.030679   0.543466
 Mulliken charges:
               1
     1  O   -0.409222
     2  C    0.343895
     3  C   -0.330860
     4  C   -0.279965
     5  C   -0.299623
     6  C   -0.301922
     7  C   -0.295260
     8  C   -0.298419
     9  C   -0.289750
    10  C   -0.245555
    11  C   -0.442498
    12  O   -0.337832
    13  H    0.334432
    14  H    0.175940
    15  H    0.173519
    16  H    0.149477
    17  H    0.165649
    18  H    0.167682
    19  H    0.143715
    20  H    0.159887
    21  H    0.146717
    22  H    0.144196
    23  H    0.149459
    24  H    0.143417
    25  H    0.151237
    26  H    0.139681
    27  H    0.150838
    28  H    0.134606
    29  H    0.135000
    30  H    0.142162
    31  H    0.137605
    32  H    0.141792
 Sum of Mulliken charges =  -0.00000
 Mulliken charges with hydrogens summed into heavy atoms:
               1
     1  O   -0.074790
     2  C    0.343895
     3  C    0.018599
     4  C    0.035162
     5  C    0.011773
     6  C    0.004682
     7  C   -0.001605
     8  C   -0.003765
     9  C    0.000769
    10  C    0.024051
    11  C   -0.020939
    12  O   -0.337832
 Electronic spatial extent (au):  <R**2>=           4875.9134
 Charge=             -0.0000 electrons
 Dipole moment (field-independent basis, Debye):
    X=              0.3837    Y=             -1.3821    Z=              0.0332  Tot=              1.4348
 Quadrupole moment (field-independent basis, Debye-Ang):
   XX=            -72.2697   YY=            -79.9100   ZZ=            -76.6979
   XY=             -1.0717   XZ=             -0.9925   YZ=             -1.3629
 Traceless Quadrupole moment (field-independent basis, Debye-Ang):
   XX=              4.0229   YY=             -3.6175   ZZ=             -0.4054
   XY=             -1.0717   XZ=             -0.9925   YZ=             -1.3629
 Octapole moment (field-independent basis, Debye-Ang**2):
  XXX=             93.1637  YYY=             -1.5413  ZZZ=              1.2950  XYY=              8.0897
  XXY=             21.3696  XXZ=             -2.5003  XZZ=             17.9872  YZZ=              1.2361
  YYZ=             -1.2906  XYZ=             -7.4113
 Hexadecapole moment (field-independent basis, Debye-Ang**3):
 XXXX=          -5403.0819 YYYY=           -433.4201 ZZZZ=           -288.5317 XXXY=            236.1509
 XXXZ=            -69.1031 YYYX=              1.5992 YYYZ=             -1.5594 ZZZX=              1.4134
 ZZZY=             -0.2705 XXYY=          -1024.0541 XXZZ=          -1005.2453 YYZZ=           -115.5810
 XXYZ=            -28.9248 YYXZ=            -11.5194 ZZXY=              9.6736
 N-N= 6.977499725373D+02 E-N=-2.660506502705D+03  KE= 5.405743876377D+02
 Unable to Open any file for archive entry.
 1\1\GINC-NOTCH075\SP\RM062X\def2TZVP\C10H20O2\U6032257\03-Feb-2022\0\\
 # M062X/def2tzvp int=(grid=ultrafine) nmr=giao guess=read geom=check\\
 Ac1.xyz\\0,1\O,0,5.7829043962,-0.021915405,1.3630864788\C,0,4.98663927
 49,-0.1956762498,0.278793713\C,0,3.9170704465,-1.2338808626,0.53543592
 26\C,0,3.1751441433,-1.6599753941,-0.731870309\C,0,4.0429590797,-2.489
 4282125,-1.6853935363\C,0,3.3442812617,-2.8548327869,-3.0009030668\C,0
 ,2.1225038123,-3.7668126783,-2.8331981742\C,0,1.5325652392,-4.26801562
 74,-4.1581692155\C,0,0.9558879789,-3.1567433609,-5.043891694\C,0,0.223
 8420069,-3.6679666808,-6.2923339998\C,0,1.1273335571,-4.4043863942,-7.
 2858960119\O,0,5.1358226324,0.4405593861,-0.7417520942\H,0,6.416784610
 8,0.6738909096,1.1198549154\H,0,3.2277975369,-0.7971983114,1.269650424
 3\H,0,4.3833093855,-2.0888412828,1.0384530741\H,0,2.2887968967,-2.2309
 515789,-0.4361166867\H,0,2.8205749913,-0.7632683891,-1.2524494977\H,0,
 4.9517455106,-1.9220326076,-1.9124558287\H,0,4.3622532751,-3.409309099
 9,-1.1744225915\H,0,3.0534561784,-1.9302278737,-3.5149339382\H,0,4.067
 6345668,-3.3544041734,-3.659271609\H,0,2.4105829925,-4.6318323377,-2.2
 20187656\H,0,1.338598865,-3.241987563,-2.2716362417\H,0,0.7372063648,-
 4.9946844069,-3.9432979348\H,0,2.308097829,-4.8175838718,-4.707057269\
 H,0,0.2606404087,-2.5541830335,-4.4434558435\H,0,1.7579941797,-2.47571
 1872,-5.3562864352\H,0,-0.5961265628,-4.3305011054,-5.9833842751\H,0,-
 0.2469901551,-2.8167284243,-6.7996759662\H,0,0.5740261336,-4.693909369
 8,-8.1848914897\H,0,1.9640088755,-3.7693079988,-7.5992179153\H,0,1.549
 5542881,-5.3159533431,-6.8519252479\\Version=ES64L-G16RevC.01\State=1-
 A\HF=-543.5428949\RMSD=2.367e-09\Dipole=-0.127311,-0.3090468,0.4548876
 \Quadrupole=1.0451781,-2.510409,1.4652309,0.141991,1.5651399,1.7607661
 \PG=C01 [X(C10H20O2)]\\@
 The archive entry for this job was punched.


 THERE IS NOTHING NOBLE IN BEING SUPERIOR TO SOME OTHER MAN.
 TRUE NOBILITY IS BEING SUPERIOR TO YOUR FORMER SELF.

                                                   -- HINDU PROVERB
 Job cpu time:       0 days  0 hours 35 minutes 34.7 seconds.
 Elapsed time:       0 days  0 hours  1 minutes 17.3 seconds.
 File lengths (MBytes):  RWF=    140 Int=      0 D2E=      0 Chk=     24 Scr=      1
 Normal termination of Gaussian 16 at Thu Feb  3 10:25:58 2022.
