 Entering Gaussian System, Link 0=/uufs/chpc.utah.edu/sys/installdir/gaussian16/C01/AVX2/g16/g16
 Input=Ac1_clust-10.com
 Output=Ac1_clust-10.log
 Initial command:
 /uufs/chpc.utah.edu/sys/installdir/gaussian16/C01/AVX2/g16/l1.exe "/scratch/general/lustre/u6032257/3857465/notchpeak.peaks/Gau-129689.inp" -scrdir="/scratch/general/lustre/u6032257/3857465/notchpeak.peaks/"
 Entering Link 1 = /uufs/chpc.utah.edu/sys/installdir/gaussian16/C01/AVX2/g16/l1.exe PID=    129691.
  
 Copyright (c) 1988-2019, Gaussian, Inc.  All Rights Reserved.
  
 This is part of the Gaussian(R) 16 program.  It is based on
 the Gaussian(R) 09 system (copyright 2009, Gaussian, Inc.),
 the Gaussian(R) 03 system (copyright 2003, Gaussian, Inc.),
 the Gaussian(R) 98 system (copyright 1998, Gaussian, Inc.),
 the Gaussian(R) 94 system (copyright 1995, Gaussian, Inc.),
 the Gaussian 92(TM) system (copyright 1992, Gaussian, Inc.),
 the Gaussian 90(TM) system (copyright 1990, Gaussian, Inc.),
 the Gaussian 88(TM) system (copyright 1988, Gaussian, Inc.),
 the Gaussian 86(TM) system (copyright 1986, Carnegie Mellon
 University), and the Gaussian 82(TM) system (copyright 1983,
 Carnegie Mellon University). Gaussian is a federally registered
 trademark of Gaussian, Inc.
  
 This software contains proprietary and confidential information,
 including trade secrets, belonging to Gaussian, Inc.
  
 This software is provided under written license and may be
 used, copied, transmitted, or stored only in accord with that
 written license.
  
 The following legend is applicable only to US Government
 contracts under FAR:
  
                    RESTRICTED RIGHTS LEGEND
  
 Use, reproduction and disclosure by the US Government is
 subject to restrictions as set forth in subparagraphs (a)
 and (c) of the Commercial Computer Software - Restricted
 Rights clause in FAR 52.227-19.
  
 Gaussian, Inc.
 340 Quinnipiac St., Bldg. 40, Wallingford CT 06492
  
  
 ---------------------------------------------------------------
 Warning -- This program may not be used in any manner that
 competes with the business of Gaussian, Inc. or will provide
 assistance to any competitor of Gaussian, Inc.  The licensee
 of this program is prohibited from giving any competitor of
 Gaussian, Inc. access to this program.  By using this program,
 the user acknowledges that Gaussian, Inc. is engaged in the
 business of creating and licensing software in the field of
 computational chemistry and represents and warrants to the
 licensee that it is not a competitor of Gaussian, Inc. and that
 it will not use this program in any manner prohibited above.
 ---------------------------------------------------------------
  

 Cite this work as:
 Gaussian 16, Revision C.01,
 M. J. Frisch, G. W. Trucks, H. B. Schlegel, G. E. Scuseria, 
 M. A. Robb, J. R. Cheeseman, G. Scalmani, V. Barone, 
 G. A. Petersson, H. Nakatsuji, X. Li, M. Caricato, A. V. Marenich, 
 J. Bloino, B. G. Janesko, R. Gomperts, B. Mennucci, H. P. Hratchian, 
 J. V. Ortiz, A. F. Izmaylov, J. L. Sonnenberg, D. Williams-Young, 
 F. Ding, F. Lipparini, F. Egidi, J. Goings, B. Peng, A. Petrone, 
 T. Henderson, D. Ranasinghe, V. G. Zakrzewski, J. Gao, N. Rega, 
 G. Zheng, W. Liang, M. Hada, M. Ehara, K. Toyota, R. Fukuda, 
 J. Hasegawa, M. Ishida, T. Nakajima, Y. Honda, O. Kitao, H. Nakai, 
 T. Vreven, K. Throssell, J. A. Montgomery, Jr., J. E. Peralta, 
 F. Ogliaro, M. J. Bearpark, J. J. Heyd, E. N. Brothers, K. N. Kudin, 
 V. N. Staroverov, T. A. Keith, R. Kobayashi, J. Normand, 
 K. Raghavachari, A. P. Rendell, J. C. Burant, S. S. Iyengar, 
 J. Tomasi, M. Cossi, J. M. Millam, M. Klene, C. Adamo, R. Cammi, 
 J. W. Ochterski, R. L. Martin, K. Morokuma, O. Farkas, 
 J. B. Foresman, and D. J. Fox, Gaussian, Inc., Wallingford CT, 2019.
 
 ******************************************
 Gaussian 16:  ES64L-G16RevC.01  3-Jul-2019
                 3-Feb-2022 
 ******************************************
 %NProcShared=32
 Will use up to   32 processors via shared memory.
 %mem=16GB
 %chk=Ac1_clust-10.chk
 ----------------------------------------------------------------------
 # B3LYP/6-31G(d,p) empiricaldispersion=GD3BJ int=(grid=ultrafine) opt 
 freq=noraman
 ----------------------------------------------------------------------
 1/18=20,19=15,26=4,38=1/1,3;
 2/9=110,12=2,17=6,18=5,40=1/2;
 3/5=1,6=6,7=101,11=2,25=1,30=1,71=1,74=-5,75=-5,124=41/1,2,3;
 4//1;
 5/5=2,38=5/2;
 6/7=2,8=2,9=2,10=2,28=1/1;
 7//1,2,3,16;
 1/18=20,19=15,26=4/3(2);
 2/9=110/2;
 99//99;
 2/9=110/2;
 3/5=1,6=6,7=101,11=2,25=1,30=1,71=1,74=-5,75=-5,124=41/1,2,3;
 4/5=5,16=3,69=1/1;
 5/5=2,38=5/2;
 7//1,2,3,16;
 1/18=20,19=15,26=4/3(-5);
 2/9=110/2;
 6/7=2,8=2,9=2,10=2,19=2,28=1/1;
 99/9=1/99;
 -------
 Ac1.xyz
 -------
 Symbolic Z-matrix:
 Charge =  0 Multiplicity = 1
 O                     5.2894   -0.0571   -1.4723 
 C                     5.0504   -0.4377   -0.1987 
 C                     3.7412   -1.2057   -0.0544 
 C                     3.7558   -2.5823   -0.7622 
 C                     2.5067   -3.4434   -0.4729 
 C                     1.1733   -2.9132   -1.0513 
 C                     0.8075   -3.4193   -2.4634 
 C                     1.7768   -2.9949   -3.5816 
 C                     1.2534   -3.3405   -4.989 
 C                     2.1672   -2.8635   -6.1344 
 C                     3.5368   -3.56     -6.1773 
 O                     5.8003   -0.1809    0.7315 
 H                     6.124     0.4099   -1.4256 
 H                     2.9451   -0.5678   -0.4347 
 H                     3.5597   -1.3342    1.0128 
 H                     3.8808   -2.4426   -1.836 
 H                     4.6336   -3.1458   -0.4369 
 H                     2.6759   -4.4608   -0.8302 
 H                     2.4059   -3.5412    0.6096 
 H                     0.3708   -3.2234   -0.3798 
 H                     1.145    -1.8237   -1.0306 
 H                     0.7235   -4.5074   -2.4503 
 H                    -0.1917   -3.0516   -2.7041 
 H                     2.7346   -3.491    -3.4281 
 H                     1.9652   -1.9218   -3.5162 
 H                     1.0991   -4.418    -5.0703 
 H                     0.2686   -2.8894   -5.1229 
 H                     1.6582   -3.0358   -7.0843 
 H                     2.3087   -1.7834   -6.0672 
 H                     4.1341   -3.3307   -5.2945 
 H                     3.4297   -4.6437   -6.2374 
 H                     4.1093   -3.2374   -7.0475 
 

 GradGradGradGradGradGradGradGradGradGradGradGradGradGradGradGradGradGrad
 Berny optimization.
 Initialization pass.
                           ----------------------------
                           !    Initial Parameters    !
                           ! (Angstroms and Degrees)  !
 --------------------------                            --------------------------
 ! Name  Definition              Value          Derivative Info.                !
 --------------------------------------------------------------------------------
 ! R1    R(1,2)                  1.3506         estimate D2E/DX2                !
 ! R2    R(1,13)                 0.9575         estimate D2E/DX2                !
 ! R3    R(2,3)                  1.5247         estimate D2E/DX2                !
 ! R4    R(2,12)                 1.2221         estimate D2E/DX2                !
 ! R5    R(3,4)                  1.548          estimate D2E/DX2                !
 ! R6    R(3,14)                 1.0887         estimate D2E/DX2                !
 ! R7    R(3,15)                 1.0901         estimate D2E/DX2                !
 ! R8    R(4,5)                  1.5445         estimate D2E/DX2                !
 ! R9    R(4,16)                 1.09           estimate D2E/DX2                !
 ! R10   R(4,17)                 1.0927         estimate D2E/DX2                !
 ! R11   R(5,6)                  1.5471         estimate D2E/DX2                !
 ! R12   R(5,18)                 1.0915         estimate D2E/DX2                !
 ! R13   R(5,19)                 1.0916         estimate D2E/DX2                !
 ! R14   R(6,7)                  1.544          estimate D2E/DX2                !
 ! R15   R(6,20)                 1.0914         estimate D2E/DX2                !
 ! R16   R(6,21)                 1.0901         estimate D2E/DX2                !
 ! R17   R(7,8)                  1.5395         estimate D2E/DX2                !
 ! R18   R(7,22)                 1.0914         estimate D2E/DX2                !
 ! R19   R(7,23)                 1.0916         estimate D2E/DX2                !
 ! R20   R(8,9)                  1.5408         estimate D2E/DX2                !
 ! R21   R(8,24)                 1.0895         estimate D2E/DX2                !
 ! R22   R(8,25)                 1.0915         estimate D2E/DX2                !
 ! R23   R(9,10)                 1.5409         estimate D2E/DX2                !
 ! R24   R(9,26)                 1.0915         estimate D2E/DX2                !
 ! R25   R(9,27)                 1.0914         estimate D2E/DX2                !
 ! R26   R(10,11)                1.5371         estimate D2E/DX2                !
 ! R27   R(10,28)                1.0914         estimate D2E/DX2                !
 ! R28   R(10,29)                1.0914         estimate D2E/DX2                !
 ! R29   R(11,30)                1.0903         estimate D2E/DX2                !
 ! R30   R(11,31)                1.0906         estimate D2E/DX2                !
 ! R31   R(11,32)                1.0904         estimate D2E/DX2                !
 ! A1    A(2,1,13)             104.2231         estimate D2E/DX2                !
 ! A2    A(1,2,3)              112.529          estimate D2E/DX2                !
 ! A3    A(1,2,12)             123.3643         estimate D2E/DX2                !
 ! A4    A(3,2,12)             124.1039         estimate D2E/DX2                !
 ! A5    A(2,3,4)              113.3641         estimate D2E/DX2                !
 ! A6    A(2,3,14)             107.4389         estimate D2E/DX2                !
 ! A7    A(2,3,15)             107.1571         estimate D2E/DX2                !
 ! A8    A(4,3,14)             111.6064         estimate D2E/DX2                !
 ! A9    A(4,3,15)             110.1434         estimate D2E/DX2                !
 ! A10   A(14,3,15)            106.8151         estimate D2E/DX2                !
 ! A11   A(3,4,5)              113.7367         estimate D2E/DX2                !
 ! A12   A(3,4,16)             109.7271         estimate D2E/DX2                !
 ! A13   A(3,4,17)             109.2732         estimate D2E/DX2                !
 ! A14   A(5,4,16)             110.4089         estimate D2E/DX2                !
 ! A15   A(5,4,17)             107.844          estimate D2E/DX2                !
 ! A16   A(16,4,17)            105.5007         estimate D2E/DX2                !
 ! A17   A(4,5,6)              115.8445         estimate D2E/DX2                !
 ! A18   A(4,5,18)             109.4506         estimate D2E/DX2                !
 ! A19   A(4,5,19)             108.0827         estimate D2E/DX2                !
 ! A20   A(6,5,18)             109.3083         estimate D2E/DX2                !
 ! A21   A(6,5,19)             108.7756         estimate D2E/DX2                !
 ! A22   A(18,5,19)            104.7988         estimate D2E/DX2                !
 ! A23   A(5,6,7)              115.707          estimate D2E/DX2                !
 ! A24   A(5,6,20)             107.8361         estimate D2E/DX2                !
 ! A25   A(5,6,21)             110.965          estimate D2E/DX2                !
 ! A26   A(7,6,20)             107.1777         estimate D2E/DX2                !
 ! A27   A(7,6,21)             109.8056         estimate D2E/DX2                !
 ! A28   A(20,6,21)            104.6731         estimate D2E/DX2                !
 ! A29   A(6,7,8)              115.1355         estimate D2E/DX2                !
 ! A30   A(6,7,22)             109.5144         estimate D2E/DX2                !
 ! A31   A(6,7,23)             107.9459         estimate D2E/DX2                !
 ! A32   A(8,7,22)             109.3911         estimate D2E/DX2                !
 ! A33   A(8,7,23)             108.8635         estimate D2E/DX2                !
 ! A34   A(22,7,23)            105.5467         estimate D2E/DX2                !
 ! A35   A(7,8,9)              112.8138         estimate D2E/DX2                !
 ! A36   A(7,8,24)             109.0047         estimate D2E/DX2                !
 ! A37   A(7,8,25)             109.6451         estimate D2E/DX2                !
 ! A38   A(9,8,24)             108.9763         estimate D2E/DX2                !
 ! A39   A(9,8,25)             109.5046         estimate D2E/DX2                !
 ! A40   A(24,8,25)            106.7076         estimate D2E/DX2                !
 ! A41   A(8,9,10)             114.0839         estimate D2E/DX2                !
 ! A42   A(8,9,26)             109.7225         estimate D2E/DX2                !
 ! A43   A(8,9,27)             109.0172         estimate D2E/DX2                !
 ! A44   A(10,9,26)            109.5141         estimate D2E/DX2                !
 ! A45   A(10,9,27)            108.4176         estimate D2E/DX2                !
 ! A46   A(26,9,27)            105.7421         estimate D2E/DX2                !
 ! A47   A(9,10,11)            114.1336         estimate D2E/DX2                !
 ! A48   A(9,10,28)            108.7547         estimate D2E/DX2                !
 ! A49   A(9,10,29)            109.7224         estimate D2E/DX2                !
 ! A50   A(11,10,28)           108.6466         estimate D2E/DX2                !
 ! A51   A(11,10,29)           109.5498         estimate D2E/DX2                !
 ! A52   A(28,10,29)           105.6821         estimate D2E/DX2                !
 ! A53   A(10,11,30)           111.7306         estimate D2E/DX2                !
 ! A54   A(10,11,31)           111.3631         estimate D2E/DX2                !
 ! A55   A(10,11,32)           110.8557         estimate D2E/DX2                !
 ! A56   A(30,11,31)           107.9024         estimate D2E/DX2                !
 ! A57   A(30,11,32)           107.2366         estimate D2E/DX2                !
 ! A58   A(31,11,32)           107.5502         estimate D2E/DX2                !
 ! D1    D(13,1,2,3)           179.7806         estimate D2E/DX2                !
 ! D2    D(13,1,2,12)            0.3644         estimate D2E/DX2                !
 ! D3    D(1,2,3,4)             66.7889         estimate D2E/DX2                !
 ! D4    D(1,2,3,14)           -57.0007         estimate D2E/DX2                !
 ! D5    D(1,2,3,15)          -171.4774         estimate D2E/DX2                !
 ! D6    D(12,2,3,4)          -113.8            estimate D2E/DX2                !
 ! D7    D(12,2,3,14)          122.4104         estimate D2E/DX2                !
 ! D8    D(12,2,3,15)            7.9338         estimate D2E/DX2                !
 ! D9    D(2,3,4,5)            172.617          estimate D2E/DX2                !
 ! D10   D(2,3,4,16)           -63.1628         estimate D2E/DX2                !
 ! D11   D(2,3,4,17)            52.061          estimate D2E/DX2                !
 ! D12   D(14,3,4,5)           -65.9015         estimate D2E/DX2                !
 ! D13   D(14,3,4,16)           58.3187         estimate D2E/DX2                !
 ! D14   D(14,3,4,17)          173.5425         estimate D2E/DX2                !
 ! D15   D(15,3,4,5)            52.5682         estimate D2E/DX2                !
 ! D16   D(15,3,4,16)          176.7884         estimate D2E/DX2                !
 ! D17   D(15,3,4,17)          -67.9878         estimate D2E/DX2                !
 ! D18   D(3,4,5,6)             67.3381         estimate D2E/DX2                !
 ! D19   D(3,4,5,18)          -168.5583         estimate D2E/DX2                !
 ! D20   D(3,4,5,19)           -54.9633         estimate D2E/DX2                !
 ! D21   D(16,4,5,6)           -56.5134         estimate D2E/DX2                !
 ! D22   D(16,4,5,18)           67.5903         estimate D2E/DX2                !
 ! D23   D(16,4,5,19)         -178.8147         estimate D2E/DX2                !
 ! D24   D(17,4,5,6)          -171.306          estimate D2E/DX2                !
 ! D25   D(17,4,5,18)          -47.2023         estimate D2E/DX2                !
 ! D26   D(17,4,5,19)           66.3927         estimate D2E/DX2                !
 ! D27   D(4,5,6,7)             90.9859         estimate D2E/DX2                !
 ! D28   D(4,5,6,20)          -149.0651         estimate D2E/DX2                !
 ! D29   D(4,5,6,21)           -34.9706         estimate D2E/DX2                !
 ! D30   D(18,5,6,7)           -33.1916         estimate D2E/DX2                !
 ! D31   D(18,5,6,20)           86.7574         estimate D2E/DX2                !
 ! D32   D(18,5,6,21)         -159.148          estimate D2E/DX2                !
 ! D33   D(19,5,6,7)          -147.0806         estimate D2E/DX2                !
 ! D34   D(19,5,6,20)          -27.1316         estimate D2E/DX2                !
 ! D35   D(19,5,6,21)           86.9629         estimate D2E/DX2                !
 ! D36   D(5,6,7,8)            -63.7425         estimate D2E/DX2                !
 ! D37   D(5,6,7,22)            59.994          estimate D2E/DX2                !
 ! D38   D(5,6,7,23)           174.4304         estimate D2E/DX2                !
 ! D39   D(20,6,7,8)           175.9506         estimate D2E/DX2                !
 ! D40   D(20,6,7,22)          -60.3129         estimate D2E/DX2                !
 ! D41   D(20,6,7,23)           54.1235         estimate D2E/DX2                !
 ! D42   D(21,6,7,8)            62.8015         estimate D2E/DX2                !
 ! D43   D(21,6,7,22)         -173.4619         estimate D2E/DX2                !
 ! D44   D(21,6,7,23)          -59.0255         estimate D2E/DX2                !
 ! D45   D(6,7,8,9)           -171.2034         estimate D2E/DX2                !
 ! D46   D(6,7,8,24)            67.5991         estimate D2E/DX2                !
 ! D47   D(6,7,8,25)           -48.8755         estimate D2E/DX2                !
 ! D48   D(22,7,8,9)            64.995          estimate D2E/DX2                !
 ! D49   D(22,7,8,24)          -56.2025         estimate D2E/DX2                !
 ! D50   D(22,7,8,25)         -172.6771         estimate D2E/DX2                !
 ! D51   D(23,7,8,9)           -49.873          estimate D2E/DX2                !
 ! D52   D(23,7,8,24)         -171.0705         estimate D2E/DX2                !
 ! D53   D(23,7,8,25)           72.4548         estimate D2E/DX2                !
 ! D54   D(7,8,9,10)           177.0145         estimate D2E/DX2                !
 ! D55   D(7,8,9,26)           -59.6917         estimate D2E/DX2                !
 ! D56   D(7,8,9,27)            55.6753         estimate D2E/DX2                !
 ! D57   D(24,8,9,10)          -61.7719         estimate D2E/DX2                !
 ! D58   D(24,8,9,26)           61.5219         estimate D2E/DX2                !
 ! D59   D(24,8,9,27)          176.8889         estimate D2E/DX2                !
 ! D60   D(25,8,9,10)           54.6078         estimate D2E/DX2                !
 ! D61   D(25,8,9,26)          177.9016         estimate D2E/DX2                !
 ! D62   D(25,8,9,27)          -66.7315         estimate D2E/DX2                !
 ! D63   D(8,9,10,11)           65.7351         estimate D2E/DX2                !
 ! D64   D(8,9,10,28)         -172.7901         estimate D2E/DX2                !
 ! D65   D(8,9,10,29)          -57.6414         estimate D2E/DX2                !
 ! D66   D(26,9,10,11)         -57.6715         estimate D2E/DX2                !
 ! D67   D(26,9,10,28)          63.8032         estimate D2E/DX2                !
 ! D68   D(26,9,10,29)         178.9519         estimate D2E/DX2                !
 ! D69   D(27,9,10,11)        -172.5942         estimate D2E/DX2                !
 ! D70   D(27,9,10,28)         -51.1194         estimate D2E/DX2                !
 ! D71   D(27,9,10,29)          64.0293         estimate D2E/DX2                !
 ! D72   D(9,10,11,30)         -64.6272         estimate D2E/DX2                !
 ! D73   D(9,10,11,31)          56.1184         estimate D2E/DX2                !
 ! D74   D(9,10,11,32)         175.8218         estimate D2E/DX2                !
 ! D75   D(28,10,11,30)        173.8383         estimate D2E/DX2                !
 ! D76   D(28,10,11,31)        -65.4161         estimate D2E/DX2                !
 ! D77   D(28,10,11,32)         54.2874         estimate D2E/DX2                !
 ! D78   D(29,10,11,30)         58.8426         estimate D2E/DX2                !
 ! D79   D(29,10,11,31)        179.5882         estimate D2E/DX2                !
 ! D80   D(29,10,11,32)        -60.7083         estimate D2E/DX2                !
 --------------------------------------------------------------------------------
 Trust Radius=3.00D-01 FncErr=1.00D-07 GrdErr=1.00D-06 EigMax=2.50D+02 EigMin=1.00D-04
 Number of steps in this run=    179 maximum allowed number of steps=    192.
 GradGradGradGradGradGradGradGradGradGradGradGradGradGradGradGradGradGrad

                          Input orientation:                          
 ---------------------------------------------------------------------
 Center     Atomic      Atomic             Coordinates (Angstroms)
 Number     Number       Type             X           Y           Z
 ---------------------------------------------------------------------
      1          8           0        5.289400   -0.057100   -1.472300
      2          6           0        5.050400   -0.437700   -0.198700
      3          6           0        3.741200   -1.205700   -0.054400
      4          6           0        3.755800   -2.582300   -0.762200
      5          6           0        2.506700   -3.443400   -0.472900
      6          6           0        1.173300   -2.913200   -1.051300
      7          6           0        0.807500   -3.419300   -2.463400
      8          6           0        1.776800   -2.994900   -3.581600
      9          6           0        1.253400   -3.340500   -4.989000
     10          6           0        2.167200   -2.863500   -6.134400
     11          6           0        3.536800   -3.560000   -6.177300
     12          8           0        5.800300   -0.180900    0.731500
     13          1           0        6.124000    0.409900   -1.425600
     14          1           0        2.945100   -0.567800   -0.434700
     15          1           0        3.559700   -1.334200    1.012800
     16          1           0        3.880800   -2.442600   -1.836000
     17          1           0        4.633600   -3.145800   -0.436900
     18          1           0        2.675900   -4.460800   -0.830200
     19          1           0        2.405900   -3.541200    0.609600
     20          1           0        0.370800   -3.223400   -0.379800
     21          1           0        1.145000   -1.823700   -1.030600
     22          1           0        0.723500   -4.507400   -2.450300
     23          1           0       -0.191700   -3.051600   -2.704100
     24          1           0        2.734600   -3.491000   -3.428100
     25          1           0        1.965200   -1.921800   -3.516200
     26          1           0        1.099100   -4.418000   -5.070300
     27          1           0        0.268600   -2.889400   -5.122900
     28          1           0        1.658200   -3.035800   -7.084300
     29          1           0        2.308700   -1.783400   -6.067200
     30          1           0        4.134100   -3.330700   -5.294500
     31          1           0        3.429700   -4.643700   -6.237400
     32          1           0        4.109300   -3.237400   -7.047500
 ---------------------------------------------------------------------
                    Distance matrix (angstroms):
                    1          2          3          4          5
     1  O    0.000000
     2  C    1.350568   0.000000
     3  C    2.393041   1.524681   0.000000
     4  C    3.038553   2.567651   1.547973   0.000000
     5  C    4.495470   3.947129   2.589678   1.544486   0.000000
     6  C    5.027607   4.678347   3.240907   2.619614   1.547131
     7  C    5.689824   5.658711   4.394303   3.505299   2.617241
     8  C    5.041644   5.357214   4.416021   3.469250   3.224581
     9  C    6.279904   6.766863   5.924255   4.970182   4.687911
    10  C    6.273690   7.030639   6.495551   5.609212   5.701239
    11  C    6.122005   6.912554   6.563110   5.507011   5.797834
    12  O    2.265630   1.222116   2.430586   3.489676   4.789811
    13  H    0.957511   1.837478   3.188744   3.873207   5.370328
    14  H    2.614033   2.122477   1.088724   2.196065   2.909077
    15  H    3.286118   2.119819   1.090124   2.178723   2.786546
    16  H    2.794108   2.840482   2.173363   1.090040   2.178943
    17  H    3.322980   2.750321   2.169487   1.092651   2.147921
    18  H    5.160935   4.714062   3.511753   2.167849   1.091510
    19  H    4.978738   4.156734   2.771007   2.150245   1.091573
    20  H    5.950768   5.448998   3.941649   3.466333   2.149218
    21  H    4.526812   4.226725   2.841680   2.731994   2.188306
    22  H    6.450511   6.352497   5.074256   3.968694   2.867405
    23  H    6.366068   6.370959   5.088807   4.424248   3.523226
    24  H    4.705723   5.011446   4.197343   2.995932   2.964357
    25  H    4.324921   4.767265   3.956139   3.350675   3.445310
    26  H    7.037163   7.428866   6.516043   5.384011   4.905840
    27  H    6.823286   7.288634   6.370517   5.592010   5.190232
    28  H    7.317979   8.103618   7.556960   6.676416   6.678076
    29  H    5.742629   6.615672   6.208024   5.556561   5.838750
    30  H    5.163370   5.930955   5.668213   4.609225   5.090084
    31  H    6.870339   7.535450   7.081410   5.859482   5.960043
    32  H    6.526086   7.458556   7.291553   6.329227   6.770238
                    6          7          8          9         10
     6  C    0.000000
     7  C    1.544012   0.000000
     8  C    2.602557   1.539490   0.000000
     9  C    3.961626   2.565871   1.540831   0.000000
    10  C    5.179596   3.953978   2.585820   1.540941   0.000000
    11  C    5.681581   4.611066   3.186628   2.583438   1.537126
    12  O    5.661534   6.754456   6.535287   7.961249   8.218050
    13  H    5.974322   6.633624   5.927828   7.105355   6.967368
    14  H    3.003393   4.100733   4.142308   5.593868   6.193702
    15  H    3.528265   4.899614   5.200497   6.735419   7.440449
    16  H    2.857932   3.285232   2.789081   4.201293   4.646485
    17  H    3.522111   4.338265   4.251260   5.673207   6.214847
    18  H    2.168354   2.691279   3.244603   4.535879   5.562794
    19  H    2.161545   3.465988   4.273215   5.719516   6.782167
    20  H    1.091395   2.137866   3.504365   4.694403   6.039205
    21  H    1.090064   2.170890   2.877235   4.240444   5.307999
    22  H    2.168178   1.091416   2.162623   2.843844   4.284772
    23  H    2.148052   1.091577   2.155972   2.718924   4.167343
    24  H    2.901842   2.156270   1.089522   2.157084   2.835447
    25  H    2.772312   2.165909   1.091474   2.165296   2.789727
    26  H    4.292119   2.806842   2.168114   1.091524   2.165552
    27  H    4.170968   2.764805   2.159028   1.091445   2.151391
    28  H    6.053697   4.714179   3.504946   2.155687   1.091365
    29  H    5.265438   4.232865   2.815823   2.168118   1.091400
    30  H    5.190895   4.369124   2.933198   2.896871   2.189156
    31  H    5.914525   4.755856   3.536084   2.827210   2.184863
    32  H    6.684281   5.652340   4.184713   3.521962   2.178372
                   11         12         13         14         15
    11  C    0.000000
    12  O    8.017061   0.000000
    13  H    6.710616   2.259847   0.000000
    14  H    6.502371   3.108357   3.470329   0.000000
    15  H    7.526769   2.535650   3.945037   1.749388   0.000000
    16  H    4.495976   3.923241   3.652004   2.520724   3.073649
    17  H    5.858901   3.393668   3.980179   3.081740   2.556714
    18  H    5.490361   5.524339   5.997300   3.922287   3.735422
    19  H    6.880501   4.777910   5.794609   3.197250   2.522830
    20  H    6.614217   6.322283   6.884321   3.698952   3.959482
    21  H    5.934978   5.241718   5.471328   2.274366   3.200917
    22  H    4.764741   7.390288   7.375314   4.951626   5.486920
    23  H    5.120869   7.479862   7.314685   4.599886   5.553180
    24  H    2.864679   6.136575   5.542117   4.189254   5.005414
    25  H    3.497868   5.981779   5.206059   3.505590   4.837308
    26  H    2.811404   8.585755   7.863973   6.302424   7.250412
    27  H    3.498942   8.497628   7.670796   5.876453   7.134199
    28  H    2.150947   9.294847   7.989813   7.208628   8.489651
    29  H    2.162558   7.809072   6.396212   5.797219   7.203692
    30  H    1.090267   7.000724   5.737611   5.715330   6.640631
    31  H    1.090637   8.608246   7.480077   7.107681   7.970890
    32  H    1.090447   8.527281   6.997683   7.225735   8.300161
                   16         17         18         19         20
    16  H    0.000000
    17  H    1.737435   0.000000
    18  H    2.556668   2.390920   0.000000
    19  H    3.059936   2.492820   1.729621   0.000000
    20  H    3.879467   4.263889   2.654714   2.285069   0.000000
    21  H    2.918271   3.777666   3.055832   2.688853   1.726872
    22  H    3.822212   4.603978   2.537471   3.623120   2.461712
    23  H    4.208294   5.332222   3.704116   4.238849   2.397560
    24  H    2.224342   3.559865   2.773633   4.051368   3.866690
    25  H    2.600736   4.254483   3.763803   4.454088   3.751437
    26  H    4.701144   5.964862   4.524000   5.893876   4.894720
    27  H    4.904216   6.409178   5.166398   6.152597   4.755943
    28  H    5.730313   7.283751   6.494621   7.746650   6.829562
    29  H    4.561699   6.241921   5.893172   6.904996   6.178639
    30  H    3.579679   4.886713   4.830471   6.155435   6.190979
    31  H    4.941726   6.110555   5.462552   7.010355   6.759112
    32  H    5.276708   6.631992   6.496627   7.850162   7.644266
                   21         22         23         24         25
    21  H    0.000000
    22  H    3.065201   0.000000
    23  H    2.468827   1.738206   0.000000
    24  H    3.324864   2.456356   3.046388   0.000000
    25  H    2.619267   3.059949   2.566743   1.749893   0.000000
    26  H    4.801216   2.648295   3.021939   2.496199   3.065350
    27  H    4.318647   3.157158   2.467545   3.052118   2.529068
    28  H    6.195147   4.951083   4.754843   3.838443   3.750544
    29  H    5.169445   4.797395   4.378444   3.172087   2.577741
    30  H    5.420942   4.594158   5.049813   2.338321   3.138706
    31  H    6.346891   4.656632   5.304105   3.115132   4.118061
    32  H    6.854831   5.848999   6.115411   3.879970   4.335672
                   26         27         28         29         30
    26  H    0.000000
    27  H    1.740435   0.000000
    28  H    2.505846   2.408217   0.000000
    29  H    3.065625   2.505384   1.739583   0.000000
    30  H    3.231673   3.894391   3.069272   2.514615   0.000000
    31  H    2.616249   3.783151   2.537872   3.076837   1.763295
    32  H    3.790045   4.310008   2.459652   2.513417   1.755656
                   31         32
    31  H    0.000000
    32  H    1.759488   0.000000
 Stoichiometry    C10H20O2
 Framework group  C1[X(C10H20O2)]
 Deg. of freedom    90
 Full point group                 C1      NOp   1
 Largest Abelian subgroup         C1      NOp   1
 Largest concise Abelian subgroup C1      NOp   1
                         Standard orientation:                         
 ---------------------------------------------------------------------
 Center     Atomic      Atomic             Coordinates (Angstroms)
 Number     Number       Type             X           Y           Z
 ---------------------------------------------------------------------
      1          8           0        2.546832   -1.957139   -0.537013
      2          6           0        3.305004   -0.888492   -0.209595
      3          6           0        2.526101    0.420838   -0.269727
      4          6           0        1.414940    0.523946    0.803079
      5          6           0        0.741493    1.912303    0.869194
      6          6           0       -0.105200    2.310559   -0.362925
      7          6           0       -1.600463    1.930974   -0.299072
      8          6           0       -1.889863    0.419819   -0.247221
      9          6           0       -3.387577    0.092689   -0.402143
     10          6           0       -3.702473   -1.415525   -0.427286
     11          6           0       -3.402783   -2.142233    0.893638
     12          8           0        4.487167   -0.969436    0.089583
     13          1           0        3.145151   -2.701170   -0.464491
     14          1           0        2.121507    0.513870   -1.276191
     15          1           0        3.246170    1.229473   -0.143316
     16          1           0        0.668788   -0.252885    0.635809
     17          1           0        1.841999    0.311812    1.786189
     18          1           0        0.123716    1.974229    1.766919
     19          1           0        1.522237    2.660948    1.015825
     20          1           0       -0.052302    3.395563   -0.468328
     21          1           0        0.335583    1.922129   -1.281115
     22          1           0       -2.063960    2.418391    0.560454
     23          1           0       -2.092793    2.354699   -1.176345
     24          1           0       -1.537250    0.023494    0.704435
     25          1           0       -1.322899   -0.089397   -1.028607
     26          1           0       -3.953743    0.570053    0.399732
     27          1           0       -3.754663    0.537097   -1.328966
     28          1           0       -4.758621   -1.549518   -0.667440
     29          1           0       -3.152264   -1.893154   -1.239871
     30          1           0       -2.337861   -2.132446    1.127148
     31          1           0       -3.933358   -1.683390    1.728768
     32          1           0       -3.712494   -3.186456    0.841181
 ---------------------------------------------------------------------
 Rotational constants (GHZ):           1.0990234           0.3653547           0.2945916
 Standard basis: 6-31G(d,p) (6D, 7F)
 There are   280 symmetry adapted cartesian basis functions of A   symmetry.
 There are   280 symmetry adapted basis functions of A   symmetry.
   280 basis functions,   476 primitive gaussians,   280 cartesian basis functions
    48 alpha electrons       48 beta electrons
       nuclear repulsion energy       713.2494469753 Hartrees.
 NAtoms=   32 NActive=   32 NUniq=   32 SFac= 1.00D+00 NAtFMM=   60 NAOKFM=F Big=F
 Integral buffers will be    131072 words long.
 Raffenetti 2 integral format.
 Two-electron integral symmetry is turned on.
 Nuclear repulsion after empirical dispersion term =      713.2016351468 Hartrees.
 One-electron integrals computed using PRISM.
 NBasis=   280 RedAO= T EigKep=  3.17D-03  NBF=   280
 NBsUse=   280 1.00D-06 EigRej= -1.00D+00 NBFU=   280
 ExpMin= 1.61D-01 ExpMax= 5.48D+03 ExpMxC= 8.25D+02 IAcc=3 IRadAn=         5 AccDes= 0.00D+00
 Harris functional with IExCor=  402 and IRadAn=       5 diagonalized for initial guess.
 HarFok:  IExCor=  402 AccDes= 0.00D+00 IRadAn=         5 IDoV= 1 UseB2=F ITyADJ=14
 ICtDFT=  3500011 ScaDFX=  1.000000  1.000000  1.000000  1.000000
 FoFCou: FMM=F IPFlag=           0 FMFlag=      100000 FMFlg1=           0
         NFxFlg=           0 DoJE=T BraDBF=F KetDBF=T FulRan=T
         wScrn=  0.000000 ICntrl=       500 IOpCl=  0 I1Cent=   200000004 NGrid=           0
         NMat0=    1 NMatS0=      1 NMatT0=    0 NMatD0=    1 NMtDS0=    0 NMtDT0=    0
 Petite list used in FoFCou.
 Requested convergence on RMS density matrix=1.00D-08 within 128 cycles.
 Requested convergence on MAX density matrix=1.00D-06.
 Requested convergence on             energy=1.00D-06.
 No special actions if energy rises.
 Integral accuracy reduced to 1.0D-05 until final iterations.
 Initial convergence to 1.0D-05 achieved.  Increase integral accuracy.
 SCF Done:  E(RB3LYP) =  -543.661218900     A.U. after   13 cycles
            NFock= 13  Conv=0.82D-08     -V/T= 2.0096

 **********************************************************************

            Population analysis using the SCF Density.

 **********************************************************************

 Orbital symmetries:
       Occupied  (A) (A) (A) (A) (A) (A) (A) (A) (A) (A) (A) (A)
                 (A) (A) (A) (A) (A) (A) (A) (A) (A) (A) (A) (A)
                 (A) (A) (A) (A) (A) (A) (A) (A) (A) (A) (A) (A)
                 (A) (A) (A) (A) (A) (A) (A) (A) (A) (A) (A) (A)
       Virtual   (A) (A) (A) (A) (A) (A) (A) (A) (A) (A) (A) (A)
                 (A) (A) (A) (A) (A) (A) (A) (A) (A) (A) (A) (A)
                 (A) (A) (A) (A) (A) (A) (A) (A) (A) (A) (A) (A)
                 (A) (A) (A) (A) (A) (A) (A) (A) (A) (A) (A) (A)
                 (A) (A) (A) (A) (A) (A) (A) (A) (A) (A) (A) (A)
                 (A) (A) (A) (A) (A) (A) (A) (A) (A) (A) (A) (A)
                 (A) (A) (A) (A) (A) (A) (A) (A) (A) (A) (A) (A)
                 (A) (A) (A) (A) (A) (A) (A) (A) (A) (A) (A) (A)
                 (A) (A) (A) (A) (A) (A) (A) (A) (A) (A) (A) (A)
                 (A) (A) (A) (A) (A) (A) (A) (A) (A) (A) (A) (A)
                 (A) (A) (A) (A) (A) (A) (A) (A) (A) (A) (A) (A)
                 (A) (A) (A) (A) (A) (A) (A) (A) (A) (A) (A) (A)
                 (A) (A) (A) (A) (A) (A) (A) (A) (A) (A) (A) (A)
                 (A) (A) (A) (A) (A) (A) (A) (A) (A) (A) (A) (A)
                 (A) (A) (A) (A) (A) (A) (A) (A) (A) (A) (A) (A)
                 (A) (A) (A) (A) (A) (A) (A) (A) (A) (A) (A) (A)
                 (A) (A) (A) (A) (A) (A) (A) (A) (A) (A) (A) (A)
                 (A) (A) (A) (A) (A) (A) (A) (A) (A) (A) (A) (A)
                 (A) (A) (A) (A) (A) (A) (A) (A) (A) (A) (A) (A)
                 (A) (A) (A) (A)
 The electronic state is 1-A.
 Alpha  occ. eigenvalues --  -19.19841 -19.13546 -10.31917 -10.19776 -10.19070
 Alpha  occ. eigenvalues --  -10.18402 -10.18020 -10.17796 -10.17737 -10.17572
 Alpha  occ. eigenvalues --  -10.17552 -10.17018  -1.10664  -1.00956  -0.81428
 Alpha  occ. eigenvalues --   -0.79536  -0.76677  -0.72829  -0.68969  -0.64910
 Alpha  occ. eigenvalues --   -0.61363  -0.59622  -0.56677  -0.56431  -0.48988
 Alpha  occ. eigenvalues --   -0.48204  -0.47319  -0.46103  -0.44832  -0.43988
 Alpha  occ. eigenvalues --   -0.42505  -0.42430  -0.41781  -0.39961  -0.38911
 Alpha  occ. eigenvalues --   -0.37842  -0.37191  -0.36419  -0.36076  -0.34498
 Alpha  occ. eigenvalues --   -0.33480  -0.32877  -0.32390  -0.32024  -0.31504
 Alpha  occ. eigenvalues --   -0.30833  -0.29873  -0.26789
 Alpha virt. eigenvalues --    0.00959   0.07615   0.08707   0.09612   0.10522
 Alpha virt. eigenvalues --    0.11064   0.12505   0.13808   0.14102   0.14959
 Alpha virt. eigenvalues --    0.15652   0.16530   0.16691   0.16888   0.17671
 Alpha virt. eigenvalues --    0.18925   0.19417   0.19777   0.20452   0.20812
 Alpha virt. eigenvalues --    0.21908   0.22387   0.23704   0.24201   0.25588
 Alpha virt. eigenvalues --    0.26047   0.26217   0.28253   0.29000   0.30590
 Alpha virt. eigenvalues --    0.32034   0.35682   0.48699   0.49870   0.50151
 Alpha virt. eigenvalues --    0.51592   0.52718   0.52914   0.53341   0.54321
 Alpha virt. eigenvalues --    0.55934   0.57414   0.59031   0.60144   0.62251
 Alpha virt. eigenvalues --    0.63675   0.65448   0.66153   0.66736   0.67239
 Alpha virt. eigenvalues --    0.67655   0.68454   0.70857   0.71167   0.73095
 Alpha virt. eigenvalues --    0.75519   0.77601   0.79170   0.80150   0.81550
 Alpha virt. eigenvalues --    0.81960   0.83214   0.85103   0.85606   0.86409
 Alpha virt. eigenvalues --    0.86813   0.87433   0.88351   0.88857   0.90172
 Alpha virt. eigenvalues --    0.90729   0.91991   0.92718   0.93134   0.93328
 Alpha virt. eigenvalues --    0.94058   0.95142   0.95844   0.96085   0.97611
 Alpha virt. eigenvalues --    0.98009   0.99738   1.01997   1.04807   1.05863
 Alpha virt. eigenvalues --    1.06160   1.07662   1.09640   1.13066   1.14547
 Alpha virt. eigenvalues --    1.21665   1.25783   1.27765   1.31651   1.35079
 Alpha virt. eigenvalues --    1.37218   1.39070   1.40488   1.43641   1.46243
 Alpha virt. eigenvalues --    1.49444   1.51514   1.55021   1.55820   1.56986
 Alpha virt. eigenvalues --    1.58669   1.61629   1.63172   1.64589   1.67590
 Alpha virt. eigenvalues --    1.68000   1.70828   1.71357   1.72652   1.76318
 Alpha virt. eigenvalues --    1.76501   1.77715   1.81201   1.81593   1.82066
 Alpha virt. eigenvalues --    1.84554   1.84933   1.85950   1.86915   1.88637
 Alpha virt. eigenvalues --    1.89342   1.90654   1.91099   1.92939   1.94746
 Alpha virt. eigenvalues --    1.98824   2.01183   2.05857   2.06140   2.08315
 Alpha virt. eigenvalues --    2.09238   2.11731   2.11970   2.12928   2.14375
 Alpha virt. eigenvalues --    2.15487   2.16683   2.17125   2.18016   2.21558
 Alpha virt. eigenvalues --    2.22845   2.24598   2.25137   2.26759   2.27667
 Alpha virt. eigenvalues --    2.27967   2.28426   2.30531   2.30843   2.32920
 Alpha virt. eigenvalues --    2.34374   2.35098   2.37094   2.39433   2.41060
 Alpha virt. eigenvalues --    2.42448   2.44161   2.44924   2.46945   2.49372
 Alpha virt. eigenvalues --    2.52406   2.54170   2.55355   2.55666   2.59183
 Alpha virt. eigenvalues --    2.59976   2.61235   2.63090   2.63932   2.67325
 Alpha virt. eigenvalues --    2.67949   2.70190   2.71243   2.73958   2.74682
 Alpha virt. eigenvalues --    2.76375   2.77829   2.79322   2.80083   2.81099
 Alpha virt. eigenvalues --    2.83278   2.85546   2.88763   2.89021   2.89432
 Alpha virt. eigenvalues --    2.90163   2.90859   2.91347   2.91539   2.92243
 Alpha virt. eigenvalues --    2.92719   2.94885   2.96686   3.03145   3.11614
 Alpha virt. eigenvalues --    3.20196   3.24825   3.28120   3.30197   3.32005
 Alpha virt. eigenvalues --    3.32990   3.34409   3.36180   3.37355   3.40029
 Alpha virt. eigenvalues --    3.42747   3.43833   3.44978   3.47046   3.49328
 Alpha virt. eigenvalues --    3.52659   3.55664   3.57803   3.59389   3.60828
 Alpha virt. eigenvalues --    3.92206   4.10570   4.23677   4.30530   4.36306
 Alpha virt. eigenvalues --    4.41758   4.50071   4.57875   4.62896   4.66827
 Alpha virt. eigenvalues --    4.71725   4.78968
          Condensed to atoms (all electrons):
               1          2          3          4          5          6
     1  O    8.121830   0.246061  -0.100070   0.002527   0.000053  -0.000001
     2  C    0.246061   4.388420   0.341223  -0.024268   0.002378   0.000153
     3  C   -0.100070   0.341223   5.093692   0.349843  -0.036637  -0.005653
     4  C    0.002527  -0.024268   0.349843   4.912383   0.371568  -0.039246
     5  C    0.000053   0.002378  -0.036637   0.371568   4.914510   0.368959
     6  C   -0.000001   0.000153  -0.005653  -0.039246   0.368959   4.923491
     7  C    0.000000  -0.000003  -0.000034  -0.000886  -0.038630   0.372207
     8  C   -0.000009  -0.000002   0.000053  -0.000931  -0.002819  -0.040869
     9  C   -0.000000   0.000000  -0.000003   0.000110  -0.000007   0.003613
    10  C    0.000000   0.000000  -0.000000   0.000004   0.000003  -0.000138
    11  C   -0.000000  -0.000000   0.000000  -0.000008  -0.000001   0.000003
    12  O   -0.083614   0.576303  -0.072790  -0.000694  -0.000060  -0.000000
    13  H    0.268166  -0.009504   0.010830  -0.000155   0.000009   0.000000
    14  H    0.002591  -0.023948   0.356789  -0.029269  -0.004913   0.001827
    15  H    0.003432  -0.031902   0.375196  -0.033202  -0.004169  -0.000396
    16  H    0.004767  -0.004382  -0.037943   0.382839  -0.037225  -0.004912
    17  H   -0.000102  -0.000953  -0.044628   0.381012  -0.034203   0.004577
    18  H    0.000001  -0.000114   0.004432  -0.032767   0.380871  -0.042481
    19  H   -0.000002   0.000000  -0.007836  -0.040420   0.380008  -0.034396
    20  H   -0.000000  -0.000001   0.000241   0.004563  -0.033768   0.372975
    21  H   -0.000002  -0.000096   0.001448  -0.008891  -0.044379   0.383590
    22  H    0.000000   0.000000   0.000001  -0.000175  -0.007299  -0.036934
    23  H    0.000000  -0.000000   0.000007  -0.000134   0.004951  -0.034575
    24  H   -0.000010  -0.000002   0.000061  -0.003017   0.004294  -0.003690
    25  H    0.000024  -0.000005   0.000016  -0.000401  -0.001358  -0.003092
    26  H    0.000000  -0.000000  -0.000000  -0.000002  -0.000009   0.000042
    27  H   -0.000000   0.000000   0.000000  -0.000004   0.000006   0.000012
    28  H   -0.000000  -0.000000  -0.000000  -0.000000  -0.000000   0.000002
    29  H   -0.000000  -0.000000   0.000000  -0.000000   0.000000  -0.000000
    30  H    0.000000  -0.000000  -0.000000  -0.000011  -0.000007   0.000009
    31  H   -0.000000  -0.000000  -0.000000   0.000000  -0.000000   0.000000
    32  H    0.000000   0.000000   0.000000   0.000000   0.000000  -0.000000
               7          8          9         10         11         12
     1  O    0.000000  -0.000009  -0.000000   0.000000  -0.000000  -0.083614
     2  C   -0.000003  -0.000002   0.000000   0.000000  -0.000000   0.576303
     3  C   -0.000034   0.000053  -0.000003  -0.000000   0.000000  -0.072790
     4  C   -0.000886  -0.000931   0.000110   0.000004  -0.000008  -0.000694
     5  C   -0.038630  -0.002819  -0.000007   0.000003  -0.000001  -0.000060
     6  C    0.372207  -0.040869   0.003613  -0.000138   0.000003  -0.000000
     7  C    4.896693   0.375396  -0.032412   0.003538   0.000129   0.000000
     8  C    0.375396   4.900851   0.376311  -0.039913  -0.004842  -0.000000
     9  C   -0.032412   0.376311   4.903213   0.374572  -0.045838  -0.000000
    10  C    0.003538  -0.039913   0.374572   4.877060   0.375936   0.000000
    11  C    0.000129  -0.004842  -0.045838   0.375936   4.915108  -0.000000
    12  O    0.000000  -0.000000  -0.000000   0.000000  -0.000000   8.031961
    13  H   -0.000000   0.000000   0.000000  -0.000000   0.000000   0.011506
    14  H    0.000059  -0.000036  -0.000002   0.000000   0.000000   0.002096
    15  H    0.000011  -0.000003   0.000000  -0.000000  -0.000000   0.002161
    16  H    0.000365   0.001668  -0.000019  -0.000011  -0.000017   0.000016
    17  H   -0.000008  -0.000051  -0.000002  -0.000000  -0.000000   0.001049
    18  H   -0.007159  -0.000897  -0.000063   0.000001  -0.000000   0.000000
    19  H    0.004003   0.000038   0.000001  -0.000000  -0.000000  -0.000003
    20  H   -0.032620   0.004867  -0.000134   0.000002   0.000000   0.000000
    21  H   -0.036753  -0.006897   0.000034  -0.000001   0.000000   0.000001
    22  H    0.380577  -0.038692  -0.003148   0.000009  -0.000011  -0.000000
    23  H    0.379948  -0.042614  -0.006020   0.000080   0.000003  -0.000000
    24  H   -0.036009   0.384618  -0.038577  -0.004020   0.002881  -0.000000
    25  H   -0.041626   0.385815  -0.040920  -0.003278  -0.000708   0.000000
    26  H   -0.003158  -0.039479   0.380307  -0.038290  -0.006981  -0.000000
    27  H   -0.005159  -0.039987   0.378454  -0.033766   0.005095  -0.000000
    28  H   -0.000137   0.004637  -0.031740   0.380203  -0.039640  -0.000000
    29  H    0.000052  -0.007633  -0.037975   0.385513  -0.039975  -0.000000
    30  H   -0.000114   0.002654  -0.004776  -0.035037   0.388219   0.000000
    31  H   -0.000022  -0.000780  -0.004546  -0.035866   0.386884   0.000000
    32  H   -0.000001   0.000147   0.004312  -0.028172   0.381028   0.000000
              13         14         15         16         17         18
     1  O    0.268166   0.002591   0.003432   0.004767  -0.000102   0.000001
     2  C   -0.009504  -0.023948  -0.031902  -0.004382  -0.000953  -0.000114
     3  C    0.010830   0.356789   0.375196  -0.037943  -0.044628   0.004432
     4  C   -0.000155  -0.029269  -0.033202   0.382839   0.381012  -0.032767
     5  C    0.000009  -0.004913  -0.004169  -0.037225  -0.034203   0.380871
     6  C    0.000000   0.001827  -0.000396  -0.004912   0.004577  -0.042481
     7  C   -0.000000   0.000059   0.000011   0.000365  -0.000008  -0.007159
     8  C    0.000000  -0.000036  -0.000003   0.001668  -0.000051  -0.000897
     9  C    0.000000  -0.000002   0.000000  -0.000019  -0.000002  -0.000063
    10  C   -0.000000   0.000000  -0.000000  -0.000011  -0.000000   0.000001
    11  C    0.000000   0.000000  -0.000000  -0.000017  -0.000000  -0.000000
    12  O    0.011506   0.002096   0.002161   0.000016   0.001049   0.000000
    13  H    0.401832  -0.000496  -0.000342  -0.000143  -0.000103  -0.000000
    14  H   -0.000496   0.598794  -0.033222  -0.005441   0.005732  -0.000012
    15  H   -0.000342  -0.033222   0.587850   0.005202  -0.004238   0.000082
    16  H   -0.000143  -0.005441   0.005202   0.606361  -0.037515  -0.002627
    17  H   -0.000103   0.005732  -0.004238  -0.037515   0.633770  -0.004510
    18  H   -0.000000  -0.000012   0.000082  -0.002627  -0.004510   0.635878
    19  H    0.000000  -0.000298   0.005587   0.005884  -0.003282  -0.038248
    20  H    0.000000  -0.000233  -0.000067  -0.000022  -0.000195   0.000944
    21  H   -0.000000   0.003984   0.000351   0.000447   0.000156   0.005484
    22  H    0.000000   0.000002   0.000001   0.000114   0.000000   0.005043
    23  H   -0.000000   0.000008  -0.000001  -0.000056   0.000004   0.000172
    24  H    0.000000   0.000011  -0.000001   0.002762   0.000215   0.001058
    25  H   -0.000000   0.000228  -0.000000   0.001682   0.000019   0.000168
    26  H    0.000000   0.000000   0.000000   0.000005   0.000000   0.000002
    27  H   -0.000000   0.000000  -0.000000   0.000004   0.000000   0.000000
    28  H    0.000000  -0.000000   0.000000   0.000000  -0.000000  -0.000000
    29  H    0.000000   0.000000   0.000000  -0.000001   0.000000  -0.000000
    30  H   -0.000000  -0.000000   0.000000   0.000296  -0.000001  -0.000003
    31  H    0.000000   0.000000   0.000000  -0.000002   0.000000  -0.000000
    32  H   -0.000000   0.000000  -0.000000  -0.000000   0.000000  -0.000000
              19         20         21         22         23         24
     1  O   -0.000002  -0.000000  -0.000002   0.000000   0.000000  -0.000010
     2  C    0.000000  -0.000001  -0.000096   0.000000  -0.000000  -0.000002
     3  C   -0.007836   0.000241   0.001448   0.000001   0.000007   0.000061
     4  C   -0.040420   0.004563  -0.008891  -0.000175  -0.000134  -0.003017
     5  C    0.380008  -0.033768  -0.044379  -0.007299   0.004951   0.004294
     6  C   -0.034396   0.372975   0.383590  -0.036934  -0.034575  -0.003690
     7  C    0.004003  -0.032620  -0.036753   0.380577   0.379948  -0.036009
     8  C    0.000038   0.004867  -0.006897  -0.038692  -0.042614   0.384618
     9  C    0.000001  -0.000134   0.000034  -0.003148  -0.006020  -0.038577
    10  C   -0.000000   0.000002  -0.000001   0.000009   0.000080  -0.004020
    11  C   -0.000000   0.000000   0.000000  -0.000011   0.000003   0.002881
    12  O   -0.000003   0.000000   0.000001  -0.000000  -0.000000  -0.000000
    13  H    0.000000   0.000000  -0.000000   0.000000  -0.000000   0.000000
    14  H   -0.000298  -0.000233   0.003984   0.000002   0.000008   0.000011
    15  H    0.005587  -0.000067   0.000351   0.000001  -0.000001  -0.000001
    16  H    0.005884  -0.000022   0.000447   0.000114  -0.000056   0.002762
    17  H   -0.003282  -0.000195   0.000156   0.000000   0.000004   0.000215
    18  H   -0.038248   0.000944   0.005484   0.005043   0.000172   0.001058
    19  H    0.643598  -0.009743   0.001082   0.000102  -0.000215  -0.000062
    20  H   -0.009743   0.649392  -0.039139  -0.004151  -0.004064  -0.000078
    21  H    0.001082  -0.039139   0.642112   0.005861  -0.004022  -0.000227
    22  H    0.000102  -0.004151   0.005861   0.646591  -0.040455  -0.007791
    23  H   -0.000215  -0.004064  -0.004022  -0.040455   0.650774   0.006203
    24  H   -0.000062  -0.000078  -0.000227  -0.007791   0.006203   0.635121
    25  H   -0.000014   0.000029   0.004957   0.006184  -0.004368  -0.044533
    26  H   -0.000000   0.000005   0.000005   0.004267  -0.000526  -0.006558
    27  H    0.000000  -0.000007   0.000002  -0.000491   0.006472   0.006076
    28  H    0.000000  -0.000000   0.000000   0.000005  -0.000008  -0.000027
    29  H   -0.000000   0.000000  -0.000001   0.000006   0.000005  -0.000241
    30  H    0.000000  -0.000000   0.000000   0.000011  -0.000001   0.001540
    31  H   -0.000000  -0.000000  -0.000000   0.000000   0.000001   0.000470
    32  H    0.000000   0.000000  -0.000000  -0.000000   0.000000  -0.000125
              25         26         27         28         29         30
     1  O    0.000024   0.000000  -0.000000  -0.000000  -0.000000   0.000000
     2  C   -0.000005  -0.000000   0.000000  -0.000000  -0.000000  -0.000000
     3  C    0.000016  -0.000000   0.000000  -0.000000   0.000000  -0.000000
     4  C   -0.000401  -0.000002  -0.000004  -0.000000  -0.000000  -0.000011
     5  C   -0.001358  -0.000009   0.000006  -0.000000   0.000000  -0.000007
     6  C   -0.003092   0.000042   0.000012   0.000002  -0.000000   0.000009
     7  C   -0.041626  -0.003158  -0.005159  -0.000137   0.000052  -0.000114
     8  C    0.385815  -0.039479  -0.039987   0.004637  -0.007633   0.002654
     9  C   -0.040920   0.380307   0.378454  -0.031740  -0.037975  -0.004776
    10  C   -0.003278  -0.038290  -0.033766   0.380203   0.385513  -0.035037
    11  C   -0.000708  -0.006981   0.005095  -0.039640  -0.039975   0.388219
    12  O    0.000000  -0.000000  -0.000000  -0.000000  -0.000000   0.000000
    13  H   -0.000000   0.000000  -0.000000   0.000000   0.000000  -0.000000
    14  H    0.000228   0.000000   0.000000  -0.000000   0.000000  -0.000000
    15  H   -0.000000   0.000000  -0.000000   0.000000   0.000000   0.000000
    16  H    0.001682   0.000005   0.000004   0.000000  -0.000001   0.000296
    17  H    0.000019   0.000000   0.000000  -0.000000   0.000000  -0.000001
    18  H    0.000168   0.000002   0.000000  -0.000000  -0.000000  -0.000003
    19  H   -0.000014  -0.000000   0.000000   0.000000  -0.000000   0.000000
    20  H    0.000029   0.000005  -0.000007  -0.000000   0.000000  -0.000000
    21  H    0.004957   0.000005   0.000002   0.000000  -0.000001   0.000000
    22  H    0.006184   0.004267  -0.000491   0.000005   0.000006   0.000011
    23  H   -0.004368  -0.000526   0.006472  -0.000008   0.000005  -0.000001
    24  H   -0.044533  -0.006558   0.006076  -0.000027  -0.000241   0.001540
    25  H    0.644462   0.006129  -0.005437   0.000035   0.005495   0.000455
    26  H    0.006129   0.648019  -0.040323  -0.003219   0.006081  -0.000137
    27  H   -0.005437  -0.040323   0.649368  -0.004344  -0.003218  -0.000024
    28  H    0.000035  -0.003219  -0.004344   0.646768  -0.039966   0.005531
    29  H    0.005495   0.006081  -0.003218  -0.039966   0.641445  -0.005310
    30  H    0.000455  -0.000137  -0.000024   0.005531  -0.005310   0.607701
    31  H    0.000082   0.005366   0.000032  -0.004375   0.005524  -0.034241
    32  H   -0.000022   0.000008  -0.000183  -0.004176  -0.002547  -0.031915
              31         32
     1  O   -0.000000   0.000000
     2  C   -0.000000   0.000000
     3  C   -0.000000   0.000000
     4  C    0.000000   0.000000
     5  C   -0.000000   0.000000
     6  C    0.000000  -0.000000
     7  C   -0.000022  -0.000001
     8  C   -0.000780   0.000147
     9  C   -0.004546   0.004312
    10  C   -0.035866  -0.028172
    11  C    0.386884   0.381028
    12  O    0.000000   0.000000
    13  H    0.000000  -0.000000
    14  H    0.000000   0.000000
    15  H    0.000000  -0.000000
    16  H   -0.000002  -0.000000
    17  H    0.000000   0.000000
    18  H   -0.000000  -0.000000
    19  H   -0.000000   0.000000
    20  H   -0.000000   0.000000
    21  H   -0.000000  -0.000000
    22  H    0.000000  -0.000000
    23  H    0.000001   0.000000
    24  H    0.000470  -0.000125
    25  H    0.000082  -0.000022
    26  H    0.005366   0.000008
    27  H    0.000032  -0.000183
    28  H   -0.004375  -0.004176
    29  H    0.005524  -0.002547
    30  H   -0.034241  -0.031915
    31  H    0.612639  -0.032508
    32  H   -0.032508   0.614161
 Mulliken charges:
               1
     1  O   -0.465644
     2  C    0.540640
     3  C   -0.228237
     4  C   -0.190371
     5  C   -0.182128
     6  C   -0.185077
     7  C   -0.178248
     8  C   -0.170602
     9  C   -0.174742
    10  C   -0.178430
    11  C   -0.317266
    12  O   -0.467930
    13  H    0.318401
    14  H    0.125749
    15  H    0.127670
    16  H    0.117901
    17  H    0.103256
    18  H    0.094745
    19  H    0.094215
    20  H    0.091204
    21  H    0.090894
    22  H    0.090376
    23  H    0.088429
    24  H    0.099656
    25  H    0.089980
    26  H    0.088444
    27  H    0.087422
    28  H    0.090453
    29  H    0.092746
    30  H    0.105161
    31  H    0.101341
    32  H    0.099992
 Sum of Mulliken charges =  -0.00000
 Mulliken charges with hydrogens summed into heavy atoms:
               1
     1  O   -0.147243
     2  C    0.540640
     3  C    0.025182
     4  C    0.030786
     5  C    0.006832
     6  C   -0.002978
     7  C    0.000557
     8  C    0.019034
     9  C    0.001124
    10  C    0.004769
    11  C   -0.010772
    12  O   -0.467930
 Electronic spatial extent (au):  <R**2>=           3775.3332
 Charge=             -0.0000 electrons
 Dipole moment (field-independent basis, Debye):
    X=             -1.9184    Y=              0.0543    Z=             -0.3068  Tot=              1.9435
 Quadrupole moment (field-independent basis, Debye-Ang):
   XX=            -90.9556   YY=            -71.1299   ZZ=            -75.3624
   XY=             -0.5950   XZ=             -2.2395   YZ=              0.8157
 Traceless Quadrupole moment (field-independent basis, Debye-Ang):
   XX=            -11.8063   YY=              8.0194   ZZ=              3.7869
   XY=             -0.5950   XZ=             -2.2395   YZ=              0.8157
 Octapole moment (field-independent basis, Debye-Ang**2):
  XXX=            -65.5096  YYY=            -31.6667  ZZZ=             -2.3641  XYY=             29.2705
  XXY=             -1.8155  XXZ=            -10.8596  XZZ=             11.7173  YZZ=             -3.1557
  YYZ=             -2.9588  XYZ=              2.8161
 Hexadecapole moment (field-independent basis, Debye-Ang**3):
 XXXX=          -3996.3361 YYYY=          -1097.5872 ZZZZ=           -279.8181 XXXY=              7.9731
 XXXZ=            -52.8323 YYYX=           -107.6915 YYYZ=             16.6824 ZZZX=             -4.6999
 ZZZY=              6.0519 XXYY=           -713.3553 XXZZ=           -616.9979 YYZZ=           -245.0482
 XXYZ=             20.1614 YYXZ=            -10.2123 ZZXY=            -19.3080
 N-N= 7.132016351468D+02 E-N=-2.689578128298D+03  KE= 5.384984862730D+02
 Calling FoFJK, ICntrl=      2127 FMM=F ISym2X=0 I1Cent= 0 IOpClX= 0 NMat=1 NMatS=1 NMatT=0.
 ***** Axes restored to original set *****
 -------------------------------------------------------------------
 Center     Atomic                   Forces (Hartrees/Bohr)
 Number     Number              X              Y              Z
 -------------------------------------------------------------------
      1        8          -0.008995703   -0.006152703    0.001146822
      2        6          -0.004814403   -0.005924485    0.021442132
      3        6           0.006724332   -0.002474084   -0.000953261
      4        6          -0.002815326   -0.000655929   -0.000515194
      5        6          -0.001178283    0.009091853   -0.001985644
      6        6           0.000293665   -0.009125950   -0.001903870
      7        6           0.006452590    0.007741163    0.001095901
      8        6          -0.007048775   -0.007262717   -0.001950965
      9        6           0.005936947    0.006792736    0.001304978
     10        6           0.001878060   -0.007289739    0.002965220
     11        6          -0.003620504    0.004306945    0.000155371
     12        8          -0.006479543   -0.001375004   -0.016959790
     13        1           0.013992271    0.008172578   -0.002867570
     14        1          -0.003834321    0.000566386   -0.004547703
     15        1           0.001955081   -0.000495263    0.001999488
     16        1          -0.000582019    0.002145917   -0.002382412
     17        1           0.002722909    0.000560275    0.002879131
     18        1           0.001252382   -0.002546985   -0.003429677
     19        1           0.000179589    0.001177252    0.004131157
     20        1          -0.002876547   -0.001479013    0.002016079
     21        1           0.002170085    0.004819226   -0.001342502
     22        1           0.000976475   -0.004520858    0.000636911
     23        1          -0.003715503    0.002127147   -0.001304681
     24        1           0.004131829   -0.000843439    0.000706335
     25        1           0.000420233    0.004503177   -0.000113710
     26        1           0.000542576   -0.004745084    0.000095197
     27        1          -0.003898172    0.002233002    0.000453170
     28        1          -0.002192666   -0.001116033   -0.003024251
     29        1           0.000626331    0.004018586    0.001671320
     30        1           0.001289124    0.000131238    0.002590481
     31        1          -0.000994655   -0.003261993    0.000276970
     32        1           0.001501941    0.000881799   -0.002285432
 -------------------------------------------------------------------
 Cartesian Forces:  Max     0.021442132 RMS     0.004792768

 GradGradGradGradGradGradGradGradGradGradGradGradGradGradGradGradGradGrad
 Berny optimization.
 FormGI is forming the generalized inverse of G from B-inverse, IUseBI=4.
 Internal  Forces:  Max     0.017173296 RMS     0.002795765
 Search for a local minimum.
 Step number   1 out of a maximum of  179
 All quantities printed in internal units (Hartrees-Bohrs-Radians)
 Mixed Optimization -- RFO/linear search
 Second derivative matrix not updated -- first step.
 ITU=  0
     Eigenvalues ---    0.00230   0.00230   0.00230   0.00230   0.00230
     Eigenvalues ---    0.00230   0.00244   0.00275   0.00439   0.00910
     Eigenvalues ---    0.02346   0.03054   0.03077   0.03170   0.03262
     Eigenvalues ---    0.03273   0.03275   0.03418   0.03891   0.04636
     Eigenvalues ---    0.04663   0.04673   0.04690   0.04696   0.04705
     Eigenvalues ---    0.04744   0.05153   0.05349   0.05458   0.08294
     Eigenvalues ---    0.08489   0.08537   0.08558   0.08719   0.08847
     Eigenvalues ---    0.08864   0.09552   0.12191   0.12338   0.12368
     Eigenvalues ---    0.12381   0.12496   0.12596   0.12607   0.12891
     Eigenvalues ---    0.16000   0.16000   0.16000   0.16000   0.21890
     Eigenvalues ---    0.21906   0.21907   0.21908   0.21911   0.21916
     Eigenvalues ---    0.21924   0.21952   0.24999   0.25000   0.27824
     Eigenvalues ---    0.27896   0.28125   0.28166   0.28436   0.28445
     Eigenvalues ---    0.28564   0.28775   0.29920   0.34508   0.34631
     Eigenvalues ---    0.34631   0.34637   0.34639   0.34643   0.34646
     Eigenvalues ---    0.34649   0.34651   0.34652   0.34655   0.34739
     Eigenvalues ---    0.34761   0.34782   0.34798   0.34805   0.34808
     Eigenvalues ---    0.34868   0.34961   0.54901   0.56012   0.94452
 RFO step:  Lambda=-4.86196997D-03 EMin= 2.30000000D-03
 Linear search not attempted -- first point.
 Iteration  1 RMS(Cart)=  0.13001872 RMS(Int)=  0.00216360
 Iteration  2 RMS(Cart)=  0.00433897 RMS(Int)=  0.00020341
 Iteration  3 RMS(Cart)=  0.00000701 RMS(Int)=  0.00020339
 Iteration  4 RMS(Cart)=  0.00000000 RMS(Int)=  0.00020339
 Variable       Old X    -DE/DX   Delta X   Delta X   Delta X     New X
                                 (Linear)    (Quad)   (Total)
    R1        2.55220   0.00307   0.00000   0.00555   0.00555   2.55776
    R2        1.80943   0.01604   0.00000   0.02839   0.02839   1.83783
    R3        2.88123  -0.00833   0.00000  -0.02739  -0.02739   2.85384
    R4        2.30947  -0.01717   0.00000  -0.01809  -0.01809   2.29138
    R5        2.92525  -0.00716   0.00000  -0.02529  -0.02529   2.89996
    R6        2.05739   0.00472   0.00000   0.01333   0.01333   2.07072
    R7        2.06004   0.00169   0.00000   0.00479   0.00479   2.06483
    R8        2.91866  -0.00472   0.00000  -0.01650  -0.01650   2.90215
    R9        2.05988   0.00255   0.00000   0.00724   0.00724   2.06712
   R10        2.06481   0.00276   0.00000   0.00787   0.00787   2.07268
   R11        2.92365  -0.00309   0.00000  -0.01090  -0.01090   2.91276
   R12        2.06266   0.00369   0.00000   0.01051   0.01051   2.07316
   R13        2.06277   0.00397   0.00000   0.01132   0.01132   2.07409
   R14        2.91776  -0.00475   0.00000  -0.01656  -0.01656   2.90120
   R15        2.06244   0.00378   0.00000   0.01075   0.01075   2.07318
   R16        2.05992   0.00474   0.00000   0.01342   0.01342   2.07334
   R17        2.90921  -0.00342   0.00000  -0.01176  -0.01176   2.89745
   R18        2.06248   0.00444   0.00000   0.01263   0.01263   2.07511
   R19        2.06278   0.00441   0.00000   0.01255   0.01255   2.07533
   R20        2.91175  -0.00464   0.00000  -0.01604  -0.01604   2.89571
   R21        2.05890   0.00412   0.00000   0.01164   0.01164   2.07054
   R22        2.06259   0.00449   0.00000   0.01279   0.01279   2.07538
   R23        2.91196  -0.00336   0.00000  -0.01163  -0.01163   2.90033
   R24        2.06268   0.00460   0.00000   0.01310   0.01310   2.07578
   R25        2.06253   0.00438   0.00000   0.01248   0.01248   2.07501
   R26        2.90475  -0.00258   0.00000  -0.00881  -0.00881   2.89594
   R27        2.06238   0.00383   0.00000   0.01090   0.01090   2.07328
   R28        2.06245   0.00416   0.00000   0.01184   0.01184   2.07429
   R29        2.06031   0.00283   0.00000   0.00803   0.00803   2.06833
   R30        2.06100   0.00332   0.00000   0.00944   0.00944   2.07044
   R31        2.06065   0.00287   0.00000   0.00815   0.00815   2.06880
    A1        1.81904   0.00661   0.00000   0.04009   0.04009   1.85913
    A2        1.96400  -0.00112   0.00000  -0.00418  -0.00503   1.95898
    A3        2.15311  -0.00637   0.00000  -0.02477  -0.02557   2.12754
    A4        2.16602   0.00751   0.00000   0.02966   0.02877   2.19479
    A5        1.97858  -0.00310   0.00000  -0.01930  -0.01950   1.95908
    A6        1.87516   0.00260   0.00000   0.00884   0.00831   1.88347
    A7        1.87024   0.00007   0.00000   0.00048   0.00053   1.87077
    A8        1.94790  -0.00225   0.00000  -0.02571  -0.02581   1.92209
    A9        1.92237   0.00187   0.00000   0.01417   0.01427   1.93664
   A10        1.86427   0.00113   0.00000   0.02492   0.02500   1.88927
   A11        1.98508  -0.00312   0.00000  -0.01897  -0.01905   1.96603
   A12        1.91510   0.00015   0.00000  -0.01072  -0.01080   1.90430
   A13        1.90718  -0.00078   0.00000  -0.01123  -0.01107   1.89611
   A14        1.92700   0.00108   0.00000   0.00332   0.00298   1.92998
   A15        1.88223   0.00251   0.00000   0.02159   0.02144   1.90367
   A16        1.84133   0.00045   0.00000   0.01933   0.01913   1.86046
   A17        2.02187  -0.00020   0.00000  -0.00516  -0.00528   2.01659
   A18        1.91027  -0.00102   0.00000  -0.01700  -0.01713   1.89314
   A19        1.88640  -0.00012   0.00000   0.00262   0.00267   1.88907
   A20        1.90779   0.00009   0.00000  -0.00604  -0.00626   1.90153
   A21        1.89849   0.00040   0.00000   0.00916   0.00917   1.90766
   A22        1.82908   0.00099   0.00000   0.01941   0.01946   1.84854
   A23        2.01947  -0.00193   0.00000  -0.01323  -0.01363   2.00584
   A24        1.88210   0.00110   0.00000   0.01874   0.01884   1.90094
   A25        1.93670  -0.00033   0.00000  -0.01861  -0.01915   1.91755
   A26        1.87060   0.00092   0.00000   0.01718   0.01727   1.88787
   A27        1.91647   0.00005   0.00000  -0.01596  -0.01655   1.89992
   A28        1.82689   0.00051   0.00000   0.01758   0.01781   1.84470
   A29        2.00949  -0.00011   0.00000  -0.00286  -0.00293   2.00657
   A30        1.91139  -0.00073   0.00000  -0.01162  -0.01168   1.89970
   A31        1.88401   0.00062   0.00000   0.00935   0.00937   1.89338
   A32        1.90924   0.00003   0.00000  -0.00604  -0.00614   1.90309
   A33        1.90003  -0.00027   0.00000   0.00218   0.00218   1.90221
   A34        1.84214   0.00054   0.00000   0.01058   0.01063   1.85276
   A35        1.96897  -0.00040   0.00000  -0.00118  -0.00120   1.96777
   A36        1.90249   0.00041   0.00000   0.00688   0.00686   1.90935
   A37        1.91367   0.00011   0.00000  -0.00254  -0.00255   1.91112
   A38        1.90199   0.00032   0.00000   0.00552   0.00550   1.90749
   A39        1.91122  -0.00018   0.00000  -0.00546  -0.00547   1.90575
   A40        1.86240  -0.00026   0.00000  -0.00322  -0.00321   1.85919
   A41        1.99114  -0.00015   0.00000  -0.00269  -0.00274   1.98840
   A42        1.91502  -0.00040   0.00000  -0.00978  -0.00984   1.90518
   A43        1.90271  -0.00046   0.00000  -0.00086  -0.00086   1.90185
   A44        1.91138  -0.00021   0.00000  -0.00599  -0.00607   1.90531
   A45        1.89224   0.00083   0.00000   0.01167   0.01168   1.90393
   A46        1.84555   0.00045   0.00000   0.00889   0.00890   1.85445
   A47        1.99201  -0.00024   0.00000  -0.00319  -0.00324   1.98877
   A48        1.89813  -0.00010   0.00000   0.00179   0.00181   1.89993
   A49        1.91502  -0.00060   0.00000  -0.01110  -0.01116   1.90386
   A50        1.89624   0.00050   0.00000   0.00853   0.00853   1.90477
   A51        1.91200   0.00005   0.00000  -0.00408  -0.00417   1.90783
   A52        1.84450   0.00046   0.00000   0.00935   0.00936   1.85386
   A53        1.95007   0.00007   0.00000  -0.00001  -0.00004   1.95003
   A54        1.94365  -0.00107   0.00000  -0.00811  -0.00812   1.93553
   A55        1.93480   0.00030   0.00000   0.00387   0.00387   1.93867
   A56        1.88325   0.00010   0.00000  -0.00312  -0.00315   1.88010
   A57        1.87163   0.00016   0.00000   0.00399   0.00398   1.87561
   A58        1.87710   0.00049   0.00000   0.00380   0.00381   1.88092
    D1        3.13776   0.00082   0.00000   0.04673   0.04569  -3.09973
    D2        0.00636  -0.00029   0.00000  -0.02772  -0.02669  -0.02033
    D3        1.16569  -0.00184   0.00000  -0.07013  -0.07050   1.09518
    D4       -0.99485   0.00120   0.00000  -0.03087  -0.03110  -1.02595
    D5       -2.99284  -0.00139   0.00000  -0.06413  -0.06446  -3.05731
    D6       -1.98618  -0.00082   0.00000   0.00459   0.00484  -1.98134
    D7        2.13647   0.00223   0.00000   0.04385   0.04424   2.18071
    D8        0.13847  -0.00037   0.00000   0.01059   0.01088   0.14935
    D9        3.01273   0.00063   0.00000   0.04798   0.04778   3.06051
   D10       -1.10240  -0.00012   0.00000   0.03013   0.03003  -1.07237
   D11        0.90864   0.00006   0.00000   0.04104   0.04080   0.94944
   D12       -1.15020   0.00010   0.00000   0.02624   0.02641  -1.12379
   D13        1.01785  -0.00065   0.00000   0.00840   0.00866   1.02652
   D14        3.02889  -0.00047   0.00000   0.01930   0.01943   3.04832
   D15        0.91749   0.00130   0.00000   0.05029   0.05026   0.96774
   D16        3.08554   0.00056   0.00000   0.03244   0.03251   3.11805
   D17       -1.18661   0.00073   0.00000   0.04335   0.04328  -1.14333
   D18        1.17527   0.00027   0.00000  -0.00684  -0.00684   1.16843
   D19       -2.94190  -0.00061   0.00000  -0.03285  -0.03273  -2.97463
   D20       -0.95929  -0.00002   0.00000  -0.01730  -0.01726  -0.97655
   D21       -0.98635   0.00155   0.00000   0.01883   0.01886  -0.96748
   D22        1.17967   0.00067   0.00000  -0.00718  -0.00704   1.17264
   D23       -3.12091   0.00126   0.00000   0.00838   0.00844  -3.11247
   D24       -2.98985  -0.00095   0.00000  -0.01797  -0.01815  -3.00800
   D25       -0.82384  -0.00183   0.00000  -0.04398  -0.04405  -0.86788
   D26        1.15877  -0.00125   0.00000  -0.02843  -0.02857   1.13020
   D27        1.58800  -0.00162   0.00000  -0.07827  -0.07814   1.50987
   D28       -2.60168  -0.00088   0.00000  -0.05088  -0.05083  -2.65251
   D29       -0.61035   0.00018   0.00000  -0.02911  -0.02924  -0.63959
   D30       -0.57930  -0.00017   0.00000  -0.04660  -0.04649  -0.62579
   D31        1.51420   0.00057   0.00000  -0.01921  -0.01918   1.49502
   D32       -2.77766   0.00163   0.00000   0.00256   0.00241  -2.77525
   D33       -2.56704  -0.00161   0.00000  -0.07128  -0.07117  -2.63821
   D34       -0.47354  -0.00086   0.00000  -0.04389  -0.04386  -0.51740
   D35        1.51779   0.00019   0.00000  -0.02212  -0.02227   1.49552
   D36       -1.11252   0.00116   0.00000   0.03463   0.03452  -1.07800
   D37        1.04709   0.00053   0.00000   0.01519   0.01513   1.06222
   D38        3.04438   0.00112   0.00000   0.02669   0.02658   3.07096
   D39        3.07092   0.00030   0.00000   0.00641   0.00637   3.07728
   D40       -1.05266  -0.00033   0.00000  -0.01304  -0.01302  -1.06568
   D41        0.94463   0.00026   0.00000  -0.00154  -0.00157   0.94306
   D42        1.09609  -0.00080   0.00000  -0.01535  -0.01525   1.08084
   D43       -3.02748  -0.00143   0.00000  -0.03479  -0.03464  -3.06212
   D44       -1.03019  -0.00084   0.00000  -0.02329  -0.02319  -1.05338
   D45       -2.98806  -0.00043   0.00000  -0.03148  -0.03147  -3.01953
   D46        1.17983  -0.00086   0.00000  -0.04252  -0.04251   1.13731
   D47       -0.85304  -0.00085   0.00000  -0.04114  -0.04113  -0.89417
   D48        1.13438   0.00060   0.00000  -0.00911  -0.00912   1.12526
   D49       -0.98092   0.00017   0.00000  -0.02015  -0.02017  -1.00108
   D50       -3.01378   0.00018   0.00000  -0.01877  -0.01878  -3.03256
   D51       -0.87045   0.00009   0.00000  -0.01963  -0.01962  -0.89007
   D52       -2.98574  -0.00034   0.00000  -0.03066  -0.03067  -3.01641
   D53        1.26458  -0.00033   0.00000  -0.02929  -0.02928   1.23529
   D54        3.08949   0.00025   0.00000   0.01077   0.01075   3.10023
   D55       -1.04182  -0.00045   0.00000  -0.00657  -0.00655  -1.04837
   D56        0.97172  -0.00038   0.00000  -0.00181  -0.00181   0.96991
   D57       -1.07812   0.00073   0.00000   0.02258   0.02256  -1.05556
   D58        1.07376   0.00004   0.00000   0.00523   0.00526   1.07902
   D59        3.08729   0.00010   0.00000   0.01000   0.01001   3.09730
   D60        0.95309   0.00050   0.00000   0.01878   0.01875   0.97184
   D61        3.10497  -0.00019   0.00000   0.00144   0.00145   3.10642
   D62       -1.16468  -0.00013   0.00000   0.00620   0.00620  -1.15849
   D63        1.14729  -0.00066   0.00000  -0.03053  -0.03050   1.11680
   D64       -3.01576  -0.00025   0.00000  -0.02039  -0.02038  -3.03614
   D65       -1.00603  -0.00009   0.00000  -0.01427  -0.01429  -1.02033
   D66       -1.00656   0.00014   0.00000  -0.01117  -0.01115  -1.01771
   D67        1.11358   0.00054   0.00000  -0.00103  -0.00104   1.11254
   D68        3.12330   0.00070   0.00000   0.00509   0.00505   3.12835
   D69       -3.01234  -0.00074   0.00000  -0.02489  -0.02487  -3.03721
   D70       -0.89220  -0.00034   0.00000  -0.01476  -0.01475  -0.90696
   D71        1.11752  -0.00017   0.00000  -0.00864  -0.00867   1.10885
   D72       -1.12796   0.00071   0.00000   0.01958   0.01957  -1.10839
   D73        0.97945   0.00014   0.00000   0.00992   0.00993   0.98938
   D74        3.06867   0.00026   0.00000   0.01193   0.01192   3.08059
   D75        3.03405   0.00063   0.00000   0.01316   0.01316   3.04721
   D76       -1.14173   0.00007   0.00000   0.00351   0.00352  -1.13821
   D77        0.94749   0.00019   0.00000   0.00552   0.00551   0.95301
   D78        1.02700  -0.00021   0.00000  -0.00045  -0.00045   1.02655
   D79        3.13441  -0.00078   0.00000  -0.01010  -0.01009   3.12432
   D80       -1.05956  -0.00066   0.00000  -0.00809  -0.00809  -1.06765
         Item               Value     Threshold  Converged?
 Maximum Force            0.017173     0.000450     NO 
 RMS     Force            0.002796     0.000300     NO 
 Maximum Displacement     0.694138     0.001800     NO 
 RMS     Displacement     0.131999     0.001200     NO 
 Predicted change in Energy=-2.628989D-03
 GradGradGradGradGradGradGradGradGradGradGradGradGradGradGradGradGradGrad

                          Input orientation:                          
 ---------------------------------------------------------------------
 Center     Atomic      Atomic             Coordinates (Angstroms)
 Number     Number       Type             X           Y           Z
 ---------------------------------------------------------------------
      1          8           0        5.153910   -0.222597   -1.716807
      2          6           0        4.977433   -0.491536   -0.402081
      3          6           0        3.705104   -1.262405   -0.142083
      4          6           0        3.712899   -2.640909   -0.816352
      5          6           0        2.474042   -3.477888   -0.465298
      6          6           0        1.134914   -2.944006   -1.010742
      7          6           0        0.788473   -3.400192   -2.435121
      8          6           0        1.779391   -2.953836   -3.516672
      9          6           0        1.299978   -3.287236   -4.933387
     10          6           0        2.244770   -2.800891   -6.040823
     11          6           0        3.625289   -3.465767   -6.017124
     12          8           0        5.806210   -0.190746    0.430335
     13          1           0        6.007695    0.236845   -1.792922
     14          1           0        2.866374   -0.664510   -0.515952
     15          1           0        3.601088   -1.357826    0.941421
     16          1           0        3.793833   -2.509390   -1.899268
     17          1           0        4.612619   -3.181623   -0.498322
     18          1           0        2.628002   -4.498916   -0.835921
     19          1           0        2.413632   -3.560319    0.627497
     20          1           0        0.325766   -3.264266   -0.342685
     21          1           0        1.129832   -1.847327   -0.978521
     22          1           0        0.713257   -4.495636   -2.448292
     23          1           0       -0.211071   -3.022202   -2.688326
     24          1           0        2.749545   -3.431796   -3.340962
     25          1           0        1.945626   -1.871158   -3.437231
     26          1           0        1.168526   -4.374104   -5.023047
     27          1           0        0.307374   -2.843859   -5.087874
     28          1           0        1.773877   -2.984408   -7.014622
     29          1           0        2.364407   -1.712888   -5.958303
     30          1           0        4.173102   -3.229550   -5.099482
     31          1           0        3.535209   -4.555844   -6.080534
     32          1           0        4.237793   -3.131516   -6.860698
 ---------------------------------------------------------------------
                    Distance matrix (angstroms):
                    1          2          3          4          5
     1  O    0.000000
     2  C    1.353506   0.000000
     3  C    2.379075   1.510185   0.000000
     4  C    2.955600   2.527938   1.534592   0.000000
     5  C    4.398283   3.897340   2.555062   1.535754   0.000000
     6  C    4.904786   4.598916   3.191900   2.603010   1.541364
     7  C    5.447030   5.490074   4.281926   3.427709   2.593720
     8  C    4.699634   5.098144   4.237589   3.335882   3.173020
     9  C    5.881428   6.470885   5.730721   4.815590   4.623700
[...]
 Alpha virt. eigenvalues --    4.08181   4.11547   4.12832   4.14832   4.16834
 Alpha virt. eigenvalues --    4.22577   4.24871   4.26454   4.29627   4.31012
 Alpha virt. eigenvalues --    4.36512   4.38052   4.40223   4.41983   4.45258
 Alpha virt. eigenvalues --    4.46285   4.49559   4.51580   4.52745   4.55932
 Alpha virt. eigenvalues --    4.56040   4.57748   4.59510   4.60897   4.63684
 Alpha virt. eigenvalues --    4.64446   4.65679   4.69641   4.72198   4.74226
 Alpha virt. eigenvalues --    4.75621   4.78852   4.80959   4.83697   4.90538
 Alpha virt. eigenvalues --    5.01923   5.05478   5.08823   5.17218   5.20504
 Alpha virt. eigenvalues --    5.22618   5.39028   5.40393   5.50821   5.59658
 Alpha virt. eigenvalues --    5.73540   5.84953   5.86720   6.15799   6.19391
 Alpha virt. eigenvalues --    6.32551   6.33918   6.45080   6.48137   6.64834
 Alpha virt. eigenvalues --    6.69072   6.74143   6.81279   6.89107   7.07280
 Alpha virt. eigenvalues --    7.08331   7.27815  22.42587  22.48801  22.53051
 Alpha virt. eigenvalues --   22.56123  22.59290  22.60242  22.60914  22.63056
 Alpha virt. eigenvalues --   22.67179  23.27734  43.92812  43.98779
          Condensed to atoms (all electrons):
               1          2          3          4          5          6
     1  O    7.973431   0.360240  -0.132889   0.002195  -0.001020  -0.000005
     2  C    0.360240   4.440085   0.274399  -0.012311  -0.002266   0.002051
     3  C   -0.132889   0.274399   5.372601   0.151461  -0.020934   0.004986
     4  C    0.002195  -0.012311   0.151461   5.336030   0.193520  -0.029749
     5  C   -0.001020  -0.002266  -0.020934   0.193520   5.291042   0.193158
     6  C   -0.000005   0.002051   0.004986  -0.029749   0.193158   5.206526
     7  C    0.000140   0.000222  -0.001826   0.007724  -0.041271   0.246197
     8  C   -0.000456  -0.000170  -0.001687  -0.006023   0.024182  -0.046674
     9  C    0.000019   0.000000  -0.000367   0.002590  -0.001768   0.007511
    10  C   -0.000018  -0.000002   0.000008  -0.000033   0.000145  -0.000787
    11  C   -0.000065  -0.000006   0.000027  -0.000117  -0.000025   0.000164
    12  O   -0.094223   0.682313  -0.095478   0.000516  -0.001181   0.000073
    13  H    0.288055  -0.025397   0.018741  -0.000360   0.000151  -0.000008
    14  H    0.005195  -0.014178   0.386740  -0.045086  -0.010598   0.007265
    15  H    0.004641  -0.034738   0.416204  -0.031651  -0.002647  -0.001906
    16  H    0.006208  -0.003108  -0.062252   0.445768  -0.037681  -0.009710
    17  H    0.000043   0.001242  -0.043573   0.417870  -0.041889   0.008978
    18  H    0.000017  -0.000317   0.008873  -0.055433   0.427338  -0.043971
    19  H   -0.000029   0.000212  -0.010914  -0.033299   0.436366  -0.057978
    20  H   -0.000001  -0.000028   0.001014   0.004006  -0.041641   0.444745
    21  H   -0.000011   0.000598  -0.003735  -0.000117  -0.065355   0.439644
    22  H    0.000000   0.000009  -0.000047   0.002490  -0.016206  -0.033092
    23  H   -0.000001  -0.000006  -0.000009  -0.001042   0.010751  -0.050575
    24  H   -0.000379  -0.000045   0.000226  -0.010991   0.012794  -0.012537
    25  H    0.001036   0.000360  -0.000856   0.003175  -0.007826   0.008734
    26  H   -0.000000   0.000000  -0.000003   0.000045  -0.000049  -0.000040
    27  H   -0.000000  -0.000000   0.000008  -0.000095   0.000024  -0.000130
    28  H   -0.000000   0.000000  -0.000000   0.000004  -0.000006   0.000037
    29  H    0.000008   0.000002  -0.000007  -0.000001   0.000027  -0.000068
    30  H    0.000236   0.000017   0.000013   0.000322  -0.000183   0.000160
    31  H    0.000001   0.000000  -0.000000  -0.000016   0.000011  -0.000008
    32  H    0.000001   0.000000  -0.000001  -0.000002   0.000004  -0.000005
               7          8          9         10         11         12
     1  O    0.000140  -0.000456   0.000019  -0.000018  -0.000065  -0.094223
     2  C    0.000222  -0.000170   0.000000  -0.000002  -0.000006   0.682313
     3  C   -0.001826  -0.001687  -0.000367   0.000008   0.000027  -0.095478
     4  C    0.007724  -0.006023   0.002590  -0.000033  -0.000117   0.000516
     5  C   -0.041271   0.024182  -0.001768   0.000145  -0.000025  -0.001181
     6  C    0.246197  -0.046674   0.007511  -0.000787   0.000164   0.000073
     7  C    5.214135   0.187146  -0.037303   0.009316  -0.000385   0.000004
     8  C    0.187146   5.440636   0.176543  -0.049217   0.020150  -0.000011
     9  C   -0.037303   0.176543   5.225944   0.257932  -0.062406  -0.000000
    10  C    0.009316  -0.049217   0.257932   5.109377   0.255822  -0.000000
    11  C   -0.000385   0.020150  -0.062406   0.255822   5.093611  -0.000000
    12  O    0.000004  -0.000011  -0.000000  -0.000000  -0.000000   7.819407
    13  H   -0.000009   0.000052   0.000003  -0.000000  -0.000002   0.006954
    14  H   -0.000662   0.000100  -0.000128   0.000014  -0.000001   0.002770
    15  H    0.000225  -0.000094   0.000006  -0.000000   0.000000   0.006640
    16  H    0.004184  -0.008724   0.001992  -0.000227  -0.000058   0.000241
    17  H   -0.000885   0.000486  -0.000078   0.000005  -0.000006   0.002655
    18  H    0.003921  -0.006685  -0.000257   0.000022   0.000013   0.000004
    19  H    0.007765  -0.000584   0.000097  -0.000004   0.000000  -0.000018
    20  H   -0.060335   0.012668  -0.000645   0.000031   0.000001   0.000000
    21  H   -0.042371  -0.011934  -0.000719  -0.000018   0.000018  -0.000010
    22  H    0.440443  -0.061532  -0.004287  -0.000408   0.000194  -0.000000
    23  H    0.441911  -0.052709  -0.005523   0.000249  -0.000154  -0.000000
    24  H   -0.040187   0.421563  -0.033873  -0.006772  -0.001182   0.000000
    25  H   -0.043898   0.401912  -0.032605  -0.000057  -0.002362   0.000006
    26  H   -0.001613  -0.069003   0.444345  -0.036684  -0.009958  -0.000000
    27  H   -0.007609  -0.047525   0.432074  -0.040409   0.009026   0.000000
    28  H   -0.000580   0.014103  -0.062170   0.437147  -0.038541  -0.000000
    29  H   -0.000250  -0.013818  -0.036705   0.430058  -0.054282   0.000000
    30  H    0.000454   0.009612  -0.015603  -0.041168   0.417141   0.000000
    31  H   -0.000185  -0.005514   0.006525  -0.048583   0.407233   0.000000
    32  H    0.000053  -0.000901   0.011404  -0.041689   0.413992   0.000000
              13         14         15         16         17         18
     1  O    0.288055   0.005195   0.004641   0.006208   0.000043   0.000017
     2  C   -0.025397  -0.014178  -0.034738  -0.003108   0.001242  -0.000317
     3  C    0.018741   0.386740   0.416204  -0.062252  -0.043573   0.008873
     4  C   -0.000360  -0.045086  -0.031651   0.445768   0.417870  -0.055433
     5  C    0.000151  -0.010598  -0.002647  -0.037681  -0.041889   0.427338
     6  C   -0.000008   0.007265  -0.001906  -0.009710   0.008978  -0.043971
     7  C   -0.000009  -0.000662   0.000225   0.004184  -0.000885   0.003921
     8  C    0.000052   0.000100  -0.000094  -0.008724   0.000486  -0.006685
     9  C    0.000003  -0.000128   0.000006   0.001992  -0.000078  -0.000257
    10  C   -0.000000   0.000014  -0.000000  -0.000227   0.000005   0.000022
    11  C   -0.000002  -0.000001   0.000000  -0.000058  -0.000006   0.000013
    12  O    0.006954   0.002770   0.006640   0.000241   0.002655   0.000004
    13  H    0.378265  -0.000824  -0.000658  -0.000586  -0.000302  -0.000003
    14  H   -0.000824   0.527311  -0.017378   0.002286   0.006196  -0.000387
    15  H   -0.000658  -0.017378   0.495819   0.004535  -0.001518   0.000350
    16  H   -0.000586   0.002286   0.004535   0.496483  -0.015803  -0.001040
    17  H   -0.000302   0.006196  -0.001518  -0.015803   0.518587  -0.007336
    18  H   -0.000003  -0.000387   0.000350  -0.001040  -0.007336   0.522503
    19  H    0.000003   0.001212   0.001250   0.004575  -0.003051  -0.016797
    20  H   -0.000000   0.000031  -0.000208  -0.000391  -0.000235   0.001476
    21  H    0.000005  -0.004676   0.000994   0.001654  -0.000481   0.006000
    22  H    0.000000  -0.000017   0.000002   0.000002  -0.000054   0.003865
    23  H   -0.000000   0.000064  -0.000002  -0.000143   0.000036   0.000056
    24  H    0.000004   0.000155  -0.000031  -0.001595   0.000465  -0.000274
    25  H   -0.000038   0.000379   0.000021  -0.004418   0.000076   0.000737
    26  H   -0.000000   0.000003  -0.000000  -0.000078   0.000003   0.000038
    27  H   -0.000000   0.000001  -0.000000  -0.000022   0.000001   0.000005
    28  H    0.000000  -0.000000   0.000000   0.000006  -0.000000  -0.000000
    29  H    0.000001   0.000002  -0.000000   0.000017   0.000001  -0.000001
    30  H    0.000005  -0.000007   0.000000   0.000067  -0.000028   0.000003
    31  H    0.000000   0.000000  -0.000000   0.000043   0.000001   0.000002
    32  H   -0.000000   0.000000  -0.000000  -0.000016   0.000000  -0.000000
              19         20         21         22         23         24
     1  O   -0.000029  -0.000001  -0.000011   0.000000  -0.000001  -0.000379
     2  C    0.000212  -0.000028   0.000598   0.000009  -0.000006  -0.000045
     3  C   -0.010914   0.001014  -0.003735  -0.000047  -0.000009   0.000226
     4  C   -0.033299   0.004006  -0.000117   0.002490  -0.001042  -0.010991
     5  C    0.436366  -0.041641  -0.065355  -0.016206   0.010751   0.012794
     6  C   -0.057978   0.444745   0.439644  -0.033092  -0.050575  -0.012537
     7  C    0.007765  -0.060335  -0.042371   0.440443   0.441911  -0.040187
     8  C   -0.000584   0.012668  -0.011934  -0.061532  -0.052709   0.421563
     9  C    0.000097  -0.000645  -0.000719  -0.004287  -0.005523  -0.033873
    10  C   -0.000004   0.000031  -0.000018  -0.000408   0.000249  -0.006772
    11  C    0.000000   0.000001   0.000018   0.000194  -0.000154  -0.001182
    12  O   -0.000018   0.000000  -0.000010  -0.000000  -0.000000   0.000000
    13  H    0.000003  -0.000000   0.000005   0.000000  -0.000000   0.000004
    14  H    0.001212   0.000031  -0.004676  -0.000017   0.000064   0.000155
    15  H    0.001250  -0.000208   0.000994   0.000002  -0.000002  -0.000031
    16  H    0.004575  -0.000391   0.001654   0.000002  -0.000143  -0.001595
    17  H   -0.003051  -0.000235  -0.000481  -0.000054   0.000036   0.000465
    18  H   -0.016797   0.001476   0.006000   0.003865   0.000056  -0.000274
    19  H    0.522352  -0.011069   0.002275  -0.000248  -0.000293   0.000326
    20  H   -0.011069   0.532515  -0.019868  -0.002434  -0.006914  -0.000631
    21  H    0.002275  -0.019868   0.542867   0.006464  -0.002863   0.001454
    22  H   -0.000248  -0.002434   0.006464   0.530635  -0.022096  -0.003314
    23  H   -0.000293  -0.006914  -0.002863  -0.022096   0.540418   0.006664
    24  H    0.000326  -0.000631   0.001454  -0.003314   0.006664   0.567168
    25  H   -0.000220   0.000146   0.000958   0.006317  -0.001503  -0.032934
    26  H   -0.000007   0.000013  -0.000040   0.001496   0.000662  -0.003425
    27  H    0.000002  -0.000047   0.000192   0.000898   0.002597   0.006422
    28  H    0.000000  -0.000000  -0.000001   0.000014  -0.000071  -0.000602
    29  H   -0.000000  -0.000001  -0.000012  -0.000039   0.000159   0.001490
    30  H   -0.000000   0.000002  -0.000003   0.000026  -0.000043  -0.008861
    31  H    0.000000  -0.000000  -0.000000  -0.000012   0.000019   0.000724
    32  H   -0.000000   0.000000  -0.000000  -0.000005   0.000003   0.000461
              25         26         27         28         29         30
     1  O    0.001036  -0.000000  -0.000000  -0.000000   0.000008   0.000236
     2  C    0.000360   0.000000  -0.000000   0.000000   0.000002   0.000017
     3  C   -0.000856  -0.000003   0.000008  -0.000000  -0.000007   0.000013
     4  C    0.003175   0.000045  -0.000095   0.000004  -0.000001   0.000322
     5  C   -0.007826  -0.000049   0.000024  -0.000006   0.000027  -0.000183
     6  C    0.008734  -0.000040  -0.000130   0.000037  -0.000068   0.000160
     7  C   -0.043898  -0.001613  -0.007609  -0.000580  -0.000250   0.000454
     8  C    0.401912  -0.069003  -0.047525   0.014103  -0.013818   0.009612
     9  C   -0.032605   0.444345   0.432074  -0.062170  -0.036705  -0.015603
    10  C   -0.000057  -0.036684  -0.040409   0.437147   0.430058  -0.041168
    11  C   -0.002362  -0.009958   0.009026  -0.038541  -0.054282   0.417141
    12  O    0.000006  -0.000000   0.000000  -0.000000   0.000000   0.000000
    13  H   -0.000038  -0.000000  -0.000000   0.000000   0.000001   0.000005
    14  H    0.000379   0.000003   0.000001  -0.000000   0.000002  -0.000007
    15  H    0.000021  -0.000000  -0.000000   0.000000  -0.000000   0.000000
    16  H   -0.004418  -0.000078  -0.000022   0.000006   0.000017   0.000067
    17  H    0.000076   0.000003   0.000001  -0.000000   0.000001  -0.000028
    18  H    0.000737   0.000038   0.000005  -0.000000  -0.000001   0.000003
    19  H   -0.000220  -0.000007   0.000002   0.000000  -0.000000  -0.000000
    20  H    0.000146   0.000013  -0.000047  -0.000000  -0.000001   0.000002
    21  H    0.000958  -0.000040   0.000192  -0.000001  -0.000012  -0.000003
    22  H    0.006317   0.001496   0.000898   0.000014  -0.000039   0.000026
    23  H   -0.001503   0.000662   0.002597  -0.000071   0.000159  -0.000043
    24  H   -0.032934  -0.003425   0.006422  -0.000602   0.001490  -0.008861
    25  H    0.543059   0.006884  -0.004082   0.000147   0.002126   0.000695
    26  H    0.006884   0.538985  -0.023928  -0.002725   0.006652   0.001397
    27  H   -0.004082  -0.023928   0.545199  -0.006981  -0.002611  -0.000655
    28  H    0.000147  -0.002725  -0.006981   0.551751  -0.024604   0.006356
    29  H    0.002126   0.006652  -0.002611  -0.024604   0.555861  -0.003504
    30  H    0.000695   0.001397  -0.000655   0.006356  -0.003504   0.547796
    31  H    0.000210   0.002274   0.000161  -0.003348   0.007630  -0.031489
    32  H   -0.000113  -0.000280  -0.000293  -0.005626  -0.003630  -0.023714
              31         32
     1  O    0.000001   0.000001
     2  C    0.000000   0.000000
     3  C   -0.000000  -0.000001
     4  C   -0.000016  -0.000002
     5  C    0.000011   0.000004
     6  C   -0.000008  -0.000005
     7  C   -0.000185   0.000053
     8  C   -0.005514  -0.000901
     9  C    0.006525   0.011404
    10  C   -0.048583  -0.041689
    11  C    0.407233   0.413992
    12  O    0.000000   0.000000
    13  H    0.000000  -0.000000
    14  H    0.000000   0.000000
    15  H   -0.000000  -0.000000
    16  H    0.000043  -0.000016
    17  H    0.000001   0.000000
    18  H    0.000002  -0.000000
    19  H    0.000000  -0.000000
    20  H   -0.000000   0.000000
    21  H   -0.000000  -0.000000
    22  H   -0.000012  -0.000005
    23  H    0.000019   0.000003
    24  H    0.000724   0.000461
    25  H    0.000210  -0.000113
    26  H    0.002274  -0.000280
    27  H    0.000161  -0.000293
    28  H   -0.003348  -0.005626
    29  H    0.007630  -0.003630
    30  H   -0.031489  -0.023714
    31  H    0.548399  -0.022653
    32  H   -0.022653   0.529362
 Mulliken charges:
               1
     1  O   -0.412372
     2  C    0.330821
     3  C   -0.260723
     4  C   -0.341390
     5  C   -0.296965
     6  C   -0.282985
     7  C   -0.284467
     8  C   -0.325892
     9  C   -0.272550
    10  C   -0.234047
    11  C   -0.447843
    12  O   -0.330664
    13  H    0.335947
    14  H    0.154218
    15  H    0.160145
    16  H    0.177793
    17  H    0.158596
    18  H    0.157280
    19  H    0.158073
    20  H    0.147802
    21  H    0.149092
    22  H    0.150938
    23  H    0.140359
    24  H    0.137717
    25  H    0.153932
    26  H    0.145036
    27  H    0.137780
    28  H    0.135690
    29  H    0.135497
    30  H    0.140958
    31  H    0.138577
    32  H    0.143647
 Sum of Mulliken charges =  -0.00000
 Mulliken charges with hydrogens summed into heavy atoms:
               1
     1  O   -0.076425
     2  C    0.330821
     3  C    0.053640
     4  C   -0.005001
     5  C    0.018389
     6  C    0.013908
     7  C    0.006830
     8  C   -0.034243
     9  C    0.010266
    10  C    0.037139
    11  C   -0.024661
    12  O   -0.330664
 Electronic spatial extent (au):  <R**2>=           3573.7105
 Charge=              0.0000 electrons
 Dipole moment (field-independent basis, Debye):
    X=             -2.1011    Y=              0.5132    Z=             -0.2459  Tot=              2.1768
 Quadrupole moment (field-independent basis, Debye-Ang):
   XX=            -92.8585   YY=            -72.6501   ZZ=            -76.8176
   XY=              2.3801   XZ=             -1.5153   YZ=              0.9924
 Traceless Quadrupole moment (field-independent basis, Debye-Ang):
   XX=            -12.0831   YY=              8.1253   ZZ=              3.9578
   XY=              2.3801   XZ=             -1.5153   YZ=              0.9924
 Octapole moment (field-independent basis, Debye-Ang**2):
  XXX=            -69.0280  YYY=            -32.5126  ZZZ=             -2.8093  XYY=             22.2208
  XXY=             12.2413  XXZ=             -7.1379  XZZ=             10.3911  YZZ=             -2.5470
  YYZ=             -4.0178  XYZ=              2.8631
 Hexadecapole moment (field-independent basis, Debye-Ang**3):
 XXXX=          -3731.8406 YYYY=          -1155.8377 ZZZZ=           -291.7638 XXXY=             81.9769
 XXXZ=            -33.0162 YYYX=            -90.7859 YYYZ=             19.5512 ZZZX=             -2.9810
 ZZZY=              6.8722 XXYY=           -724.5074 XXZZ=           -581.9481 YYZZ=           -260.6190
 XXYZ=             17.2139 YYXZ=             -9.9048 ZZXY=            -19.9380
 N-N= 7.216893809069D+02 E-N=-2.708129136583D+03  KE= 5.405728704148D+02
 Unable to Open any file for archive entry.
 1\1\GINC-NOTCH075\SP\RM062X\def2TZVP\C10H20O2\U6032257\03-Feb-2022\0\\
 # M062X/def2tzvp int=(grid=ultrafine) nmr=giao guess=read geom=check\\
 Ac1.xyz\\0,1\O,0,5.090251728,-0.2309712155,-1.7291091289\C,0,4.9902189
 359,-0.5005813477,-0.4000790711\C,0,3.734122591,-1.2739399672,-0.08440
 04211\C,0,3.724974581,-2.6634657026,-0.747871177\C,0,2.4559725856,-3.4
 716126951,-0.4318672326\C,0,1.139238797,-2.9295338208,-1.0221246554\C,
 0,0.8085599322,-3.3920028356,-2.4492357392\C,0,1.7927519682,-2.9543434
 218,-3.5390008136\C,0,1.3024957533,-3.291955111,-4.9506803963\C,0,2.23
 21210567,-2.8089934565,-6.0724608432\C,0,3.6207657846,-3.4549545632,-6
 .0557436341\O,0,5.8364841931,-0.1537609875,0.3935018525\H,0,5.92866554
 68,0.247957379,-1.8400330761\H,0,2.879410571,-0.6864132448,-0.43683954
 96\H,0,3.666588183,-1.3598261303,1.0025515232\H,0,3.8506192191,-2.5380
 960791,-1.825331861\H,0,4.5983680412,-3.2234882105,-0.3925666743\H,0,2
 .6004913529,-4.5035589758,-0.7773464911\H,0,2.3598578548,-3.5329432673
 ,0.6597966345\H,0,0.3144837957,-3.2433983449,-0.3713099592\H,0,1.13596
 97756,-1.8320365417,-0.9900660246\H,0,0.7287052985,-4.4881930103,-2.45
 97404591\H,0,-0.1904756153,-3.0156679941,-2.707795441\H,0,2.7627617053
 ,-3.4330045136,-3.3696551842\H,0,1.9669788869,-1.8712015897,-3.4648330
 463\H,0,1.1674728784,-4.379764287,-5.0351274871\H,0,0.3077469023,-2.85
 00760822,-5.0960367346\H,0,1.7539381442,-3.0117461509,-7.0387814313\H,
 0,2.3369057593,-1.717599379,-6.00723865\H,0,4.178583728,-3.1952295235,
 -5.150696276\H,0,3.545821873,-4.5478324116,-6.0965978754\H,0,4.2180481
 927,-3.1300665181,-6.9134806768\\Version=ES64L-G16RevC.01\State=1-A\HF
 =-543.537866\RMSD=2.653e-09\Dipole=-0.5670484,-0.3243549,-0.5538281\Qu
 adrupole=-0.1673801,2.2442725,-2.0768923,-1.6016105,-6.4815772,-4.3136
 142\PG=C01 [X(C10H20O2)]\\@
 The archive entry for this job was punched.


 ERROR IS A HARDY PLANT... IT FLOURISHETH IN EVERY SOIL.
            MARTIN FARQUHAR TUPPER
 Job cpu time:       0 days  0 hours 39 minutes 15.3 seconds.
 Elapsed time:       0 days  0 hours  1 minutes 25.2 seconds.
 File lengths (MBytes):  RWF=    140 Int=      0 D2E=      0 Chk=     24 Scr=      1
 Normal termination of Gaussian 16 at Thu Feb  3 06:27:04 2022.
