 Entering Gaussian System, Link 0=/uufs/chpc.utah.edu/sys/installdir/gaussian16/C01/AVX2/g16/g16
 Input=Ac1_clust-37.com
 Output=Ac1_clust-37.log
 Initial command:
 /uufs/chpc.utah.edu/sys/installdir/gaussian16/C01/AVX2/g16/l1.exe "/scratch/general/lustre/u6032257/3857494/notchpeak.peaks/Gau-37696.inp" -scrdir="/scratch/general/lustre/u6032257/3857494/notchpeak.peaks/"
 Entering Link 1 = /uufs/chpc.utah.edu/sys/installdir/gaussian16/C01/AVX2/g16/l1.exe PID=     37698.
  
 Copyright (c) 1988-2019, Gaussian, Inc.  All Rights Reserved.
  
 This is part of the Gaussian(R) 16 program.  It is based on
 the Gaussian(R) 09 system (copyright 2009, Gaussian, Inc.),
 the Gaussian(R) 03 system (copyright 2003, Gaussian, Inc.),
 the Gaussian(R) 98 system (copyright 1998, Gaussian, Inc.),
 the Gaussian(R) 94 system (copyright 1995, Gaussian, Inc.),
 the Gaussian 92(TM) system (copyright 1992, Gaussian, Inc.),
 the Gaussian 90(TM) system (copyright 1990, Gaussian, Inc.),
 the Gaussian 88(TM) system (copyright 1988, Gaussian, Inc.),
 the Gaussian 86(TM) system (copyright 1986, Carnegie Mellon
 University), and the Gaussian 82(TM) system (copyright 1983,
 Carnegie Mellon University). Gaussian is a federally registered
 trademark of Gaussian, Inc.
  
 This software contains proprietary and confidential information,
 including trade secrets, belonging to Gaussian, Inc.
  
 This software is provided under written license and may be
 used, copied, transmitted, or stored only in accord with that
 written license.
  
 The following legend is applicable only to US Government
 contracts under FAR:
  
                    RESTRICTED RIGHTS LEGEND
  
 Use, reproduction and disclosure by the US Government is
 subject to restrictions as set forth in subparagraphs (a)
 and (c) of the Commercial Computer Software - Restricted
 Rights clause in FAR 52.227-19.
  
 Gaussian, Inc.
 340 Quinnipiac St., Bldg. 40, Wallingford CT 06492
  
  
 ---------------------------------------------------------------
 Warning -- This program may not be used in any manner that
 competes with the business of Gaussian, Inc. or will provide
 assistance to any competitor of Gaussian, Inc.  The licensee
 of this program is prohibited from giving any competitor of
 Gaussian, Inc. access to this program.  By using this program,
 the user acknowledges that Gaussian, Inc. is engaged in the
 business of creating and licensing software in the field of
 computational chemistry and represents and warrants to the
 licensee that it is not a competitor of Gaussian, Inc. and that
 it will not use this program in any manner prohibited above.
 ---------------------------------------------------------------
  

 Cite this work as:
 Gaussian 16, Revision C.01,
 M. J. Frisch, G. W. Trucks, H. B. Schlegel, G. E. Scuseria, 
 M. A. Robb, J. R. Cheeseman, G. Scalmani, V. Barone, 
 G. A. Petersson, H. Nakatsuji, X. Li, M. Caricato, A. V. Marenich, 
 J. Bloino, B. G. Janesko, R. Gomperts, B. Mennucci, H. P. Hratchian, 
 J. V. Ortiz, A. F. Izmaylov, J. L. Sonnenberg, D. Williams-Young, 
 F. Ding, F. Lipparini, F. Egidi, J. Goings, B. Peng, A. Petrone, 
 T. Henderson, D. Ranasinghe, V. G. Zakrzewski, J. Gao, N. Rega, 
 G. Zheng, W. Liang, M. Hada, M. Ehara, K. Toyota, R. Fukuda, 
 J. Hasegawa, M. Ishida, T. Nakajima, Y. Honda, O. Kitao, H. Nakai, 
 T. Vreven, K. Throssell, J. A. Montgomery, Jr., J. E. Peralta, 
 F. Ogliaro, M. J. Bearpark, J. J. Heyd, E. N. Brothers, K. N. Kudin, 
 V. N. Staroverov, T. A. Keith, R. Kobayashi, J. Normand, 
 K. Raghavachari, A. P. Rendell, J. C. Burant, S. S. Iyengar, 
 J. Tomasi, M. Cossi, J. M. Millam, M. Klene, C. Adamo, R. Cammi, 
 J. W. Ochterski, R. L. Martin, K. Morokuma, O. Farkas, 
 J. B. Foresman, and D. J. Fox, Gaussian, Inc., Wallingford CT, 2019.
 
 ******************************************
 Gaussian 16:  ES64L-G16RevC.01  3-Jul-2019
                 3-Feb-2022 
 ******************************************
 %NProcShared=32
 Will use up to   32 processors via shared memory.
 %mem=16GB
 %chk=Ac1_clust-37.chk
 ----------------------------------------------------------------------
 # B3LYP/6-31G(d,p) empiricaldispersion=GD3BJ int=(grid=ultrafine) opt 
 freq=noraman
 ----------------------------------------------------------------------
 1/18=20,19=15,26=4,38=1/1,3;
 2/9=110,12=2,17=6,18=5,40=1/2;
 3/5=1,6=6,7=101,11=2,25=1,30=1,71=1,74=-5,75=-5,124=41/1,2,3;
 4//1;
 5/5=2,38=5/2;
 6/7=2,8=2,9=2,10=2,28=1/1;
 7//1,2,3,16;
 1/18=20,19=15,26=4/3(2);
 2/9=110/2;
 99//99;
 2/9=110/2;
 3/5=1,6=6,7=101,11=2,25=1,30=1,71=1,74=-5,75=-5,124=41/1,2,3;
 4/5=5,16=3,69=1/1;
 5/5=2,38=5/2;
 7//1,2,3,16;
 1/18=20,19=15,26=4/3(-5);
 2/9=110/2;
 6/7=2,8=2,9=2,10=2,19=2,28=1/1;
 99/9=1/99;
 -------
 Ac1.xyz
 -------
 Symbolic Z-matrix:
 Charge =  0 Multiplicity = 1
 O                     5.7021   -0.7918    0.8147 
 C                     4.6646   -0.102     0.2931 
 C                     3.3862   -0.9325    0.2177 
 C                     3.4697   -2.1792   -0.6975 
 C                     3.6667   -1.854    -2.1939 
 C                     3.7829   -3.0967   -3.1016 
 C                     2.5477   -4.0249   -3.1315 
 C                     1.223    -3.3593   -3.5663 
 C                     1.2332   -2.7038   -4.9655 
 C                     1.568    -3.6457   -6.1404 
 C                     0.5676   -4.7976   -6.3254 
 O                     4.7442    1.0648   -0.0615 
 H                     6.4267   -0.166     0.8065 
 H                     2.5737   -0.2815   -0.1051 
 H                     3.1449   -1.2322    1.2369 
 H                     4.2673   -2.8417   -0.3535 
 H                     2.5475   -2.7493   -0.5763 
 H                     2.8531   -1.2163   -2.5426 
 H                     4.5724   -1.2583   -2.3193 
 H                     4.0073   -2.7701   -4.1181 
 H                     4.6526   -3.6795   -2.7934 
 H                     2.7574   -4.8669   -3.7927 
 H                     2.4099   -4.4744   -2.1474 
 H                     0.9414   -2.6071   -2.828 
 H                     0.4253   -4.1021   -3.5241 
 H                     0.2583   -2.2477   -5.1458 
 H                     1.9393   -1.8721   -4.9664 
 H                     1.5994   -3.059    -7.06 
 H                     2.5741   -4.05     -6.0203 
 H                    -0.449    -4.424    -6.4528 
 H                     0.8143   -5.3888   -7.2077 
 H                     0.5716   -5.4739   -5.4703 
 

 GradGradGradGradGradGradGradGradGradGradGradGradGradGradGradGradGradGrad
 Berny optimization.
 Initialization pass.
                           ----------------------------
                           !    Initial Parameters    !
                           ! (Angstroms and Degrees)  !
 --------------------------                            --------------------------
 ! Name  Definition              Value          Derivative Info.                !
 --------------------------------------------------------------------------------
 ! R1    R(1,2)                  1.3507         estimate D2E/DX2                !
 ! R2    R(1,13)                 0.9575         estimate D2E/DX2                !
 ! R3    R(2,3)                  1.5263         estimate D2E/DX2                !
 ! R4    R(2,12)                 1.2221         estimate D2E/DX2                !
 ! R5    R(3,4)                  1.5488         estimate D2E/DX2                !
 ! R6    R(3,14)                 1.09           estimate D2E/DX2                !
 ! R7    R(3,15)                 1.0894         estimate D2E/DX2                !
 ! R8    R(4,5)                  1.5439         estimate D2E/DX2                !
 ! R9    R(4,16)                 1.0924         estimate D2E/DX2                !
 ! R10   R(4,17)                 1.0909         estimate D2E/DX2                !
 ! R11   R(5,6)                  1.5433         estimate D2E/DX2                !
 ! R12   R(5,18)                 1.091          estimate D2E/DX2                !
 ! R13   R(5,19)                 1.0913         estimate D2E/DX2                !
 ! R14   R(6,7)                  1.5454         estimate D2E/DX2                !
 ! R15   R(6,20)                 1.091          estimate D2E/DX2                !
 ! R16   R(6,21)                 1.0913         estimate D2E/DX2                !
 ! R17   R(7,8)                  1.545          estimate D2E/DX2                !
 ! R18   R(7,22)                 1.0909         estimate D2E/DX2                !
 ! R19   R(7,23)                 1.0906         estimate D2E/DX2                !
 ! R20   R(8,9)                  1.5452         estimate D2E/DX2                !
 ! R21   R(8,24)                 1.091          estimate D2E/DX2                !
 ! R22   R(8,25)                 1.0908         estimate D2E/DX2                !
 ! R23   R(9,10)                 1.5426         estimate D2E/DX2                !
 ! R24   R(9,26)                 1.0913         estimate D2E/DX2                !
 ! R25   R(9,27)                 1.091          estimate D2E/DX2                !
 ! R26   R(10,11)                1.5368         estimate D2E/DX2                !
 ! R27   R(10,28)                1.0913         estimate D2E/DX2                !
 ! R28   R(10,29)                1.0909         estimate D2E/DX2                !
 ! R29   R(11,30)                1.0905         estimate D2E/DX2                !
 ! R30   R(11,31)                1.0903         estimate D2E/DX2                !
 ! R31   R(11,32)                1.0902         estimate D2E/DX2                !
 ! A1    A(2,1,13)             104.1353         estimate D2E/DX2                !
 ! A2    A(1,2,3)              112.6161         estimate D2E/DX2                !
 ! A3    A(1,2,12)             123.3415         estimate D2E/DX2                !
 ! A4    A(3,2,12)             124.0361         estimate D2E/DX2                !
 ! A5    A(2,3,4)              114.9617         estimate D2E/DX2                !
 ! A6    A(2,3,14)             108.2992         estimate D2E/DX2                !
 ! A7    A(2,3,15)             106.7973         estimate D2E/DX2                !
 ! A8    A(4,3,14)             110.2387         estimate D2E/DX2                !
 ! A9    A(4,3,15)             110.0794         estimate D2E/DX2                !
 ! A10   A(14,3,15)            106.0367         estimate D2E/DX2                !
 ! A11   A(3,4,5)              114.2074         estimate D2E/DX2                !
 ! A12   A(3,4,16)             109.9647         estimate D2E/DX2                !
 ! A13   A(3,4,17)             108.0243         estimate D2E/DX2                !
 ! A14   A(5,4,16)             109.863          estimate D2E/DX2                !
 ! A15   A(5,4,17)             109.0021         estimate D2E/DX2                !
 ! A16   A(16,4,17)            105.3839         estimate D2E/DX2                !
 ! A17   A(4,5,6)              114.208          estimate D2E/DX2                !
 ! A18   A(4,5,18)             109.7396         estimate D2E/DX2                !
 ! A19   A(4,5,19)             109.4052         estimate D2E/DX2                !
 ! A20   A(6,5,18)             109.8063         estimate D2E/DX2                !
 ! A21   A(6,5,19)             108.0279         estimate D2E/DX2                !
 ! A22   A(18,5,19)            105.2562         estimate D2E/DX2                !
 ! A23   A(5,6,7)              115.7755         estimate D2E/DX2                !
 ! A24   A(5,6,20)             108.81           estimate D2E/DX2                !
 ! A25   A(5,6,21)             108.8998         estimate D2E/DX2                !
 ! A26   A(7,6,20)             109.0368         estimate D2E/DX2                !
 ! A27   A(7,6,21)             108.7643         estimate D2E/DX2                !
 ! A28   A(20,6,21)            105.0151         estimate D2E/DX2                !
 ! A29   A(6,7,8)              115.5957         estimate D2E/DX2                !
 ! A30   A(6,7,22)             108.7637         estimate D2E/DX2                !
 ! A31   A(6,7,23)             109.3342         estimate D2E/DX2                !
 ! A32   A(8,7,22)             109.0723         estimate D2E/DX2                !
 ! A33   A(8,7,23)             108.8544         estimate D2E/DX2                !
 ! A34   A(22,7,23)            104.6593         estimate D2E/DX2                !
 ! A35   A(7,8,9)              115.5914         estimate D2E/DX2                !
 ! A36   A(7,8,24)             109.1419         estimate D2E/DX2                !
 ! A37   A(7,8,25)             108.8308         estimate D2E/DX2                !
 ! A38   A(9,8,24)             108.7852         estimate D2E/DX2                !
 ! A39   A(9,8,25)             109.1925         estimate D2E/DX2                !
 ! A40   A(24,8,25)            104.7482         estimate D2E/DX2                !
 ! A41   A(8,9,10)             115.6            estimate D2E/DX2                !
 ! A42   A(8,9,26)             108.7239         estimate D2E/DX2                !
 ! A43   A(8,9,27)             109.1726         estimate D2E/DX2                !
 ! A44   A(10,9,26)            108.8588         estimate D2E/DX2                !
 ! A45   A(10,9,27)            108.9275         estimate D2E/DX2                !
 ! A46   A(26,9,27)            105.0357         estimate D2E/DX2                !
 ! A47   A(9,10,11)            114.0826         estimate D2E/DX2                !
 ! A48   A(9,10,28)            108.6503         estimate D2E/DX2                !
 ! A49   A(9,10,29)            110.0351         estimate D2E/DX2                !
 ! A50   A(11,10,28)           108.6784         estimate D2E/DX2                !
 ! A51   A(11,10,29)           109.6216         estimate D2E/DX2                !
 ! A52   A(28,10,29)           105.3956         estimate D2E/DX2                !
 ! A53   A(10,11,30)           111.352          estimate D2E/DX2                !
 ! A54   A(10,11,31)           110.8873         estimate D2E/DX2                !
 ! A55   A(10,11,32)           111.6014         estimate D2E/DX2                !
 ! A56   A(30,11,31)           107.5862         estimate D2E/DX2                !
 ! A57   A(30,11,32)           107.9123         estimate D2E/DX2                !
 ! A58   A(31,11,32)           107.3074         estimate D2E/DX2                !
 ! D1    D(13,1,2,3)          -179.9201         estimate D2E/DX2                !
 ! D2    D(13,1,2,12)           -0.8019         estimate D2E/DX2                !
 ! D3    D(1,2,3,4)            -62.487          estimate D2E/DX2                !
 ! D4    D(1,2,3,14)           173.7445         estimate D2E/DX2                !
 ! D5    D(1,2,3,15)            59.9309         estimate D2E/DX2                !
 ! D6    D(12,2,3,4)           118.402          estimate D2E/DX2                !
 ! D7    D(12,2,3,14)           -5.3665         estimate D2E/DX2                !
 ! D8    D(12,2,3,15)         -119.1802         estimate D2E/DX2                !
 ! D9    D(2,3,4,5)            -65.2149         estimate D2E/DX2                !
 ! D10   D(2,3,4,16)            58.8179         estimate D2E/DX2                !
 ! D11   D(2,3,4,17)           173.3384         estimate D2E/DX2                !
 ! D12   D(14,3,4,5)            57.5195         estimate D2E/DX2                !
 ! D13   D(14,3,4,16)         -178.4478         estimate D2E/DX2                !
 ! D14   D(14,3,4,17)          -63.9273         estimate D2E/DX2                !
 ! D15   D(15,3,4,5)           174.1514         estimate D2E/DX2                !
 ! D16   D(15,3,4,16)          -61.8158         estimate D2E/DX2                !
 ! D17   D(15,3,4,17)           52.7047         estimate D2E/DX2                !
 ! D18   D(3,4,5,6)            178.6456         estimate D2E/DX2                !
 ! D19   D(3,4,5,18)           -57.5726         estimate D2E/DX2                !
 ! D20   D(3,4,5,19)            57.439          estimate D2E/DX2                !
 ! D21   D(16,4,5,6)            54.5584         estimate D2E/DX2                !
 ! D22   D(16,4,5,18)          178.3401         estimate D2E/DX2                !
 ! D23   D(16,4,5,19)          -66.6482         estimate D2E/DX2                !
 ! D24   D(17,4,5,6)           -60.4488         estimate D2E/DX2                !
 ! D25   D(17,4,5,18)           63.3329         estimate D2E/DX2                !
 ! D26   D(17,4,5,19)          178.3446         estimate D2E/DX2                !
 ! D27   D(4,5,6,7)             61.8049         estimate D2E/DX2                !
 ! D28   D(4,5,6,20)          -175.0245         estimate D2E/DX2                !
 ! D29   D(4,5,6,21)           -61.0766         estimate D2E/DX2                !
 ! D30   D(18,5,6,7)           -61.941          estimate D2E/DX2                !
 ! D31   D(18,5,6,20)           61.2296         estimate D2E/DX2                !
 ! D32   D(18,5,6,21)          175.1775         estimate D2E/DX2                !
 ! D33   D(19,5,6,7)          -176.2296         estimate D2E/DX2                !
 ! D34   D(19,5,6,20)          -53.0589         estimate D2E/DX2                !
 ! D35   D(19,5,6,21)           60.889          estimate D2E/DX2                !
 ! D36   D(5,6,7,8)             57.7135         estimate D2E/DX2                !
 ! D37   D(5,6,7,22)          -179.2353         estimate D2E/DX2                !
 ! D38   D(5,6,7,23)           -65.5041         estimate D2E/DX2                !
 ! D39   D(20,6,7,8)           -65.3379         estimate D2E/DX2                !
 ! D40   D(20,6,7,22)           57.7134         estimate D2E/DX2                !
 ! D41   D(20,6,7,23)          171.4445         estimate D2E/DX2                !
 ! D42   D(21,6,7,8)          -179.3337         estimate D2E/DX2                !
 ! D43   D(21,6,7,22)          -56.2824         estimate D2E/DX2                !
 ! D44   D(21,6,7,23)           57.4487         estimate D2E/DX2                !
 ! D45   D(6,7,8,9)             58.1544         estimate D2E/DX2                !
 ! D46   D(6,7,8,24)           -64.8144         estimate D2E/DX2                !
 ! D47   D(6,7,8,25)          -178.5853         estimate D2E/DX2                !
 ! D48   D(22,7,8,9)           -64.7338         estimate D2E/DX2                !
 ! D49   D(22,7,8,24)          172.2973         estimate D2E/DX2                !
 ! D50   D(22,7,8,25)           58.5265         estimate D2E/DX2                !
 ! D51   D(23,7,8,9)          -178.3755         estimate D2E/DX2                !
 ! D52   D(23,7,8,24)           58.6556         estimate D2E/DX2                !
 ! D53   D(23,7,8,25)          -55.1153         estimate D2E/DX2                !
 ! D54   D(7,8,9,10)            58.7921         estimate D2E/DX2                !
 ! D55   D(7,8,9,26)          -178.4665         estimate D2E/DX2                !
 ! D56   D(7,8,9,27)           -64.3962         estimate D2E/DX2                !
 ! D57   D(24,8,9,10)         -178.0507         estimate D2E/DX2                !
 ! D58   D(24,8,9,26)          -55.3093         estimate D2E/DX2                !
 ! D59   D(24,8,9,27)           58.7609         estimate D2E/DX2                !
 ! D60   D(25,8,9,10)          -64.2775         estimate D2E/DX2                !
 ! D61   D(25,8,9,26)           58.4639         estimate D2E/DX2                !
 ! D62   D(25,8,9,27)          172.5342         estimate D2E/DX2                !
 ! D63   D(8,9,10,11)           61.7601         estimate D2E/DX2                !
 ! D64   D(8,9,10,28)         -176.8348         estimate D2E/DX2                !
 ! D65   D(8,9,10,29)          -61.9165         estimate D2E/DX2                !
 ! D66   D(26,9,10,11)         -60.9099         estimate D2E/DX2                !
 ! D67   D(26,9,10,28)          60.4953         estimate D2E/DX2                !
 ! D68   D(26,9,10,29)         175.4135         estimate D2E/DX2                !
 ! D69   D(27,9,10,11)        -174.9225         estimate D2E/DX2                !
 ! D70   D(27,9,10,28)         -53.5174         estimate D2E/DX2                !
 ! D71   D(27,9,10,29)          61.4009         estimate D2E/DX2                !
 ! D72   D(9,10,11,30)          56.3559         estimate D2E/DX2                !
 ! D73   D(9,10,11,31)         176.1185         estimate D2E/DX2                !
 ! D74   D(9,10,11,32)         -64.3055         estimate D2E/DX2                !
 ! D75   D(28,10,11,30)        -65.0337         estimate D2E/DX2                !
 ! D76   D(28,10,11,31)         54.729          estimate D2E/DX2                !
 ! D77   D(28,10,11,32)        174.3049         estimate D2E/DX2                !
 ! D78   D(29,10,11,30)       -179.7446         estimate D2E/DX2                !
 ! D79   D(29,10,11,31)        -59.982          estimate D2E/DX2                !
 ! D80   D(29,10,11,32)         59.5939         estimate D2E/DX2                !
 --------------------------------------------------------------------------------
 Trust Radius=3.00D-01 FncErr=1.00D-07 GrdErr=1.00D-06 EigMax=2.50D+02 EigMin=1.00D-04
 Number of steps in this run=    179 maximum allowed number of steps=    192.
 GradGradGradGradGradGradGradGradGradGradGradGradGradGradGradGradGradGrad

                          Input orientation:                          
 ---------------------------------------------------------------------
 Center     Atomic      Atomic             Coordinates (Angstroms)
 Number     Number       Type             X           Y           Z
 ---------------------------------------------------------------------
      1          8           0        5.702100   -0.791800    0.814700
      2          6           0        4.664600   -0.102000    0.293100
      3          6           0        3.386200   -0.932500    0.217700
      4          6           0        3.469700   -2.179200   -0.697500
      5          6           0        3.666700   -1.854000   -2.193900
      6          6           0        3.782900   -3.096700   -3.101600
      7          6           0        2.547700   -4.024900   -3.131500
      8          6           0        1.223000   -3.359300   -3.566300
      9          6           0        1.233200   -2.703800   -4.965500
     10          6           0        1.568000   -3.645700   -6.140400
     11          6           0        0.567600   -4.797600   -6.325400
     12          8           0        4.744200    1.064800   -0.061500
     13          1           0        6.426700   -0.166000    0.806500
     14          1           0        2.573700   -0.281500   -0.105100
     15          1           0        3.144900   -1.232200    1.236900
     16          1           0        4.267300   -2.841700   -0.353500
     17          1           0        2.547500   -2.749300   -0.576300
     18          1           0        2.853100   -1.216300   -2.542600
     19          1           0        4.572400   -1.258300   -2.319300
     20          1           0        4.007300   -2.770100   -4.118100
     21          1           0        4.652600   -3.679500   -2.793400
     22          1           0        2.757400   -4.866900   -3.792700
     23          1           0        2.409900   -4.474400   -2.147400
     24          1           0        0.941400   -2.607100   -2.828000
     25          1           0        0.425300   -4.102100   -3.524100
     26          1           0        0.258300   -2.247700   -5.145800
     27          1           0        1.939300   -1.872100   -4.966400
     28          1           0        1.599400   -3.059000   -7.060000
     29          1           0        2.574100   -4.050000   -6.020300
     30          1           0       -0.449000   -4.424000   -6.452800
     31          1           0        0.814300   -5.388800   -7.207700
     32          1           0        0.571600   -5.473900   -5.470300
 ---------------------------------------------------------------------
                    Distance matrix (angstroms):
                    1          2          3          4          5
     1  O    0.000000
     2  C    1.350665   0.000000
     3  C    2.395746   1.526343   0.000000
     4  C    3.032365   2.593036   1.548814   0.000000
     5  C    3.784547   3.201637   2.596855   1.543949   0.000000
     6  C    4.932879   4.611899   3.982322   2.592219   1.543284
     7  C    5.997972   5.621236   4.634993   3.190776   2.616116
     8  C    6.771082   6.111430   4.988732   3.830184   3.181364
     9  C    7.552319   6.796819   5.885446   4.846954   3.784950
    10  C    8.579565   7.970989   7.147919   5.949138   4.815557
    11  C    9.663879   9.090578   8.105286   6.852114   5.944619
    12  O    2.265450   1.222088   2.431321   3.542934   3.771940
    13  H    0.957464   1.836484   3.190431   3.880572   4.412408
    14  H    3.300504   2.136035   1.090026   2.180601   2.833812
    15  H    2.628969   2.116034   1.089410   2.178120   3.525521
    16  H    2.761419   2.842867   2.178911   1.092432   2.173326
    17  H    3.964617   3.499452   2.152816   1.090943   2.161203
    18  H    4.423626   3.544629   2.825596   2.170660   1.090962
    19  H    3.363897   2.858350   2.819501   2.166619   1.091273
    20  H    5.578399   5.197065   4.749916   3.512646   2.158192
    21  H    4.739056   4.724948   4.268079   2.836009   2.159595
    22  H    6.819519   6.560141   5.653158   4.160693   3.529951
    23  H    5.759701   5.491593   4.369430   2.914332   2.906580
    24  H    6.263293   5.466170   4.249426   3.333831   2.897672
    25  H    7.591304   6.967315   5.728382   4.577727   4.162939
    26  H    8.202571   7.321280   6.346703   5.486816   4.526136
    27  H    6.981893   6.182463   5.463631   4.545321   3.266649
    28  H    9.164237   8.497493   7.789709   6.689804   5.422609
    29  H    8.192526   7.734075   7.020752   5.712634   4.545055
    30  H   10.190459   9.504512   8.449550   7.315655   6.456169
    31  H   10.458580   9.951737   9.033817   7.728867   6.765293
    32  H    9.367247   8.878442   7.803822   6.483336   5.780841
                    6          7          8          9         10
     6  C    0.000000
     7  C    1.545370   0.000000
     8  C    2.614956   1.544961   0.000000
     9  C    3.182682   2.614722   1.545168   0.000000
    10  C    3.800196   3.187018   2.612861   1.542614   0.000000
    11  C    4.860463   3.836516   3.179762   2.583863   1.536847
    12  O    5.242555   6.336762   6.652453   7.111869   8.320462
    13  H    5.554451   6.741335   7.509796   8.168773   9.163771
    14  H    4.285619   4.813815   4.824640   5.593565   6.982415
    15  H    4.765080   5.219075   5.593656   6.655071   7.920616
    16  H    2.802092   3.474805   4.456204   5.522257   6.435903
    17  H    2.832674   2.855907   3.326635   4.581979   5.720329
    18  H    2.170925   2.885881   2.880562   3.272182   4.527431
    19  H    2.148259   3.523231   4.145804   4.499122   5.415432
    20  H    1.091006   2.162946   2.898960   2.901399   3.287333
    21  H    1.091339   2.159680   3.530164   4.166810   4.551737
    22  H    2.159370   1.090928   2.162984   2.894417   2.901327
    23  H    2.166491   1.090638   2.159967   3.530062   4.164083
    24  H    2.896323   2.163901   1.090958   2.159492   3.527508
    25  H    3.530271   2.159786   1.090806   2.164620   2.891209
    26  H    4.162014   3.529475   2.158963   1.091314   2.158459
    27  H    2.894129   2.893364   2.164516   1.091010   2.159119
    28  H    4.520843   4.155159   3.526726   2.155736   1.091269
    29  H    3.299816   2.889030   2.885248   2.173217   1.090926
    30  H    5.558889   4.491161   3.501579   2.828594   2.184407
    31  H    5.561148   4.634685   4.188759   3.523090   2.178438
    32  H    4.644811   3.387412   2.919087   2.892402   2.187273
                   11         12         13         14         15
    11  C    0.000000
    12  O    9.541916   0.000000
    13  H   10.326895   2.258118   0.000000
    14  H    7.944289   2.554505   3.961056   0.000000
    15  H    8.748882   3.085419   3.477390   1.740995   0.000000
    16  H    7.292250   3.946320   3.628771   3.079709   2.525796
    17  H    6.416205   4.431463   4.861457   2.512519   2.438478
    18  H    5.688479   3.864652   5.009014   2.625514   3.790781
    19  H    6.679364   3.244067   3.795020   3.138729   3.832101
    20  H    4.562287   5.630762   6.073427   4.934826   5.637809
    21  H    5.514744   5.475404   5.333985   4.805745   4.950329
    22  H    3.348820   7.283838   7.530927   5.887107   6.217562
    23  H    4.577577   6.362599   6.589576   4.666715   4.744004
    24  H    4.143649   5.966377   7.018339   3.935353   4.823813
    25  H    2.889853   7.572275   8.382349   5.558972   6.188673
    26  H    2.826502   7.546261   8.821140   5.885208   7.078316
    27  H    3.505281   6.367958   7.508256   5.154096   6.351683
    28  H    2.151041   8.710597   9.672337   7.552112   8.635063
    29  H    2.162876   8.147258   8.748324   7.013643   7.805944
    30  H    1.090543   9.896715  10.867532   8.160289   9.068362
    31  H    1.090336  10.400060  11.090720   8.923392   9.696406
    32  H    1.090226   9.456231  10.092285   7.730122   8.342687
                   16         17         18         19         20
    16  H    0.000000
    17  H    1.736632   0.000000
    18  H    3.071489   2.511935   0.000000
    19  H    2.542560   3.059632   1.734249   0.000000
    20  H    3.774247   3.830900   2.495731   2.416725   0.000000
    21  H    2.608348   3.195661   3.060793   2.468484   1.731546
    22  H    4.267239   3.856620   3.859895   4.299666   2.462662
    23  H    3.055114   2.337362   3.311771   3.879337   3.056139
    24  H    4.152084   2.769464   2.381255   3.906686   3.330266
    25  H    5.138315   3.875993   3.896844   5.170801   3.867529
    26  H    6.276229   5.135404   3.817515   5.251616   3.922253
    27  H    5.257238   4.518005   2.672061   3.783795   2.408867
    28  H    7.220945   6.559967   5.037282   5.878391   3.812640
    29  H    6.036517   5.597291   4.494674   5.048187   2.703807
    30  H    7.870745   6.805651   6.040105   7.233390   5.295736
    31  H    8.086469   7.344822   6.582524   7.421644   5.157370
    32  H    6.838737   5.939601   5.648347   6.611088   4.576354
                   21         22         23         24         25
    21  H    0.000000
    22  H    2.449551   0.000000
    23  H    2.465540   1.726796   0.000000
    24  H    3.863191   3.055356   2.471137   0.000000
    25  H    4.310752   2.468958   2.443880   1.727987   0.000000
    26  H    5.185915   3.864788   4.310218   2.442947   2.469129
    27  H    3.917987   3.318989   3.865254   2.471595   3.057012
    28  H    5.283079   3.909567   5.176283   4.306623   3.869000
    29  H    3.856205   2.379732   3.899542   3.865029   3.294096
    30  H    6.322326   4.189665   5.168396   4.286434   3.073321
    31  H    6.094284   3.963615   5.384116   5.189969   3.921202
    32  H    5.200022   2.821438   3.926832   3.916254   2.385568
                   26         27         28         29         30
    26  H    0.000000
    27  H    1.731768   0.000000
    28  H    2.474049   2.430519   0.000000
    29  H    3.062020   2.501385   1.735828   0.000000
    30  H    2.635300   3.798099   2.535322   3.076697   0.000000
    31  H    3.798299   4.319286   2.462959   2.509821   1.759727
    32  H    3.257579   3.885548   3.068430   2.517935   1.763298
                   31         32
    31  H    0.000000
    32  H    1.756333   0.000000
 Stoichiometry    C10H20O2
 Framework group  C1[X(C10H20O2)]
 Deg. of freedom    90
 Full point group                 C1      NOp   1
 Largest Abelian subgroup         C1      NOp   1
 Largest concise Abelian subgroup C1      NOp   1
                         Standard orientation:                         
 ---------------------------------------------------------------------
 Center     Atomic      Atomic             Coordinates (Angstroms)
 Number     Number       Type             X           Y           Z
 ---------------------------------------------------------------------
      1          8           0        4.397170   -0.692049   -0.597043
      2          6           0        3.856434    0.367626    0.042479
      3          6           0        2.817816   -0.042270    1.083143
      4          6           0        1.577315   -0.775236    0.515041
      5          6           0        0.699329    0.092037   -0.412728
      6          6           0       -0.518614   -0.647945   -1.004985
      7          6           0       -1.549628   -1.172592    0.019674
      8          6           0       -2.168730   -0.105531    0.949727
      9          6           0       -2.902774    1.053936    0.239543
     10          6           0       -4.077905    0.640864   -0.670455
     11          6           0       -5.223624   -0.068842    0.068154
     12          8           0        4.181035    1.524392   -0.181187
     13          1           0        5.021280   -0.301996   -1.209484
     14          1           0        2.511266    0.849239    1.630314
     15          1           0        3.329433   -0.677538    1.805290
     16          1           0        1.887464   -1.682357   -0.008741
     17          1           0        0.973631   -1.118839    1.356266
     18          1           0        0.366520    0.982924    0.121833
     19          1           0        1.304434    0.463649   -1.241358
     20          1           0       -1.023198    0.013683   -1.710632
     21          1           0       -0.164339   -1.486290   -1.607221
     22          1           0       -2.349311   -1.684288   -0.517726
     23          1           0       -1.087919   -1.948383    0.631608
     24          1           0       -1.386884    0.311188    1.586320
     25          1           0       -2.856490   -0.596196    1.639722
     26          1           0       -3.269592    1.751132    0.994743
     27          1           0       -2.183906    1.626262   -0.348653
     28          1           0       -4.474960    1.534456   -1.154922
     29          1           0       -3.717322    0.007355   -1.482099
     30          1           0       -5.609091    0.543087    0.884390
     31          1           0       -6.053117   -0.275811   -0.608556
     32          1           0       -4.901253   -1.022296    0.487197
 ---------------------------------------------------------------------
 Rotational constants (GHZ):           2.4991620           0.2653345           0.2603906
 Standard basis: 6-31G(d,p) (6D, 7F)
 There are   280 symmetry adapted cartesian basis functions of A   symmetry.
 There are   280 symmetry adapted basis functions of A   symmetry.
   280 basis functions,   476 primitive gaussians,   280 cartesian basis functions
    48 alpha electrons       48 beta electrons
       nuclear repulsion energy       713.3934397621 Hartrees.
 NAtoms=   32 NActive=   32 NUniq=   32 SFac= 1.00D+00 NAtFMM=   60 NAOKFM=F Big=F
 Integral buffers will be    131072 words long.
 Raffenetti 2 integral format.
 Two-electron integral symmetry is turned on.
 Nuclear repulsion after empirical dispersion term =      713.3439836337 Hartrees.
 One-electron integrals computed using PRISM.
 NBasis=   280 RedAO= T EigKep=  3.43D-03  NBF=   280
 NBsUse=   280 1.00D-06 EigRej= -1.00D+00 NBFU=   280
 ExpMin= 1.61D-01 ExpMax= 5.48D+03 ExpMxC= 8.25D+02 IAcc=3 IRadAn=         5 AccDes= 0.00D+00
 Harris functional with IExCor=  402 and IRadAn=       5 diagonalized for initial guess.
 HarFok:  IExCor=  402 AccDes= 0.00D+00 IRadAn=         5 IDoV= 1 UseB2=F ITyADJ=14
 ICtDFT=  3500011 ScaDFX=  1.000000  1.000000  1.000000  1.000000
 FoFCou: FMM=F IPFlag=           0 FMFlag=      100000 FMFlg1=           0
         NFxFlg=           0 DoJE=T BraDBF=F KetDBF=T FulRan=T
         wScrn=  0.000000 ICntrl=       500 IOpCl=  0 I1Cent=   200000004 NGrid=           0
         NMat0=    1 NMatS0=      1 NMatT0=    0 NMatD0=    1 NMtDS0=    0 NMtDT0=    0
 Petite list used in FoFCou.
 Requested convergence on RMS density matrix=1.00D-08 within 128 cycles.
 Requested convergence on MAX density matrix=1.00D-06.
 Requested convergence on             energy=1.00D-06.
 No special actions if energy rises.
 Integral accuracy reduced to 1.0D-05 until final iterations.
 Initial convergence to 1.0D-05 achieved.  Increase integral accuracy.
 SCF Done:  E(RB3LYP) =  -543.663849569     A.U. after   14 cycles
            NFock= 14  Conv=0.31D-08     -V/T= 2.0097

 **********************************************************************

            Population analysis using the SCF Density.

 **********************************************************************

 Orbital symmetries:
       Occupied  (A) (A) (A) (A) (A) (A) (A) (A) (A) (A) (A) (A)
                 (A) (A) (A) (A) (A) (A) (A) (A) (A) (A) (A) (A)
                 (A) (A) (A) (A) (A) (A) (A) (A) (A) (A) (A) (A)
                 (A) (A) (A) (A) (A) (A) (A) (A) (A) (A) (A) (A)
       Virtual   (A) (A) (A) (A) (A) (A) (A) (A) (A) (A) (A) (A)
                 (A) (A) (A) (A) (A) (A) (A) (A) (A) (A) (A) (A)
                 (A) (A) (A) (A) (A) (A) (A) (A) (A) (A) (A) (A)
                 (A) (A) (A) (A) (A) (A) (A) (A) (A) (A) (A) (A)
                 (A) (A) (A) (A) (A) (A) (A) (A) (A) (A) (A) (A)
                 (A) (A) (A) (A) (A) (A) (A) (A) (A) (A) (A) (A)
                 (A) (A) (A) (A) (A) (A) (A) (A) (A) (A) (A) (A)
                 (A) (A) (A) (A) (A) (A) (A) (A) (A) (A) (A) (A)
                 (A) (A) (A) (A) (A) (A) (A) (A) (A) (A) (A) (A)
                 (A) (A) (A) (A) (A) (A) (A) (A) (A) (A) (A) (A)
                 (A) (A) (A) (A) (A) (A) (A) (A) (A) (A) (A) (A)
                 (A) (A) (A) (A) (A) (A) (A) (A) (A) (A) (A) (A)
                 (A) (A) (A) (A) (A) (A) (A) (A) (A) (A) (A) (A)
                 (A) (A) (A) (A) (A) (A) (A) (A) (A) (A) (A) (A)
                 (A) (A) (A) (A) (A) (A) (A) (A) (A) (A) (A) (A)
                 (A) (A) (A) (A) (A) (A) (A) (A) (A) (A) (A) (A)
                 (A) (A) (A) (A) (A) (A) (A) (A) (A) (A) (A) (A)
                 (A) (A) (A) (A) (A) (A) (A) (A) (A) (A) (A) (A)
                 (A) (A) (A) (A) (A) (A) (A) (A) (A) (A) (A) (A)
                 (A) (A) (A) (A)
 The electronic state is 1-A.
 Alpha  occ. eigenvalues --  -19.19889 -19.13590 -10.31961 -10.19913 -10.19094
 Alpha  occ. eigenvalues --  -10.18070 -10.17860 -10.17690 -10.17688 -10.17594
 Alpha  occ. eigenvalues --  -10.17512 -10.17001  -1.10715  -1.00994  -0.81365
 Alpha  occ. eigenvalues --   -0.79428  -0.76403  -0.72549  -0.68603  -0.65336
 Alpha  occ. eigenvalues --   -0.62201  -0.59727  -0.57409  -0.53752  -0.48684
 Alpha  occ. eigenvalues --   -0.48266  -0.47281  -0.46552  -0.45467  -0.44253
 Alpha  occ. eigenvalues --   -0.42834  -0.41947  -0.40506  -0.39947  -0.38979
 Alpha  occ. eigenvalues --   -0.38310  -0.37241  -0.36407  -0.35986  -0.34300
 Alpha  occ. eigenvalues --   -0.33280  -0.33041  -0.32565  -0.31574  -0.31184
 Alpha  occ. eigenvalues --   -0.30418  -0.30200  -0.26784
 Alpha virt. eigenvalues --    0.00787   0.07017   0.08023   0.10401   0.10895
 Alpha virt. eigenvalues --    0.11887   0.13143   0.13336   0.13551   0.15523
 Alpha virt. eigenvalues --    0.15722   0.16818   0.17319   0.17548   0.18831
 Alpha virt. eigenvalues --    0.19385   0.20211   0.20749   0.20954   0.21625
 Alpha virt. eigenvalues --    0.21977   0.22289   0.23343   0.23726   0.24302
 Alpha virt. eigenvalues --    0.24993   0.25086   0.25989   0.27304   0.31007
 Alpha virt. eigenvalues --    0.33052   0.35918   0.48922   0.49668   0.50383
 Alpha virt. eigenvalues --    0.51445   0.52230   0.53254   0.53889   0.54671
 Alpha virt. eigenvalues --    0.56328   0.56566   0.59186   0.61421   0.62783
 Alpha virt. eigenvalues --    0.64258   0.64735   0.65655   0.66449   0.66958
 Alpha virt. eigenvalues --    0.69466   0.69926   0.71148   0.71335   0.73100
 Alpha virt. eigenvalues --    0.74756   0.76019   0.76861   0.79431   0.82530
 Alpha virt. eigenvalues --    0.83804   0.84312   0.85604   0.85961   0.86619
 Alpha virt. eigenvalues --    0.86932   0.87529   0.88628   0.89633   0.90616
 Alpha virt. eigenvalues --    0.91220   0.92273   0.92580   0.94053   0.94415
 Alpha virt. eigenvalues --    0.94737   0.96318   0.97034   0.97617   0.97991
 Alpha virt. eigenvalues --    1.00066   1.00671   1.02668   1.03311   1.04596
 Alpha virt. eigenvalues --    1.06872   1.07108   1.08070   1.10353   1.11548
 Alpha virt. eigenvalues --    1.17669   1.25485   1.27307   1.29886   1.33445
 Alpha virt. eigenvalues --    1.36782   1.38015   1.39815   1.44104   1.46748
 Alpha virt. eigenvalues --    1.48597   1.51772   1.55491   1.56857   1.58114
 Alpha virt. eigenvalues --    1.59381   1.60282   1.62049   1.62949   1.67837
 Alpha virt. eigenvalues --    1.69975   1.70224   1.72078   1.75525   1.75920
 Alpha virt. eigenvalues --    1.77463   1.79300   1.80416   1.80671   1.81477
 Alpha virt. eigenvalues --    1.82362   1.83320   1.85061   1.86613   1.87652
 Alpha virt. eigenvalues --    1.91557   1.92251   1.94417   1.94727   1.97465
 Alpha virt. eigenvalues --    1.97671   2.00512   2.02771   2.04888   2.06145
 Alpha virt. eigenvalues --    2.09359   2.11785   2.11968   2.13182   2.15328
 Alpha virt. eigenvalues --    2.16854   2.17491   2.19833   2.20760   2.21937
 Alpha virt. eigenvalues --    2.23522   2.24081   2.24801   2.25895   2.26761
 Alpha virt. eigenvalues --    2.27554   2.28734   2.29230   2.30098   2.31708
 Alpha virt. eigenvalues --    2.33821   2.34705   2.36710   2.38952   2.41430
 Alpha virt. eigenvalues --    2.42682   2.44029   2.45713   2.47370   2.48725
 Alpha virt. eigenvalues --    2.51470   2.51739   2.54484   2.55939   2.56464
 Alpha virt. eigenvalues --    2.58514   2.61142   2.61436   2.64741   2.67125
 Alpha virt. eigenvalues --    2.67967   2.70007   2.70210   2.72078   2.72847
 Alpha virt. eigenvalues --    2.74306   2.76707   2.77123   2.79961   2.82897
 Alpha virt. eigenvalues --    2.83588   2.85969   2.87894   2.88991   2.89234
 Alpha virt. eigenvalues --    2.90412   2.90842   2.91508   2.91992   2.92147
 Alpha virt. eigenvalues --    2.92911   2.93751   2.94806   3.02390   3.11319
 Alpha virt. eigenvalues --    3.20255   3.26700   3.31171   3.31924   3.32595
 Alpha virt. eigenvalues --    3.33746   3.34239   3.36037   3.38213   3.38431
 Alpha virt. eigenvalues --    3.42732   3.44859   3.46732   3.47881   3.51063
 Alpha virt. eigenvalues --    3.53734   3.56172   3.57103   3.58078   3.59632
 Alpha virt. eigenvalues --    3.91682   4.13755   4.23281   4.28216   4.34529
 Alpha virt. eigenvalues --    4.44215   4.56276   4.64248   4.64690   4.65526
 Alpha virt. eigenvalues --    4.69171   4.74978
          Condensed to atoms (all electrons):
               1          2          3          4          5          6
     1  O    8.122093   0.245403  -0.099648   0.003581  -0.000660  -0.000009
     2  C    0.245403   4.382785   0.347823  -0.030110  -0.001299   0.000092
     3  C   -0.099648   0.347823   5.095169   0.340224  -0.043103   0.003737
     4  C    0.003581  -0.030110   0.340224   4.912775   0.375498  -0.037670
     5  C   -0.000660  -0.001299  -0.043103   0.375498   4.916003   0.370533
     6  C   -0.000009   0.000092   0.003737  -0.037670   0.370533   4.912826
     7  C    0.000000   0.000000   0.000094  -0.004360  -0.043520   0.373415
     8  C   -0.000000  -0.000000   0.000000  -0.001680  -0.003003  -0.044520
     9  C    0.000000   0.000000  -0.000000   0.000117  -0.002056  -0.002424
    10  C   -0.000000   0.000000   0.000000  -0.000003   0.000124  -0.001983
    11  C    0.000000   0.000000  -0.000000   0.000000  -0.000003   0.000114
    12  O   -0.083517   0.570020  -0.072629  -0.000120   0.000813   0.000007
    13  H    0.268478  -0.009375   0.010815  -0.000291  -0.000066   0.000000
    14  H    0.003358  -0.032523   0.376512  -0.031524  -0.005759   0.000090
    15  H    0.001903  -0.026233   0.355367  -0.023530   0.004563  -0.000121
    16  H    0.005120  -0.008482  -0.035273   0.383652  -0.039825  -0.002717
    17  H    0.000010   0.003654  -0.030317   0.380975  -0.041360  -0.004905
    18  H    0.000018  -0.000809  -0.002346  -0.040886   0.383410  -0.036851
    19  H    0.000177   0.006218  -0.005659  -0.039961   0.380381  -0.031486
    20  H    0.000000  -0.000005  -0.000144   0.004568  -0.033995   0.380224
    21  H   -0.000002  -0.000011   0.000069  -0.006967  -0.038887   0.377995
    22  H    0.000000   0.000000  -0.000001   0.000055   0.004974  -0.033916
    23  H    0.000000  -0.000003  -0.000102   0.003076  -0.007219  -0.038721
    24  H   -0.000000   0.000002  -0.000042   0.000109   0.003518  -0.007740
    25  H   -0.000000  -0.000000   0.000001   0.000019  -0.000004   0.005078
    26  H    0.000000  -0.000000  -0.000000  -0.000002   0.000029  -0.000026
    27  H   -0.000000   0.000000  -0.000000   0.000005  -0.000010   0.003777
    28  H    0.000000  -0.000000   0.000000   0.000000  -0.000001   0.000023
    29  H    0.000000   0.000000  -0.000000  -0.000000   0.000009  -0.000095
    30  H   -0.000000   0.000000   0.000000  -0.000000   0.000000  -0.000003
    31  H    0.000000  -0.000000   0.000000  -0.000000   0.000000  -0.000000
    32  H   -0.000000   0.000000   0.000000   0.000000   0.000000  -0.000002
               7          8          9         10         11         12
     1  O    0.000000  -0.000000   0.000000  -0.000000   0.000000  -0.083517
     2  C    0.000000  -0.000000   0.000000   0.000000   0.000000   0.570020
     3  C    0.000094   0.000000  -0.000000   0.000000  -0.000000  -0.072629
     4  C   -0.004360  -0.001680   0.000117  -0.000003   0.000000  -0.000120
     5  C   -0.043520  -0.003003  -0.002056   0.000124  -0.000003   0.000813
     6  C    0.373415  -0.044520  -0.002424  -0.001983   0.000114   0.000007
     7  C    4.917836   0.372918  -0.044434  -0.002996  -0.001574  -0.000000
     8  C    0.372918   4.915974   0.375387  -0.044664  -0.003763   0.000000
     9  C   -0.044434   0.375387   4.903484   0.380950  -0.046791  -0.000000
    10  C   -0.002996  -0.044664   0.380950   4.872903   0.374873   0.000000
    11  C   -0.001574  -0.003763  -0.046791   0.374873   4.915506  -0.000000
    12  O   -0.000000   0.000000  -0.000000   0.000000  -0.000000   8.039885
    13  H   -0.000000   0.000000  -0.000000   0.000000  -0.000000   0.011409
    14  H   -0.000015   0.000005  -0.000001   0.000000  -0.000000   0.001620
    15  H    0.000002   0.000000   0.000000  -0.000000   0.000000   0.002097
    16  H   -0.000880   0.000100  -0.000003   0.000000  -0.000000   0.000008
    17  H    0.003039   0.000293  -0.000002   0.000000   0.000000  -0.000082
    18  H   -0.007877   0.003784  -0.000007   0.000002   0.000000   0.000021
    19  H    0.004857   0.000019   0.000020  -0.000001   0.000000   0.000160
    20  H   -0.038352  -0.007452   0.003653   0.000155  -0.000008   0.000000
    21  H   -0.034145   0.005076  -0.000015   0.000022  -0.000001   0.000000
    22  H    0.380072  -0.038380  -0.007506   0.003427   0.000206   0.000000
    23  H    0.379033  -0.034544   0.005045   0.000013   0.000008  -0.000000
    24  H   -0.039022   0.379038  -0.034065   0.005064   0.000009  -0.000000
    25  H   -0.034251   0.380058  -0.038479  -0.007360   0.003776  -0.000000
    26  H    0.005131  -0.034460   0.378404  -0.039093  -0.006547  -0.000000
    27  H   -0.007727  -0.038558   0.380206  -0.035328   0.005112  -0.000000
    28  H    0.000012   0.005029  -0.032829   0.383387  -0.039684   0.000000
    29  H    0.003740  -0.007935  -0.038119   0.386643  -0.040229   0.000000
    30  H    0.000100  -0.000806  -0.004187  -0.035676   0.386982  -0.000000
    31  H    0.000009   0.000090   0.004427  -0.028273   0.381615  -0.000000
    32  H    0.000250   0.002598  -0.005281  -0.034757   0.388542   0.000000
              13         14         15         16         17         18
     1  O    0.268478   0.003358   0.001903   0.005120   0.000010   0.000018
     2  C   -0.009375  -0.032523  -0.026233  -0.008482   0.003654  -0.000809
     3  C    0.010815   0.376512   0.355367  -0.035273  -0.030317  -0.002346
     4  C   -0.000291  -0.031524  -0.023530   0.383652   0.380975  -0.040886
     5  C   -0.000066  -0.005759   0.004563  -0.039825  -0.041360   0.383410
     6  C    0.000000   0.000090  -0.000121  -0.002717  -0.004905  -0.036851
     7  C   -0.000000  -0.000015   0.000002  -0.000880   0.003039  -0.007877
     8  C    0.000000   0.000005   0.000000   0.000100   0.000293   0.003784
     9  C   -0.000000  -0.000001   0.000000  -0.000003  -0.000002  -0.000007
    10  C    0.000000   0.000000  -0.000000   0.000000   0.000000   0.000002
    11  C   -0.000000  -0.000000   0.000000  -0.000000   0.000000   0.000000
    12  O    0.011409   0.001620   0.002097   0.000008  -0.000082   0.000021
    13  H    0.401118  -0.000323  -0.000490  -0.000195   0.000016   0.000000
    14  H   -0.000323   0.587461  -0.032650   0.005168  -0.003701   0.004461
    15  H   -0.000490  -0.032650   0.603036  -0.002728  -0.005628  -0.000026
    16  H   -0.000195   0.005168  -0.002728   0.616021  -0.037974   0.005788
    17  H    0.000016  -0.003701  -0.005628  -0.037974   0.629808  -0.006214
    18  H    0.000000   0.004461  -0.000026   0.005788  -0.006214   0.631425
    19  H    0.000058  -0.000304   0.000027  -0.004897   0.006054  -0.039107
    20  H   -0.000000  -0.000000   0.000002  -0.000002  -0.000027  -0.004041
    21  H    0.000000   0.000006   0.000001   0.004981  -0.000319   0.006050
    22  H    0.000000  -0.000000  -0.000000  -0.000026  -0.000082   0.000012
    23  H    0.000000   0.000005   0.000007   0.000472   0.001531  -0.000050
    24  H    0.000000   0.000032  -0.000003  -0.000013   0.001119   0.001152
    25  H    0.000000  -0.000000  -0.000000  -0.000001  -0.000049  -0.000082
    26  H    0.000000   0.000000   0.000000   0.000000   0.000001  -0.000034
    27  H    0.000000  -0.000000  -0.000000   0.000001  -0.000004   0.001571
    28  H    0.000000  -0.000000   0.000000  -0.000000  -0.000000   0.000001
    29  H   -0.000000  -0.000000   0.000000   0.000000  -0.000000  -0.000002
    30  H    0.000000  -0.000000  -0.000000   0.000000   0.000000   0.000000
    31  H    0.000000   0.000000  -0.000000   0.000000   0.000000  -0.000000
    32  H    0.000000  -0.000000  -0.000000   0.000000  -0.000000  -0.000000
              19         20         21         22         23         24
     1  O    0.000177   0.000000  -0.000002   0.000000   0.000000  -0.000000
     2  C    0.006218  -0.000005  -0.000011   0.000000  -0.000003   0.000002
     3  C   -0.005659  -0.000144   0.000069  -0.000001  -0.000102  -0.000042
     4  C   -0.039961   0.004568  -0.006967   0.000055   0.003076   0.000109
     5  C    0.380381  -0.033995  -0.038887   0.004974  -0.007219   0.003518
     6  C   -0.031486   0.380224   0.377995  -0.033916  -0.038721  -0.007740
     7  C    0.004857  -0.038352  -0.034145   0.380072   0.379033  -0.039022
     8  C    0.000019  -0.007452   0.005076  -0.038380  -0.034544   0.379038
     9  C    0.000020   0.003653  -0.000015  -0.007506   0.005045  -0.034065
    10  C   -0.000001   0.000155   0.000022   0.003427   0.000013   0.005064
    11  C    0.000000  -0.000008  -0.000001   0.000206   0.000008   0.000009
    12  O    0.000160   0.000000   0.000000   0.000000  -0.000000  -0.000000
    13  H    0.000058  -0.000000   0.000000   0.000000   0.000000   0.000000
    14  H   -0.000304  -0.000000   0.000006  -0.000000   0.000005   0.000032
    15  H    0.000027   0.000002   0.000001  -0.000000   0.000007  -0.000003
    16  H   -0.004897  -0.000002   0.004981  -0.000026   0.000472  -0.000013
    17  H    0.006054  -0.000027  -0.000319  -0.000082   0.001531   0.001119
    18  H   -0.039107  -0.004041   0.006050   0.000012  -0.000050   0.001152
    19  H    0.632776  -0.003652  -0.003952  -0.000151  -0.000022  -0.000062
    20  H   -0.003652   0.639011  -0.038773  -0.005040   0.006088  -0.000129
    21  H   -0.003952  -0.038773   0.647094  -0.003020  -0.004380  -0.000011
    22  H   -0.000151  -0.005040  -0.003020   0.642520  -0.039192   0.006162
    23  H   -0.000022   0.006088  -0.004380  -0.039192   0.648293  -0.004762
    24  H   -0.000062  -0.000129  -0.000011   0.006162  -0.004762   0.648930
    25  H   -0.000001  -0.000002  -0.000155  -0.004722  -0.002958  -0.039569
    26  H    0.000001  -0.000068  -0.000001  -0.000010  -0.000158  -0.003215
    27  H   -0.000042   0.000919  -0.000066  -0.000121   0.000001  -0.004840
    28  H   -0.000000  -0.000043   0.000001  -0.000077  -0.000001  -0.000160
    29  H    0.000000   0.001473  -0.000032   0.001190  -0.000082   0.000011
    30  H   -0.000000   0.000001   0.000000  -0.000019  -0.000000  -0.000027
    31  H   -0.000000   0.000000  -0.000000  -0.000037   0.000001  -0.000001
    32  H   -0.000000  -0.000004   0.000000   0.001017  -0.000039  -0.000070
              25         26         27         28         29         30
     1  O   -0.000000   0.000000  -0.000000   0.000000   0.000000  -0.000000
     2  C   -0.000000  -0.000000   0.000000  -0.000000   0.000000   0.000000
     3  C    0.000001  -0.000000  -0.000000   0.000000  -0.000000   0.000000
     4  C    0.000019  -0.000002   0.000005   0.000000  -0.000000  -0.000000
     5  C   -0.000004   0.000029  -0.000010  -0.000001   0.000009   0.000000
     6  C    0.005078  -0.000026   0.003777   0.000023  -0.000095  -0.000003
     7  C   -0.034251   0.005131  -0.007727   0.000012   0.003740   0.000100
     8  C    0.380058  -0.034460  -0.038558   0.005029  -0.007935  -0.000806
     9  C   -0.038479   0.378404   0.380206  -0.032829  -0.038119  -0.004187
    10  C   -0.007360  -0.039093  -0.035328   0.383387   0.386643  -0.035676
    11  C    0.003776  -0.006547   0.005112  -0.039684  -0.040229   0.386982
    12  O   -0.000000  -0.000000  -0.000000   0.000000   0.000000  -0.000000
    13  H    0.000000   0.000000   0.000000   0.000000  -0.000000   0.000000
    14  H   -0.000000   0.000000  -0.000000  -0.000000  -0.000000  -0.000000
    15  H   -0.000000   0.000000  -0.000000   0.000000   0.000000  -0.000000
    16  H   -0.000001   0.000000   0.000001  -0.000000   0.000000   0.000000
    17  H   -0.000049   0.000001  -0.000004  -0.000000  -0.000000   0.000000
    18  H   -0.000082  -0.000034   0.001571   0.000001  -0.000002   0.000000
    19  H   -0.000001   0.000001  -0.000042  -0.000000   0.000000  -0.000000
    20  H   -0.000002  -0.000068   0.000919  -0.000043   0.001473   0.000001
    21  H   -0.000155  -0.000001  -0.000066   0.000001  -0.000032   0.000000
    22  H   -0.004722  -0.000010  -0.000121  -0.000077   0.001190  -0.000019
    23  H   -0.002958  -0.000158   0.000001  -0.000001  -0.000082  -0.000000
    24  H   -0.039569  -0.003215  -0.004840  -0.000160   0.000011  -0.000027
    25  H    0.644127  -0.004232   0.006114  -0.000001  -0.000079   0.000395
    26  H   -0.004232   0.648750  -0.038992  -0.004219   0.006142   0.005052
    27  H    0.006114  -0.038992   0.643479  -0.003555  -0.004034   0.000004
    28  H   -0.000001  -0.004219  -0.003555   0.643210  -0.039841  -0.004463
    29  H   -0.000079   0.006142  -0.004034  -0.039841   0.638182   0.005505
    30  H    0.000395   0.005052   0.000004  -0.004463   0.005505   0.611313
    31  H   -0.000127  -0.000008  -0.000179  -0.004036  -0.002487  -0.032461
    32  H    0.001363  -0.000269  -0.000013   0.005530  -0.005596  -0.034000
              31         32
     1  O    0.000000  -0.000000
     2  C   -0.000000   0.000000
     3  C    0.000000   0.000000
     4  C   -0.000000   0.000000
     5  C    0.000000   0.000000
     6  C   -0.000000  -0.000002
     7  C    0.000009   0.000250
     8  C    0.000090   0.002598
     9  C    0.004427  -0.005281
    10  C   -0.028273  -0.034757
    11  C    0.381615   0.388542
    12  O   -0.000000   0.000000
    13  H    0.000000   0.000000
    14  H    0.000000  -0.000000
    15  H   -0.000000  -0.000000
    16  H    0.000000   0.000000
    17  H    0.000000  -0.000000
    18  H   -0.000000  -0.000000
    19  H   -0.000000  -0.000000
    20  H    0.000000  -0.000004
    21  H   -0.000000   0.000000
    22  H   -0.000037   0.001017
    23  H    0.000001  -0.000039
    24  H   -0.000001  -0.000070
    25  H   -0.000127   0.001363
    26  H   -0.000008  -0.000269
    27  H   -0.000179  -0.000013
    28  H   -0.004036   0.005530
    29  H   -0.002487  -0.005596
    30  H   -0.032461  -0.034000
    31  H    0.613650  -0.032237
    32  H   -0.032237   0.607233
 Mulliken charges:
               1
     1  O   -0.466306
     2  C    0.552854
     3  C   -0.240544
     4  C   -0.187552
     5  C   -0.179083
     6  C   -0.184723
     7  C   -0.181352
     8  C   -0.180603
     9  C   -0.175494
    10  C   -0.177429
    11  C   -0.318142
    12  O   -0.469692
    13  H    0.318845
    14  H    0.128083
    15  H    0.124406
    16  H    0.111707
    17  H    0.104166
    18  H    0.100639
    19  H    0.098550
    20  H    0.095641
    21  H    0.089441
    22  H    0.092664
    23  H    0.088663
    24  H    0.088583
    25  H    0.091142
    26  H    0.087825
    27  H    0.092280
    28  H    0.091719
    29  H    0.095638
    30  H    0.102289
    31  H    0.100053
    32  H    0.105733
 Sum of Mulliken charges =  -0.00000
 Mulliken charges with hydrogens summed into heavy atoms:
               1
     1  O   -0.147462
     2  C    0.552854
     3  C    0.011945
     4  C    0.028320
     5  C    0.020106
     6  C    0.000359
     7  C   -0.000026
     8  C   -0.000878
     9  C    0.004612
    10  C    0.009928
    11  C   -0.010067
    12  O   -0.469692
 Electronic spatial extent (au):  <R**2>=           4255.5331
 Charge=             -0.0000 electrons
 Dipole moment (field-independent basis, Debye):
    X=             -0.6410    Y=             -1.6068    Z=              0.0186  Tot=              1.7301
 Quadrupole moment (field-independent basis, Debye-Ang):
   XX=            -76.6423   YY=            -81.6522   ZZ=            -73.0373
   XY=             -7.3617   XZ=             -1.6889   YZ=              0.3151
 Traceless Quadrupole moment (field-independent basis, Debye-Ang):
   XX=              0.4683   YY=             -4.5416   ZZ=              4.0733
   XY=             -7.3617   XZ=             -1.6889   YZ=              0.3151
 Octapole moment (field-independent basis, Debye-Ang**2):
  XXX=             55.6176  YYY=             -4.4426  ZZZ=             -4.9793  XYY=            -11.8375
  XXY=            -28.6342  XXZ=            -20.2801  XZZ=             26.2771  YZZ=              0.5484
  YYZ=              0.8385  XYZ=              1.1110
 Hexadecapole moment (field-independent basis, Debye-Ang**3):
 XXXX=          -4597.2606 YYYY=           -420.3857 ZZZZ=           -332.0995 XXXY=           -137.4581
 XXXZ=           -127.5866 YYYX=            -20.5095 YYYZ=              2.1377 ZZZX=            -27.6613
 ZZZY=              1.3784 XXYY=           -965.5267 XXZZ=           -782.0862 YYZZ=           -121.4951
 XXYZ=             12.7653 YYXZ=              1.1865 ZZXY=             -0.7529
 N-N= 7.133439836337D+02 E-N=-2.689890187652D+03  KE= 5.384619603374D+02
 Calling FoFJK, ICntrl=      2127 FMM=F ISym2X=0 I1Cent= 0 IOpClX= 0 NMat=1 NMatS=1 NMatT=0.
 ***** Axes restored to original set *****
 -------------------------------------------------------------------
 Center     Atomic                   Forces (Hartrees/Bohr)
 Number     Number              X              Y              Z
 -------------------------------------------------------------------
      1        8          -0.009594760   -0.006084496   -0.001632443
      2        6          -0.018838355    0.011909985   -0.010574651
      3        6           0.004877213   -0.001950044   -0.003119783
      4        6           0.000673251    0.003200860   -0.003804259
      5        6           0.001157718   -0.005048181    0.003434282
      6        6          -0.006441558    0.000529610    0.002369048
      7        6          -0.000798878    0.005672960   -0.002038047
      8        6           0.005043756    0.000133773   -0.003327799
      9        6           0.003372679   -0.005350057    0.002008238
     10        6          -0.005928795   -0.000287463    0.003812997
     11        6           0.005231517    0.002876366    0.001114588
     12        8           0.005033975   -0.016254125    0.006022818
     13        1           0.014338837    0.007937253    0.001282634
     14        1           0.001805749    0.003439677   -0.002740564
     15        1           0.000413843   -0.004418987    0.004179915
     16        1           0.003454419    0.000292007    0.000751403
     17        1          -0.003596126   -0.000100665    0.001182894
     18        1          -0.003995418    0.001847058   -0.000003618
     19        1           0.003670657    0.002076663    0.000507026
     20        1          -0.000199569    0.002633171   -0.003255650
     21        1           0.002525072   -0.002883724    0.002470685
     22        1           0.001950450   -0.002036052   -0.003425741
     23        1          -0.001613790   -0.000435563    0.004196680
     24        1          -0.000321907    0.004153778    0.001864354
     25        1          -0.001698172   -0.003925499   -0.000246847
     26        1          -0.004593928    0.000313474   -0.000243629
     27        1           0.003777800    0.002285547   -0.000138754
     28        1          -0.000309242    0.002962226   -0.002562180
     29        1           0.003372959   -0.002020079    0.001512004
     30        1          -0.002970766    0.001658822    0.000219228
     31        1           0.000734393   -0.001537174   -0.002347704
     32        1          -0.000533023   -0.001591123    0.002532874
 -------------------------------------------------------------------
 Cartesian Forces:  Max     0.018838355 RMS     0.004603036

 GradGradGradGradGradGradGradGradGradGradGradGradGradGradGradGradGradGrad
 Berny optimization.
 FormGI is forming the generalized inverse of G from B-inverse, IUseBI=4.
 Internal  Forces:  Max     0.016936174 RMS     0.003030978
 Search for a local minimum.
 Step number   1 out of a maximum of  179
 All quantities printed in internal units (Hartrees-Bohrs-Radians)
 Mixed Optimization -- RFO/linear search
 Second derivative matrix not updated -- first step.
 ITU=  0
     Eigenvalues ---    0.00230   0.00230   0.00230   0.00230   0.00230
     Eigenvalues ---    0.00230   0.00230   0.00279   0.00417   0.00894
     Eigenvalues ---    0.02344   0.03095   0.03096   0.03100   0.03110
     Eigenvalues ---    0.03231   0.03232   0.03266   0.03705   0.04633
     Eigenvalues ---    0.04635   0.04639   0.04643   0.04675   0.04683
     Eigenvalues ---    0.04701   0.05165   0.05366   0.05459   0.08562
     Eigenvalues ---    0.08571   0.08577   0.08814   0.08824   0.08829
     Eigenvalues ---    0.08843   0.09760   0.12385   0.12396   0.12397
     Eigenvalues ---    0.12560   0.12567   0.12570   0.12580   0.13068
     Eigenvalues ---    0.16000   0.16000   0.16000   0.16000   0.21891
     Eigenvalues ---    0.21894   0.21897   0.21899   0.21903   0.21914
     Eigenvalues ---    0.21918   0.21960   0.24998   0.25000   0.27752
     Eigenvalues ---    0.28048   0.28066   0.28084   0.28172   0.28230
     Eigenvalues ---    0.28289   0.28800   0.29764   0.34533   0.34658
     Eigenvalues ---    0.34661   0.34666   0.34666   0.34696   0.34697
     Eigenvalues ---    0.34702   0.34702   0.34704   0.34706   0.34706
     Eigenvalues ---    0.34720   0.34739   0.34750   0.34774   0.34786
     Eigenvalues ---    0.34810   0.34881   0.54880   0.56022   0.94464
 RFO step:  Lambda=-5.70950137D-03 EMin= 2.30000000D-03
 Linear search not attempted -- first point.
 Iteration  1 RMS(Cart)=  0.08768607 RMS(Int)=  0.00086401
 Iteration  2 RMS(Cart)=  0.00199028 RMS(Int)=  0.00016863
 Iteration  3 RMS(Cart)=  0.00000150 RMS(Int)=  0.00016863
 Iteration  4 RMS(Cart)=  0.00000000 RMS(Int)=  0.00016863
 Variable       Old X    -DE/DX   Delta X   Delta X   Delta X     New X
                                 (Linear)    (Quad)   (Total)
    R1        2.55239   0.00256   0.00000   0.00461   0.00461   2.55700
    R2        1.80935   0.01603   0.00000   0.02832   0.02832   1.83767
    R3        2.88437  -0.00919   0.00000  -0.03028  -0.03028   2.85409
    R4        2.30941  -0.01694   0.00000  -0.01782  -0.01782   2.29159
    R5        2.92683  -0.00814   0.00000  -0.02873  -0.02873   2.89810
    R6        2.05985   0.00152   0.00000   0.00430   0.00430   2.06415
    R7        2.05869   0.00503   0.00000   0.01420   0.01420   2.07289
    R8        2.91764  -0.00759   0.00000  -0.02640  -0.02640   2.89124
    R9        2.06440   0.00258   0.00000   0.00735   0.00735   2.07175
   R10        2.06158   0.00322   0.00000   0.00914   0.00914   2.07072
   R11        2.91638  -0.00513   0.00000  -0.01783  -0.01783   2.89856
   R12        2.06162   0.00406   0.00000   0.01151   0.01151   2.07313
   R13        2.06221   0.00412   0.00000   0.01170   0.01170   2.07390
   R14        2.92033  -0.00555   0.00000  -0.01938  -0.01938   2.90094
   R15        2.06170   0.00378   0.00000   0.01072   0.01072   2.07242
   R16        2.06233   0.00425   0.00000   0.01206   0.01206   2.07440
   R17        2.91955  -0.00578   0.00000  -0.02017  -0.02017   2.89938
   R18        2.06155   0.00402   0.00000   0.01140   0.01140   2.07296
   R19        2.06101   0.00417   0.00000   0.01181   0.01181   2.07282
   R20        2.91994  -0.00564   0.00000  -0.01969  -0.01969   2.90025
   R21        2.06161   0.00421   0.00000   0.01193   0.01193   2.07354
   R22        2.06132   0.00391   0.00000   0.01107   0.01107   2.07239
   R23        2.91512  -0.00460   0.00000  -0.01594  -0.01594   2.89918
   R24        2.06228   0.00427   0.00000   0.01213   0.01213   2.07442
   R25        2.06171   0.00419   0.00000   0.01187   0.01187   2.07358
   R26        2.90422  -0.00284   0.00000  -0.00966  -0.00966   2.89456
   R27        2.06220   0.00374   0.00000   0.01062   0.01062   2.07282
   R28        2.06155   0.00403   0.00000   0.01142   0.01142   2.07297
   R29        2.06083   0.00331   0.00000   0.00937   0.00937   2.07020
   R30        2.06044   0.00290   0.00000   0.00821   0.00821   2.06864
   R31        2.06023   0.00297   0.00000   0.00841   0.00841   2.06864
    A1        1.81750   0.00660   0.00000   0.03983   0.03983   1.85734
    A2        1.96552  -0.00184   0.00000  -0.00692  -0.00746   1.95807
    A3        2.15271  -0.00624   0.00000  -0.02414  -0.02466   2.12806
    A4        2.16484   0.00809   0.00000   0.03190   0.03134   2.19618
    A5        2.00646  -0.00529   0.00000  -0.03203  -0.03233   1.97413
    A6        1.89018  -0.00119   0.00000  -0.02469  -0.02484   1.86534
    A7        1.86396   0.00357   0.00000   0.02062   0.02054   1.88450
    A8        1.92403   0.00321   0.00000   0.01398   0.01330   1.93733
    A9        1.92125  -0.00110   0.00000  -0.00830  -0.00828   1.91297
   A10        1.85069   0.00128   0.00000   0.03587   0.03592   1.88661
   A11        1.99330  -0.00460   0.00000  -0.02651  -0.02671   1.96658
   A12        1.91925   0.00087   0.00000  -0.00859  -0.00894   1.91030
   A13        1.88538   0.00037   0.00000   0.00054   0.00076   1.88614
   A14        1.91747   0.00092   0.00000  -0.00432  -0.00483   1.91264
   A15        1.90245   0.00254   0.00000   0.02147   0.02146   1.92391
   A16        1.83930   0.00030   0.00000   0.02187   0.02183   1.86112
   A17        1.99331  -0.00231   0.00000  -0.01321  -0.01326   1.98005
   A18        1.91532  -0.00039   0.00000  -0.01169  -0.01173   1.90359
   A19        1.90948   0.00036   0.00000   0.00106   0.00113   1.91061
   A20        1.91648   0.00125   0.00000   0.00446   0.00427   1.92075
   A21        1.88544   0.00115   0.00000   0.01082   0.01080   1.89624
   A22        1.83707   0.00016   0.00000   0.01092   0.01087   1.84794
   A23        2.02066  -0.00266   0.00000  -0.01611  -0.01618   2.00448
   A24        1.89909  -0.00030   0.00000  -0.00733  -0.00734   1.89176
   A25        1.90066   0.00123   0.00000   0.00505   0.00500   1.90566
   A26        1.90305   0.00152   0.00000   0.00747   0.00736   1.91041
   A27        1.89830   0.00005   0.00000  -0.00300  -0.00304   1.89526
   A28        1.83286   0.00045   0.00000   0.01726   0.01725   1.85011
   A29        2.01753  -0.00327   0.00000  -0.01899  -0.01907   1.99846
   A30        1.89828  -0.00028   0.00000  -0.00705  -0.00704   1.89124
   A31        1.90824   0.00178   0.00000   0.00828   0.00818   1.91642
   A32        1.90367   0.00193   0.00000   0.01021   0.01010   1.91377
   A33        1.89987  -0.00014   0.00000  -0.00592  -0.00594   1.89392
   A34        1.82665   0.00032   0.00000   0.01715   0.01715   1.84380
   A35        2.01745  -0.00321   0.00000  -0.01864  -0.01871   1.99874
   A36        1.90489   0.00181   0.00000   0.00916   0.00906   1.91395
   A37        1.89946  -0.00020   0.00000  -0.00652  -0.00653   1.89292
   A38        1.89866  -0.00019   0.00000  -0.00609  -0.00609   1.89257
   A39        1.90577   0.00181   0.00000   0.00881   0.00870   1.91447
   A40        1.82820   0.00032   0.00000   0.01685   0.01685   1.84505
   A41        2.01760  -0.00267   0.00000  -0.01605  -0.01611   2.00149
   A42        1.89759   0.00007   0.00000  -0.00463  -0.00468   1.89291
   A43        1.90542   0.00118   0.00000   0.00576   0.00572   1.91114
   A44        1.89995   0.00108   0.00000   0.00307   0.00296   1.90291
   A45        1.90114   0.00020   0.00000  -0.00165  -0.00166   1.89948
   A46        1.83322   0.00042   0.00000   0.01669   0.01669   1.84991
   A47        1.99112  -0.00084   0.00000  -0.00614  -0.00618   1.98494
   A48        1.89631  -0.00046   0.00000  -0.00267  -0.00265   1.89366
   A49        1.92047   0.00012   0.00000  -0.00524  -0.00531   1.91517
   A50        1.89680   0.00110   0.00000   0.01142   0.01142   1.90822
   A51        1.91326  -0.00020   0.00000  -0.00573  -0.00580   1.90746
   A52        1.83950   0.00039   0.00000   0.00997   0.00998   1.84948
   A53        1.94346  -0.00097   0.00000  -0.00737  -0.00738   1.93608
   A54        1.93535   0.00015   0.00000   0.00288   0.00287   1.93822
   A55        1.94781   0.00032   0.00000   0.00151   0.00150   1.94931
   A56        1.87773   0.00051   0.00000   0.00387   0.00387   1.88161
   A57        1.88343  -0.00008   0.00000  -0.00406  -0.00408   1.87935
   A58        1.87287   0.00010   0.00000   0.00349   0.00347   1.87634
    D1       -3.14020  -0.00053   0.00000  -0.03125  -0.03041   3.11258
    D2       -0.01400   0.00045   0.00000   0.02852   0.02767   0.01368
    D3       -1.09060   0.00121   0.00000   0.04846   0.04911  -1.04150
    D4        3.03241   0.00168   0.00000   0.07213   0.07203   3.10444
    D5        1.04599  -0.00100   0.00000   0.03222   0.03246   1.07845
    D6        2.06650   0.00037   0.00000  -0.01122  -0.01110   2.05541
    D7       -0.09366   0.00084   0.00000   0.01245   0.01183  -0.08184
    D8       -2.08009  -0.00184   0.00000  -0.02746  -0.02774  -2.10783
    D9       -1.13821   0.00188   0.00000   0.05161   0.05167  -1.08655
   D10        1.02657   0.00036   0.00000   0.01946   0.01968   1.04625
   D11        3.02533   0.00138   0.00000   0.04119   0.04127   3.06660
   D12        1.00390  -0.00107   0.00000   0.00628   0.00614   1.01004
   D13       -3.11450  -0.00258   0.00000  -0.02588  -0.02585  -3.14035
   D14       -1.11574  -0.00156   0.00000  -0.00414  -0.00426  -1.12000
   D15        3.03952   0.00175   0.00000   0.05340   0.05329   3.09281
   D16       -1.07889   0.00024   0.00000   0.02124   0.02131  -1.05758
   D17        0.91987   0.00125   0.00000   0.04298   0.04289   0.96276
   D18        3.11795  -0.00011   0.00000  -0.00750  -0.00743   3.11053
   D19       -1.00483  -0.00046   0.00000  -0.02042  -0.02024  -1.02507
   D20        1.00250  -0.00028   0.00000  -0.01322  -0.01312   0.98938
   D21        0.95222   0.00142   0.00000   0.02689   0.02683   0.97905
   D22        3.11262   0.00108   0.00000   0.01398   0.01401   3.12664
   D23       -1.16323   0.00126   0.00000   0.02117   0.02113  -1.14210
   D24       -1.05503  -0.00087   0.00000  -0.00891  -0.00905  -1.06408
   D25        1.10537  -0.00121   0.00000  -0.02183  -0.02187   1.08350
   D26        3.11270  -0.00103   0.00000  -0.01464  -0.01474   3.09796
   D27        1.07870  -0.00067   0.00000  -0.02069  -0.02073   1.05797
   D28       -3.05475  -0.00082   0.00000  -0.02829  -0.02825  -3.08300
   D29       -1.06599   0.00020   0.00000  -0.00913  -0.00913  -1.07512
   D30       -1.08107   0.00056   0.00000   0.00093   0.00093  -1.08014
   D31        1.06866   0.00041   0.00000  -0.00667  -0.00659   1.06207
   D32        3.05742   0.00143   0.00000   0.01249   0.01253   3.06996
   D33       -3.07579  -0.00090   0.00000  -0.02017  -0.02026  -3.09604
   D34       -0.92605  -0.00105   0.00000  -0.02778  -0.02778  -0.95383
   D35        1.06271  -0.00003   0.00000  -0.00862  -0.00866   1.05405
   D36        1.00729  -0.00081   0.00000  -0.02347  -0.02356   0.98373
   D37       -3.12825  -0.00083   0.00000  -0.02919  -0.02918   3.12576
   D38       -1.14326   0.00034   0.00000  -0.00831  -0.00833  -1.15160
   D39       -1.14036   0.00030   0.00000  -0.00803  -0.00807  -1.14843
   D40        1.00729   0.00028   0.00000  -0.01375  -0.01369   0.99360
   D41        2.99227   0.00145   0.00000   0.00712   0.00716   2.99943
   D42       -3.12996  -0.00105   0.00000  -0.03075  -0.03080   3.12243
   D43       -0.98231  -0.00107   0.00000  -0.03647  -0.03642  -1.01873
   D44        1.00267   0.00010   0.00000  -0.01560  -0.01557   0.98710
   D45        1.01499  -0.00083   0.00000  -0.02007  -0.02019   0.99480
   D46       -1.13122   0.00031   0.00000  -0.00579  -0.00584  -1.13706
   D47       -3.11690  -0.00092   0.00000  -0.02706  -0.02709   3.13920
   D48       -1.12982   0.00037   0.00000  -0.00515  -0.00518  -1.13500
   D49        3.00716   0.00150   0.00000   0.00913   0.00918   3.01633
   D50        1.02148   0.00028   0.00000  -0.01214  -0.01207   1.00941
   D51       -3.11324  -0.00095   0.00000  -0.02762  -0.02765  -3.14089
   D52        1.02373   0.00018   0.00000  -0.01335  -0.01329   1.01044
   D53       -0.96194  -0.00104   0.00000  -0.03462  -0.03454  -0.99648
   D54        1.02612  -0.00061   0.00000  -0.01951  -0.01960   1.00652
   D55       -3.11483  -0.00103   0.00000  -0.03053  -0.03056   3.13780
   D56       -1.12393   0.00012   0.00000  -0.01022  -0.01027  -1.13420
   D57       -3.10757  -0.00067   0.00000  -0.02565  -0.02564  -3.13322
   D58       -0.96533  -0.00109   0.00000  -0.03666  -0.03660  -1.00193
   D59        1.02557   0.00006   0.00000  -0.01636  -0.01632   1.00926
   D60       -1.12185   0.00056   0.00000  -0.00434  -0.00435  -1.12620
   D61        1.02039   0.00014   0.00000  -0.01535  -0.01531   1.00508
   D62        3.01129   0.00129   0.00000   0.00495   0.00498   3.01627
   D63        1.07792  -0.00079   0.00000  -0.02482  -0.02483   1.05309
   D64       -3.08635  -0.00028   0.00000  -0.01623  -0.01624  -3.10259
   D65       -1.08065  -0.00001   0.00000  -0.00865  -0.00869  -1.08933
   D66       -1.06308   0.00017   0.00000  -0.00969  -0.00968  -1.07276
   D67        1.05584   0.00068   0.00000  -0.00110  -0.00109   1.05475
   D68        3.06154   0.00095   0.00000   0.00647   0.00646   3.06801
   D69       -3.05297  -0.00100   0.00000  -0.03015  -0.03013  -3.08310
   D70       -0.93405  -0.00048   0.00000  -0.02156  -0.02154  -0.95560
   D71        1.07165  -0.00021   0.00000  -0.01399  -0.01399   1.05766
   D72        0.98360  -0.00012   0.00000   0.00367   0.00365   0.98725
   D73        3.07385  -0.00001   0.00000   0.00558   0.00556   3.07940
   D74       -1.12234   0.00043   0.00000   0.01292   0.01290  -1.10944
   D75       -1.13505   0.00023   0.00000   0.00287   0.00289  -1.13216
   D76        0.95520   0.00034   0.00000   0.00479   0.00479   0.95999
   D77        3.04219   0.00078   0.00000   0.01213   0.01213   3.05433
   D78       -3.13714  -0.00073   0.00000  -0.01217  -0.01215   3.13390
   D79       -1.04688  -0.00061   0.00000  -0.01025  -0.01025  -1.05713
   D80        1.04011  -0.00018   0.00000  -0.00292  -0.00290   1.03721
         Item               Value     Threshold  Converged?
 Maximum Force            0.016936     0.000450     NO 
 RMS     Force            0.003031     0.000300     NO 
 Maximum Displacement     0.486377     0.001800     NO 
 RMS     Displacement     0.088697     0.001200     NO 
 Predicted change in Energy=-3.030917D-03
 GradGradGradGradGradGradGradGradGradGradGradGradGradGradGradGradGradGrad

                          Input orientation:                          
 ---------------------------------------------------------------------
 Center     Atomic      Atomic             Coordinates (Angstroms)
 Number     Number       Type             X           Y           Z
 ---------------------------------------------------------------------
      1          8           0        5.652073   -0.855835    0.607765
      2          6           0        4.586535   -0.148830    0.165425
      3          6           0        3.318519   -0.969312    0.163702
      4          6           0        3.409293   -2.215738   -0.725200
      5          6           0        3.634254   -1.873775   -2.199407
      6          6           0        3.771043   -3.108939   -3.098493
      7          6           0        2.545544   -4.033295   -3.115586
      8          6           0        1.235024   -3.345150   -3.519357
      9          6           0        1.272506   -2.658849   -4.891594
     10          6           0        1.629558   -3.584993   -6.061413
     11          6           0        0.647549   -4.745133   -6.251014
     12          8           0        4.692028    0.995703   -0.221168
     13          1           0        6.419674   -0.261685    0.549121
     14          1           0        2.514172   -0.309230   -0.168626
     15          1           0        3.107944   -1.269144    1.197627
     16          1           0        4.221979   -2.859699   -0.369140
     17          1           0        2.481563   -2.786539   -0.605897
     18          1           0        2.808864   -1.242297   -2.550829
     19          1           0        4.541784   -1.264814   -2.299298
     20          1           0        3.988460   -2.771596   -4.119099
     21          1           0        4.644803   -3.692067   -2.779903
     22          1           0        2.750604   -4.866361   -3.799163
     23          1           0        2.409654   -4.488560   -2.126935
     24          1           0        0.963176   -2.596748   -2.764376
     25          1           0        0.431272   -4.091017   -3.501063
     26          1           0        0.290602   -2.205872   -5.080529
     27          1           0        1.988853   -1.828037   -4.866175
     28          1           0        1.666657   -2.986812   -6.980089
     29          1           0        2.641054   -3.985668   -5.921160
     30          1           0       -0.374523   -4.374616   -6.385953
     31          1           0        0.907135   -5.339966   -7.132552
     32          1           0        0.645748   -5.418725   -5.388119
 ---------------------------------------------------------------------
                    Distance matrix (angstroms):
                    1          2          3          4          5
     1  O    0.000000
     2  C    1.353105   0.000000
     3  C    2.378139   1.510317   0.000000
     4  C    2.942141   2.539925   1.533611   0.000000
     5  C    3.603888   3.078101   2.549906   1.529977   0.000000
     6  C    4.727695   4.481119   3.927428   2.561482   1.533850
     7  C    5.797423   5.479028   4.554032   3.124663   2.586155
     8  C    6.537595   5.918336   4.852883   3.716225   3.108619
     9  C    7.257715   6.546482   5.709354   4.703302   3.666342
[...]
 Alpha virt. eigenvalues --    4.08164   4.10691   4.11124   4.17127   4.17992
 Alpha virt. eigenvalues --    4.20682   4.21760   4.26206   4.27661   4.31403
 Alpha virt. eigenvalues --    4.35130   4.36197   4.38500   4.39948   4.42868
 Alpha virt. eigenvalues --    4.44061   4.48998   4.49751   4.50157   4.53504
 Alpha virt. eigenvalues --    4.56373   4.57975   4.59981   4.61242   4.62865
 Alpha virt. eigenvalues --    4.65928   4.67074   4.68632   4.73315   4.74564
 Alpha virt. eigenvalues --    4.78696   4.80177   4.82043   4.83593   4.90026
 Alpha virt. eigenvalues --    4.94543   4.98029   5.04011   5.17185   5.20540
 Alpha virt. eigenvalues --    5.22773   5.39457   5.40291   5.51059   5.59499
 Alpha virt. eigenvalues --    5.73543   5.84989   5.86933   6.15726   6.19233
 Alpha virt. eigenvalues --    6.33324   6.34072   6.46078   6.47563   6.64015
 Alpha virt. eigenvalues --    6.69096   6.74006   6.81179   6.88633   7.07127
 Alpha virt. eigenvalues --    7.07758   7.28170  22.42666  22.54068  22.56604
 Alpha virt. eigenvalues --   22.57209  22.60637  22.62326  22.63855  22.66697
 Alpha virt. eigenvalues --   22.69868  23.27017  43.94663  44.01826
          Condensed to atoms (all electrons):
               1          2          3          4          5          6
     1  O    7.975061   0.339868  -0.118015   0.004482   0.003381  -0.001822
     2  C    0.339868   4.520413   0.265053  -0.035126   0.017547  -0.001374
     3  C   -0.118015   0.265053   5.299067   0.193101  -0.061252   0.013086
     4  C    0.004482  -0.035126   0.193101   5.312068   0.185283  -0.041216
     5  C    0.003381   0.017547  -0.061252   0.185283   5.356379   0.168994
     6  C   -0.001822  -0.001374   0.013086  -0.041216   0.168994   5.334906
     7  C    0.000071   0.000393  -0.002694   0.030716  -0.061902   0.155413
     8  C   -0.000008   0.000049   0.000332  -0.015649   0.054833  -0.064834
     9  C    0.000001  -0.000014   0.000060   0.001379  -0.019859   0.051627
    10  C   -0.000000   0.000001  -0.000005   0.000055   0.002005  -0.020959
    11  C   -0.000000  -0.000000   0.000000  -0.000018  -0.000024   0.002150
    12  O   -0.094131   0.675082  -0.097007   0.005881   0.000667   0.000344
    13  H    0.287089  -0.023120   0.017501  -0.002213   0.000026  -0.000008
    14  H    0.004713  -0.055927   0.434349  -0.028663  -0.005327   0.000367
    15  H    0.003891  -0.019218   0.402682  -0.051584   0.010026  -0.000422
    16  H    0.004567  -0.012797  -0.014461   0.424068  -0.062934   0.008698
    17  H   -0.000176   0.007708  -0.038069   0.420102  -0.033314  -0.015109
    18  H    0.000481  -0.004556   0.008520  -0.066118   0.423832  -0.021884
    19  H   -0.000665   0.008678  -0.011500  -0.034973   0.431987  -0.046738
    20  H    0.000016  -0.000063  -0.000543   0.010396  -0.069395   0.441527
    21  H    0.000247   0.000084  -0.000073  -0.009388  -0.029049   0.432794
    22  H    0.000000   0.000008   0.000017  -0.000481   0.010861  -0.059589
    23  H   -0.000000  -0.000152   0.000978  -0.001497  -0.010234  -0.030761
    24  H    0.000000   0.000102  -0.000350   0.000049   0.006213  -0.018179
    25  H   -0.000000  -0.000002  -0.000003   0.000219  -0.001979   0.012120
    26  H    0.000000   0.000000  -0.000002  -0.000011   0.000444  -0.001948
    27  H   -0.000000  -0.000002   0.000019  -0.000086  -0.002337   0.009839
    28  H    0.000000  -0.000000   0.000000  -0.000000  -0.000014   0.000602
    29  H   -0.000000  -0.000000   0.000001   0.000032  -0.000416  -0.003077
    30  H    0.000000  -0.000000  -0.000000   0.000001  -0.000012  -0.000020
    31  H    0.000000   0.000000   0.000000   0.000000   0.000003  -0.000079
    32  H    0.000000   0.000000  -0.000000  -0.000003   0.000059  -0.000195
               7          8          9         10         11         12
     1  O    0.000071  -0.000008   0.000001  -0.000000  -0.000000  -0.094131
     2  C    0.000393   0.000049  -0.000014   0.000001  -0.000000   0.675082
     3  C   -0.002694   0.000332   0.000060  -0.000005   0.000000  -0.097007
     4  C    0.030716  -0.015649   0.001379   0.000055  -0.000018   0.005881
     5  C   -0.061902   0.054833  -0.019859   0.002005  -0.000024   0.000667
     6  C    0.155413  -0.064834   0.051627  -0.020959   0.002150   0.000344
     7  C    5.446130   0.117615  -0.060640   0.053814  -0.018373  -0.000002
     8  C    0.117615   5.420225   0.172238  -0.068392   0.034988  -0.000003
     9  C   -0.060640   0.172238   5.284316   0.235771  -0.060726   0.000001
    10  C    0.053814  -0.068392   0.235771   5.165663   0.254328  -0.000000
    11  C   -0.018373   0.034988  -0.060726   0.254328   5.070510   0.000000
    12  O   -0.000002  -0.000003   0.000001  -0.000000   0.000000   7.820332
    13  H   -0.000005   0.000001  -0.000000   0.000000   0.000000   0.007017
    14  H    0.000049  -0.000044   0.000016   0.000000   0.000000   0.007559
    15  H    0.000048  -0.000007   0.000004  -0.000000   0.000000   0.002783
    16  H   -0.006029   0.000755   0.000012  -0.000009   0.000001   0.000105
    17  H    0.010306  -0.002181  -0.000345   0.000048   0.000000  -0.000360
    18  H   -0.020144   0.005670   0.000359  -0.000463   0.000028  -0.000188
    19  H    0.010377  -0.001098   0.000072   0.000026   0.000001  -0.000912
    20  H   -0.029160  -0.013073   0.002806   0.000163  -0.000179   0.000006
    21  H   -0.061404   0.010666  -0.000932   0.000097   0.000011  -0.000015
    22  H    0.430239  -0.024438  -0.012792   0.001378   0.001121   0.000000
    23  H    0.433792  -0.060421   0.009790  -0.000861   0.000015   0.000001
    24  H   -0.022151   0.424551  -0.054236   0.008846  -0.000434  -0.000002
    25  H   -0.063706   0.436682  -0.031576  -0.008004  -0.002093  -0.000000
    26  H    0.012825  -0.067772   0.439761  -0.035238  -0.007115  -0.000000
    27  H   -0.018955  -0.025591   0.422936  -0.054605   0.009224  -0.000001
    28  H   -0.002693   0.015055  -0.060877   0.438357  -0.039605   0.000000
    29  H    0.014592  -0.024809  -0.028627   0.418982  -0.050950   0.000000
    30  H    0.001509  -0.009393   0.009365  -0.053984   0.416083  -0.000000
    31  H    0.000664  -0.001692   0.011893  -0.045569   0.418301   0.000000
    32  H   -0.005703   0.019266  -0.019853  -0.031044   0.408231  -0.000000
              13         14         15         16         17         18
     1  O    0.287089   0.004713   0.003891   0.004567  -0.000176   0.000481
     2  C   -0.023120  -0.055927  -0.019218  -0.012797   0.007708  -0.004556
     3  C    0.017501   0.434349   0.402682  -0.014461  -0.038069   0.008520
     4  C   -0.002213  -0.028663  -0.051584   0.424068   0.420102  -0.066118
     5  C    0.000026  -0.005327   0.010026  -0.062934  -0.033314   0.423832
     6  C   -0.000008   0.000367  -0.000422   0.008698  -0.015109  -0.021884
     7  C   -0.000005   0.000049   0.000048  -0.006029   0.010306  -0.020144
     8  C    0.000001  -0.000044  -0.000007   0.000755  -0.002181   0.005670
     9  C   -0.000000   0.000016   0.000004   0.000012  -0.000345   0.000359
    10  C    0.000000   0.000000  -0.000000  -0.000009   0.000048  -0.000463
    11  C    0.000000   0.000000   0.000000   0.000001   0.000000   0.000028
    12  O    0.007017   0.007559   0.002783   0.000105  -0.000360  -0.000188
    13  H    0.379156  -0.000711  -0.000812  -0.000271   0.000071   0.000010
    14  H   -0.000711   0.491384  -0.014867   0.004325  -0.004545   0.000020
    15  H   -0.000812  -0.014867   0.510287  -0.003107  -0.005845  -0.000021
    16  H   -0.000271   0.004325  -0.003107   0.496923  -0.018800   0.005711
    17  H    0.000071  -0.004545  -0.005845  -0.018800   0.529475  -0.000868
    18  H    0.000010   0.000020  -0.000021   0.005711  -0.000868   0.524238
    19  H   -0.000085   0.000792  -0.000180   0.000244   0.003865  -0.015846
    20  H   -0.000002   0.000020   0.000015   0.000077  -0.000525  -0.002395
    21  H    0.000011  -0.000042   0.000007   0.001267   0.001461   0.005136
    22  H   -0.000000   0.000000  -0.000003  -0.000200   0.000525  -0.000765
    23  H   -0.000000   0.000014  -0.000000   0.001265  -0.007867   0.001807
    24  H   -0.000000   0.000394  -0.000018  -0.000000   0.001024  -0.008805
    25  H    0.000000  -0.000004  -0.000001   0.000003   0.000023   0.000410
    26  H   -0.000000   0.000000   0.000000   0.000000  -0.000014   0.000001
    27  H    0.000000  -0.000014  -0.000001  -0.000005   0.000129   0.001955
    28  H    0.000000  -0.000000   0.000000   0.000000   0.000000  -0.000012
    29  H   -0.000000   0.000000   0.000000   0.000002  -0.000014   0.000185
    30  H   -0.000000  -0.000000  -0.000000  -0.000000  -0.000000   0.000002
    31  H   -0.000000  -0.000000  -0.000000  -0.000000  -0.000000  -0.000000
    32  H   -0.000000   0.000000   0.000000  -0.000000   0.000002  -0.000011
              19         20         21         22         23         24
     1  O   -0.000665   0.000016   0.000247   0.000000  -0.000000   0.000000
     2  C    0.008678  -0.000063   0.000084   0.000008  -0.000152   0.000102
     3  C   -0.011500  -0.000543  -0.000073   0.000017   0.000978  -0.000350
     4  C   -0.034973   0.010396  -0.009388  -0.000481  -0.001497   0.000049
     5  C    0.431987  -0.069395  -0.029049   0.010861  -0.010234   0.006213
     6  C   -0.046738   0.441527   0.432794  -0.059589  -0.030761  -0.018179
     7  C    0.010377  -0.029160  -0.061404   0.430239   0.433792  -0.022151
     8  C   -0.001098  -0.013073   0.010666  -0.024438  -0.060421   0.424551
     9  C    0.000072   0.002806  -0.000932  -0.012792   0.009790  -0.054236
    10  C    0.000026   0.000163   0.000097   0.001378  -0.000861   0.008846
    11  C    0.000001  -0.000179   0.000011   0.001121   0.000015  -0.000434
    12  O   -0.000912   0.000006  -0.000015   0.000000   0.000001  -0.000002
    13  H   -0.000085  -0.000002   0.000011  -0.000000  -0.000000  -0.000000
    14  H    0.000792   0.000020  -0.000042   0.000000   0.000014   0.000394
    15  H   -0.000180   0.000015   0.000007  -0.000003  -0.000000  -0.000018
    16  H    0.000244   0.000077   0.001267  -0.000200   0.001265  -0.000000
    17  H    0.003865  -0.000525   0.001461   0.000525  -0.007867   0.001024
    18  H   -0.015846  -0.002395   0.005136  -0.000765   0.001807  -0.008805
    19  H    0.503838  -0.006058  -0.003230  -0.000136  -0.000611   0.000409
    20  H   -0.006058   0.521341  -0.014666  -0.003872   0.004459   0.001362
    21  H   -0.003230  -0.014666   0.520144  -0.005880  -0.002133  -0.000721
    22  H   -0.000136  -0.003872  -0.005880   0.519957  -0.015087   0.004425
    23  H   -0.000611   0.004459  -0.002133  -0.015087   0.521240  -0.003342
    24  H    0.000409   0.001362  -0.000721   0.004425  -0.003342   0.532456
    25  H    0.000034  -0.000704  -0.000218  -0.003516  -0.005295  -0.016487
    26  H   -0.000007   0.000416   0.000034  -0.000720  -0.000211  -0.005446
    27  H    0.000208  -0.007775   0.000349   0.001353  -0.000662  -0.004406
    28  H   -0.000003  -0.000055  -0.000002   0.000606   0.000029  -0.000188
    29  H   -0.000017   0.001836   0.000121  -0.009938   0.000432  -0.000746
    30  H    0.000000  -0.000009   0.000001  -0.000246   0.000005  -0.000243
    31  H   -0.000000   0.000011  -0.000002  -0.000134   0.000000   0.000029
    32  H    0.000000   0.000092  -0.000008   0.002361   0.000041   0.000480
              25         26         27         28         29         30
     1  O   -0.000000   0.000000  -0.000000   0.000000  -0.000000   0.000000
     2  C   -0.000002   0.000000  -0.000002  -0.000000  -0.000000  -0.000000
     3  C   -0.000003  -0.000002   0.000019   0.000000   0.000001  -0.000000
     4  C    0.000219  -0.000011  -0.000086  -0.000000   0.000032   0.000001
     5  C   -0.001979   0.000444  -0.002337  -0.000014  -0.000416  -0.000012
     6  C    0.012120  -0.001948   0.009839   0.000602  -0.003077  -0.000020
     7  C   -0.063706   0.012825  -0.018955  -0.002693   0.014592   0.001509
     8  C    0.436682  -0.067772  -0.025591   0.015055  -0.024809  -0.009393
     9  C   -0.031576   0.439761   0.422936  -0.060877  -0.028627   0.009365
    10  C   -0.008004  -0.035238  -0.054605   0.438357   0.418982  -0.053984
    11  C   -0.002093  -0.007115   0.009224  -0.039605  -0.050950   0.416083
    12  O   -0.000000  -0.000000  -0.000001   0.000000   0.000000  -0.000000
    13  H    0.000000  -0.000000   0.000000   0.000000  -0.000000  -0.000000
    14  H   -0.000004   0.000000  -0.000014  -0.000000   0.000000  -0.000000
    15  H   -0.000001   0.000000  -0.000001   0.000000   0.000000  -0.000000
    16  H    0.000003   0.000000  -0.000005   0.000000   0.000002  -0.000000
    17  H    0.000023  -0.000014   0.000129   0.000000  -0.000014  -0.000000
    18  H    0.000410   0.000001   0.001955  -0.000012   0.000185   0.000002
    19  H    0.000034  -0.000007   0.000208  -0.000003  -0.000017   0.000000
    20  H   -0.000704   0.000416  -0.007775  -0.000055   0.001836  -0.000009
    21  H   -0.000218   0.000034   0.000349  -0.000002   0.000121   0.000001
    22  H   -0.003516  -0.000720   0.001353   0.000606  -0.009938  -0.000246
    23  H   -0.005295  -0.000211  -0.000662   0.000029   0.000432   0.000005
    24  H   -0.016487  -0.005446  -0.004406  -0.000188  -0.000746  -0.000243
    25  H    0.521211  -0.002773   0.004916  -0.000770   0.001864   0.001774
    26  H   -0.002773   0.529610  -0.016607  -0.004068   0.005906   0.001639
    27  H    0.004916  -0.016607   0.537299  -0.005696  -0.002394   0.000133
    28  H   -0.000770  -0.004068  -0.005696   0.548549  -0.024131  -0.003466
    29  H    0.001864   0.005906  -0.002394  -0.024131   0.560803   0.007627
    30  H    0.001774   0.001639   0.000133  -0.003466   0.007627   0.540607
    31  H    0.000352  -0.000278  -0.000344  -0.006120  -0.003241  -0.022573
    32  H   -0.009770   0.001258  -0.000625   0.006422  -0.004205  -0.030549
              31         32
     1  O    0.000000   0.000000
     2  C    0.000000   0.000000
     3  C    0.000000  -0.000000
     4  C    0.000000  -0.000003
     5  C    0.000003   0.000059
     6  C   -0.000079  -0.000195
     7  C    0.000664  -0.005703
     8  C   -0.001692   0.019266
     9  C    0.011893  -0.019853
    10  C   -0.045569  -0.031044
    11  C    0.418301   0.408231
    12  O    0.000000  -0.000000
    13  H   -0.000000  -0.000000
    14  H   -0.000000   0.000000
    15  H   -0.000000   0.000000
    16  H   -0.000000  -0.000000
    17  H   -0.000000   0.000002
    18  H   -0.000000  -0.000011
    19  H   -0.000000   0.000000
    20  H    0.000011   0.000092
    21  H   -0.000002  -0.000008
    22  H   -0.000134   0.002361
    23  H    0.000000   0.000041
    24  H    0.000029   0.000480
    25  H    0.000352  -0.009770
    26  H   -0.000278   0.001258
    27  H   -0.000344  -0.000625
    28  H   -0.006120   0.006422
    29  H   -0.003241  -0.004205
    30  H   -0.022573  -0.030549
    31  H    0.529108  -0.024338
    32  H   -0.024338   0.548823
 Mulliken charges:
               1
     1  O   -0.409051
     2  C    0.317364
     3  C   -0.290791
     4  C   -0.300806
     5  C   -0.314492
     6  C   -0.304248
     7  C   -0.344991
     8  C   -0.333522
     9  C   -0.291928
    10  C   -0.260402
    11  C   -0.435474
    12  O   -0.327156
    13  H    0.336346
    14  H    0.166141
    15  H    0.166340
    16  H    0.170590
    17  H    0.153294
    18  H    0.163713
    19  H    0.161529
    20  H    0.163931
    21  H    0.155335
    22  H    0.164947
    23  H    0.165267
    24  H    0.155413
    25  H    0.167295
    26  H    0.150316
    27  H    0.151745
    28  H    0.138082
    29  H    0.140181
    30  H    0.141750
    31  H    0.144010
    32  H    0.139271
 Sum of Mulliken charges =  -0.00000
 Mulliken charges with hydrogens summed into heavy atoms:
               1
     1  O   -0.072705
     2  C    0.317364
     3  C    0.041691
     4  C    0.023078
     5  C    0.010750
     6  C    0.015018
     7  C   -0.014778
     8  C   -0.010814
     9  C    0.010133
    10  C    0.017862
    11  C   -0.010443
    12  O   -0.327156
 Electronic spatial extent (au):  <R**2>=           4038.6946
 Charge=              0.0000 electrons
 Dipole moment (field-independent basis, Debye):
    X=             -0.9303    Y=             -1.6588    Z=              0.1028  Tot=              1.9046
 Quadrupole moment (field-independent basis, Debye-Ang):
   XX=            -80.1923   YY=            -83.1564   ZZ=            -73.8854
   XY=             -8.0840   XZ=             -1.3837   YZ=              0.2182
 Traceless Quadrupole moment (field-independent basis, Debye-Ang):
   XX=             -1.1143   YY=             -4.0783   ZZ=              5.1926
   XY=             -8.0840   XZ=             -1.3837   YZ=              0.2182
 Octapole moment (field-independent basis, Debye-Ang**2):
  XXX=             35.7573  YYY=             -4.9743  ZZZ=             -6.2073  XYY=            -12.7041
  XXY=            -30.3024  XXZ=            -19.7070  XZZ=             27.8903  YZZ=              0.1285
  YYZ=              1.0132  XYZ=              0.4698
 Hexadecapole moment (field-independent basis, Debye-Ang**3):
 XXXX=          -4515.6780 YYYY=           -444.4264 ZZZZ=           -355.0669 XXXY=           -155.9102
 XXXZ=           -112.0601 YYYX=            -24.4686 YYYZ=              2.6966 ZZZX=            -33.5861
 ZZZY=              1.6334 XXYY=           -933.3518 XXZZ=           -743.5401 YYZZ=           -128.8521
 XXYZ=             11.1862 YYXZ=              1.7951 ZZXY=             -2.8750
 N-N= 7.230922994155D+02 E-N=-2.710968650688D+03  KE= 5.405719588964D+02
 Unable to Open any file for archive entry.
 1\1\GINC-NOTCH075\SP\RM062X\def2TZVP\C10H20O2\U6032257\03-Feb-2022\0\\
 # M062X/def2tzvp int=(grid=ultrafine) nmr=giao guess=read geom=check\\
 Ac1.xyz\\0,1\O,0,5.6705985213,-0.8686427901,0.496266344\C,0,4.58318311
 4,-0.1318201958,0.147347745\C,0,3.3169137256,-0.9562603131,0.170720732
 8\C,0,3.3960895142,-2.2136177838,-0.7110493019\C,0,3.650141379,-1.8922
 486,-2.1868328791\C,0,3.7712515123,-3.1335617742,-3.0818184236\C,0,2.5
 32914191,-4.0439567902,-3.1082286713\C,0,1.2253011535,-3.348380219,-3.
 5161916588\C,0,1.2600892002,-2.6549062541,-4.8872456493\C,0,1.62850469
 29,-3.5652908895,-6.0681588628\C,0,0.672739877,-4.7451089083,-6.264908
 6255\O,0,4.6654490743,1.0415652968,-0.1397486018\H,0,6.4277426053,-0.2
 611296124,0.4484417028\H,0,2.5050457378,-0.299530374,-0.1505352257\H,0
 ,3.1271788402,-1.2460641505,1.2110782491\H,0,4.1897609372,-2.868214297
 5,-0.334049443\H,0,2.4546838324,-2.7625569133,-0.6016590308\H,0,2.8499
 257788,-1.2384379346,-2.5562401991\H,0,4.5760550975,-1.3098081669,-2.2
 732520809\H,0,4.0043105858,-2.8062984391,-4.1021134075\H,0,4.634190521
 ,-3.726425584,-2.7514699343\H,0,2.7320738864,-4.8780024873,-3.79204155
 84\H,0,2.3922170486,-4.5012617105,-2.1213305761\H,0,0.954308183,-2.603
 8148194,-2.7572809635\H,0,0.4176279287,-4.0899036786,-3.5019259646\H,0
 ,0.2739640706,-2.2106211099,-5.0767724434\H,0,1.9661548215,-1.81603153
 34,-4.8543806963\H,0,1.6453253167,-2.958677076,-6.9819682945\H,0,2.650
 9259333,-3.9425415944,-5.9408680657\H,0,-0.360673629,-4.3987923381,-6.
 3810412859\H,0,0.9335794477,-5.3211991142,-7.1582548882\H,0,0.69582710
 12,-5.432059845,-5.4129880416\\Version=ES64L-G16RevC.01\State=1-A\HF=-
 543.5425539\RMSD=3.175e-09\Dipole=-0.041298,-0.7480032,0.0174861\Quadr
 upole=4.6886953,-7.5972259,2.9085306,-0.9461922,0.3853813,-2.1155611\P
 G=C01 [X(C10H20O2)]\\@
 The archive entry for this job was punched.


 NO HUMAN INVESTIGATION CAN BECOME REAL SCIENCE
 WITHOUT GOING THROUGH MATHEMATICAL PEOPLE.
 -- LEONARDO DA VINCI, IN "PENSIERI" CA. 1492
 Job cpu time:       0 days  0 hours 39 minutes 12.3 seconds.
 Elapsed time:       0 days  0 hours  1 minutes 25.5 seconds.
 File lengths (MBytes):  RWF=    140 Int=      0 D2E=      0 Chk=     24 Scr=      1
 Normal termination of Gaussian 16 at Thu Feb  3 10:35:04 2022.
