 Entering Gaussian System, Link 0=/uufs/chpc.utah.edu/sys/installdir/gaussian16/C01/AVX2/g16/g16
 Input=Ac1_clust-21.com
 Output=Ac1_clust-21.log
 Initial command:
 /uufs/chpc.utah.edu/sys/installdir/gaussian16/C01/AVX2/g16/l1.exe "/scratch/general/lustre/u6032257/3857477/notchpeak.peaks/Gau-219690.inp" -scrdir="/scratch/general/lustre/u6032257/3857477/notchpeak.peaks/"
 Entering Link 1 = /uufs/chpc.utah.edu/sys/installdir/gaussian16/C01/AVX2/g16/l1.exe PID=    219692.
  
 Copyright (c) 1988-2019, Gaussian, Inc.  All Rights Reserved.
  
 This is part of the Gaussian(R) 16 program.  It is based on
 the Gaussian(R) 09 system (copyright 2009, Gaussian, Inc.),
 the Gaussian(R) 03 system (copyright 2003, Gaussian, Inc.),
 the Gaussian(R) 98 system (copyright 1998, Gaussian, Inc.),
 the Gaussian(R) 94 system (copyright 1995, Gaussian, Inc.),
 the Gaussian 92(TM) system (copyright 1992, Gaussian, Inc.),
 the Gaussian 90(TM) system (copyright 1990, Gaussian, Inc.),
 the Gaussian 88(TM) system (copyright 1988, Gaussian, Inc.),
 the Gaussian 86(TM) system (copyright 1986, Carnegie Mellon
 University), and the Gaussian 82(TM) system (copyright 1983,
 Carnegie Mellon University). Gaussian is a federally registered
 trademark of Gaussian, Inc.
  
 This software contains proprietary and confidential information,
 including trade secrets, belonging to Gaussian, Inc.
  
 This software is provided under written license and may be
 used, copied, transmitted, or stored only in accord with that
 written license.
  
 The following legend is applicable only to US Government
 contracts under FAR:
  
                    RESTRICTED RIGHTS LEGEND
  
 Use, reproduction and disclosure by the US Government is
 subject to restrictions as set forth in subparagraphs (a)
 and (c) of the Commercial Computer Software - Restricted
 Rights clause in FAR 52.227-19.
  
 Gaussian, Inc.
 340 Quinnipiac St., Bldg. 40, Wallingford CT 06492
  
  
 ---------------------------------------------------------------
 Warning -- This program may not be used in any manner that
 competes with the business of Gaussian, Inc. or will provide
 assistance to any competitor of Gaussian, Inc.  The licensee
 of this program is prohibited from giving any competitor of
 Gaussian, Inc. access to this program.  By using this program,
 the user acknowledges that Gaussian, Inc. is engaged in the
 business of creating and licensing software in the field of
 computational chemistry and represents and warrants to the
 licensee that it is not a competitor of Gaussian, Inc. and that
 it will not use this program in any manner prohibited above.
 ---------------------------------------------------------------
  

 Cite this work as:
 Gaussian 16, Revision C.01,
 M. J. Frisch, G. W. Trucks, H. B. Schlegel, G. E. Scuseria, 
 M. A. Robb, J. R. Cheeseman, G. Scalmani, V. Barone, 
 G. A. Petersson, H. Nakatsuji, X. Li, M. Caricato, A. V. Marenich, 
 J. Bloino, B. G. Janesko, R. Gomperts, B. Mennucci, H. P. Hratchian, 
 J. V. Ortiz, A. F. Izmaylov, J. L. Sonnenberg, D. Williams-Young, 
 F. Ding, F. Lipparini, F. Egidi, J. Goings, B. Peng, A. Petrone, 
 T. Henderson, D. Ranasinghe, V. G. Zakrzewski, J. Gao, N. Rega, 
 G. Zheng, W. Liang, M. Hada, M. Ehara, K. Toyota, R. Fukuda, 
 J. Hasegawa, M. Ishida, T. Nakajima, Y. Honda, O. Kitao, H. Nakai, 
 T. Vreven, K. Throssell, J. A. Montgomery, Jr., J. E. Peralta, 
 F. Ogliaro, M. J. Bearpark, J. J. Heyd, E. N. Brothers, K. N. Kudin, 
 V. N. Staroverov, T. A. Keith, R. Kobayashi, J. Normand, 
 K. Raghavachari, A. P. Rendell, J. C. Burant, S. S. Iyengar, 
 J. Tomasi, M. Cossi, J. M. Millam, M. Klene, C. Adamo, R. Cammi, 
 J. W. Ochterski, R. L. Martin, K. Morokuma, O. Farkas, 
 J. B. Foresman, and D. J. Fox, Gaussian, Inc., Wallingford CT, 2019.
 
 ******************************************
 Gaussian 16:  ES64L-G16RevC.01  3-Jul-2019
                 3-Feb-2022 
 ******************************************
 %NProcShared=32
 Will use up to   32 processors via shared memory.
 %mem=16GB
 %chk=Ac1_clust-21.chk
 ----------------------------------------------------------------------
 # B3LYP/6-31G(d,p) empiricaldispersion=GD3BJ int=(grid=ultrafine) opt 
 freq=noraman
 ----------------------------------------------------------------------
 1/18=20,19=15,26=4,38=1/1,3;
 2/9=110,12=2,17=6,18=5,40=1/2;
 3/5=1,6=6,7=101,11=2,25=1,30=1,71=1,74=-5,75=-5,124=41/1,2,3;
 4//1;
 5/5=2,38=5/2;
 6/7=2,8=2,9=2,10=2,28=1/1;
 7//1,2,3,16;
 1/18=20,19=15,26=4/3(2);
 2/9=110/2;
 99//99;
 2/9=110/2;
 3/5=1,6=6,7=101,11=2,25=1,30=1,71=1,74=-5,75=-5,124=41/1,2,3;
 4/5=5,16=3,69=1/1;
 5/5=2,38=5/2;
 7//1,2,3,16;
 1/18=20,19=15,26=4/3(-5);
 2/9=110/2;
 6/7=2,8=2,9=2,10=2,19=2,28=1/1;
 99/9=1/99;
 -------
 Ac1.xyz
 -------
 Symbolic Z-matrix:
 Charge =  0 Multiplicity = 1
 O                     6.4408   -0.4441    0.0914 
 C                     5.1005   -0.3       0.1582 
 C                     4.3727   -1.587    -0.2254 
 C                     2.8272   -1.4845   -0.1733 
 C                     2.1014   -2.7766   -0.6095 
 C                     1.6741   -2.8318   -2.0921 
 C                     2.8329   -2.785    -3.108 
 C                     2.3937   -2.9461   -4.5771 
 C                     1.8535   -4.3483   -4.9278 
 C                     1.5881   -4.56     -6.4308 
 C                     0.4605   -3.6823   -6.9971 
 O                     4.5559    0.7438    0.49 
 H                     6.7813    0.4131    0.3497 
 H                     4.7154   -2.3679    0.4528 
 H                     4.7114   -1.8579   -1.2229 
 H                     2.5314   -1.2514    0.8524 
 H                     2.4742   -0.6414   -0.7722 
 H                     2.7023   -3.6532   -0.3607 
 H                     1.1968   -2.8772   -0.0069 
 H                     1.1017   -3.7482   -2.2382 
 H                     0.9789   -2.0163   -2.2996 
 H                     3.3419   -1.825    -3.017 
 H                     3.575    -3.5465   -2.862 
 H                     3.25     -2.7288   -5.2179 
 H                     1.647    -2.187    -4.8144 
 H                     2.5717   -5.0991   -4.5939 
 H                     0.936    -4.5478   -4.373 
 H                     2.5056   -4.3861   -6.9957 
 H                     1.3329   -5.6078   -6.5984 
 H                    -0.4723   -3.834    -6.4527 
 H                     0.7099   -2.6223   -6.9449 
 H                     0.2722   -3.9196   -8.0446 
 

 GradGradGradGradGradGradGradGradGradGradGradGradGradGradGradGradGradGrad
 Berny optimization.
 Initialization pass.
                           ----------------------------
                           !    Initial Parameters    !
                           ! (Angstroms and Degrees)  !
 --------------------------                            --------------------------
 ! Name  Definition              Value          Derivative Info.                !
 --------------------------------------------------------------------------------
 ! R1    R(1,2)                  1.3497         estimate D2E/DX2                !
 ! R2    R(1,13)                 0.9578         estimate D2E/DX2                !
 ! R3    R(2,3)                  1.5275         estimate D2E/DX2                !
 ! R4    R(2,12)                 1.2232         estimate D2E/DX2                !
 ! R5    R(3,4)                  1.5498         estimate D2E/DX2                !
 ! R6    R(3,14)                 1.0896         estimate D2E/DX2                !
 ! R7    R(3,15)                 1.0877         estimate D2E/DX2                !
 ! R8    R(4,5)                  1.5449         estimate D2E/DX2                !
 ! R9    R(4,16)                 1.0927         estimate D2E/DX2                !
 ! R10   R(4,17)                 1.0928         estimate D2E/DX2                !
 ! R11   R(5,6)                  1.5439         estimate D2E/DX2                !
 ! R12   R(5,18)                 1.0915         estimate D2E/DX2                !
 ! R13   R(5,19)                 1.0916         estimate D2E/DX2                !
 ! R14   R(6,7)                  1.5418         estimate D2E/DX2                !
 ! R15   R(6,20)                 1.0903         estimate D2E/DX2                !
 ! R16   R(6,21)                 1.0915         estimate D2E/DX2                !
 ! R17   R(7,8)                  1.5418         estimate D2E/DX2                !
 ! R18   R(7,22)                 1.0904         estimate D2E/DX2                !
 ! R19   R(7,23)                 1.0914         estimate D2E/DX2                !
 ! R20   R(8,9)                  1.543          estimate D2E/DX2                !
 ! R21   R(8,24)                 1.0914         estimate D2E/DX2                !
 ! R22   R(8,25)                 1.0909         estimate D2E/DX2                !
 ! R23   R(9,10)                 1.5409         estimate D2E/DX2                !
 ! R24   R(9,26)                 1.0913         estimate D2E/DX2                !
 ! R25   R(9,27)                 1.0906         estimate D2E/DX2                !
 ! R26   R(10,11)                1.5371         estimate D2E/DX2                !
 ! R27   R(10,28)                1.0914         estimate D2E/DX2                !
 ! R28   R(10,29)                1.0914         estimate D2E/DX2                !
 ! R29   R(11,30)                1.0906         estimate D2E/DX2                !
 ! R30   R(11,31)                1.0902         estimate D2E/DX2                !
 ! R31   R(11,32)                1.0904         estimate D2E/DX2                !
 ! A1    A(2,1,13)             104.13           estimate D2E/DX2                !
 ! A2    A(1,2,3)              111.7633         estimate D2E/DX2                !
 ! A3    A(1,2,12)             123.1387         estimate D2E/DX2                !
 ! A4    A(3,2,12)             125.0979         estimate D2E/DX2                !
 ! A5    A(2,3,4)              114.2669         estimate D2E/DX2                !
 ! A6    A(2,3,14)             107.3185         estimate D2E/DX2                !
 ! A7    A(2,3,15)             106.9647         estimate D2E/DX2                !
 ! A8    A(4,3,14)             109.8849         estimate D2E/DX2                !
 ! A9    A(4,3,15)             110.9671         estimate D2E/DX2                !
 ! A10   A(14,3,15)            107.1204         estimate D2E/DX2                !
 ! A11   A(3,4,5)              113.8105         estimate D2E/DX2                !
 ! A12   A(3,4,16)             108.3993         estimate D2E/DX2                !
 ! A13   A(3,4,17)             110.7782         estimate D2E/DX2                !
 ! A14   A(5,4,16)             108.4391         estimate D2E/DX2                !
 ! A15   A(5,4,17)             109.803          estimate D2E/DX2                !
 ! A16   A(16,4,17)            105.2146         estimate D2E/DX2                !
 ! A17   A(4,5,6)              115.5355         estimate D2E/DX2                !
 ! A18   A(4,5,18)             110.408          estimate D2E/DX2                !
 ! A19   A(4,5,19)             108.0923         estimate D2E/DX2                !
 ! A20   A(6,5,18)             110.0313         estimate D2E/DX2                !
 ! A21   A(6,5,19)             107.3054         estimate D2E/DX2                !
 ! A22   A(18,5,19)            104.8549         estimate D2E/DX2                !
 ! A23   A(5,6,7)              115.0647         estimate D2E/DX2                !
 ! A24   A(5,6,20)             107.6993         estimate D2E/DX2                !
 ! A25   A(5,6,21)             109.397          estimate D2E/DX2                !
 ! A26   A(7,6,20)             109.3782         estimate D2E/DX2                !
 ! A27   A(7,6,21)             109.3152         estimate D2E/DX2                !
 ! A28   A(20,6,21)            105.5519         estimate D2E/DX2                !
 ! A29   A(6,7,8)              114.2411         estimate D2E/DX2                !
 ! A30   A(6,7,22)             108.8193         estimate D2E/DX2                !
 ! A31   A(6,7,23)             109.9599         estimate D2E/DX2                !
 ! A32   A(8,7,22)             107.7275         estimate D2E/DX2                !
 ! A33   A(8,7,23)             109.6071         estimate D2E/DX2                !
 ! A34   A(22,7,23)            106.1456         estimate D2E/DX2                !
 ! A35   A(7,8,9)              114.283          estimate D2E/DX2                !
 ! A36   A(7,8,24)             108.3704         estimate D2E/DX2                !
 ! A37   A(7,8,25)             109.2409         estimate D2E/DX2                !
 ! A38   A(9,8,24)             108.7942         estimate D2E/DX2                !
 ! A39   A(9,8,25)             110.0757         estimate D2E/DX2                !
 ! A40   A(24,8,25)            105.7104         estimate D2E/DX2                !
 ! A41   A(8,9,10)             114.0067         estimate D2E/DX2                !
 ! A42   A(8,9,26)             108.9804         estimate D2E/DX2                !
 ! A43   A(8,9,27)             110.1899         estimate D2E/DX2                !
 ! A44   A(10,9,26)            108.4979         estimate D2E/DX2                !
 ! A45   A(10,9,27)            109.0368         estimate D2E/DX2                !
 ! A46   A(26,9,27)            105.7923         estimate D2E/DX2                !
 ! A47   A(9,10,11)            114.0342         estimate D2E/DX2                !
 ! A48   A(9,10,28)            109.7663         estimate D2E/DX2                !
 ! A49   A(9,10,29)            108.7824         estimate D2E/DX2                !
 ! A50   A(11,10,28)           109.5747         estimate D2E/DX2                !
 ! A51   A(11,10,29)           108.6693         estimate D2E/DX2                !
 ! A52   A(28,10,29)           105.6681         estimate D2E/DX2                !
 ! A53   A(10,11,30)           111.3528         estimate D2E/DX2                !
 ! A54   A(10,11,31)           111.6999         estimate D2E/DX2                !
 ! A55   A(10,11,32)           110.8759         estimate D2E/DX2                !
 ! A56   A(30,11,31)           107.8784         estimate D2E/DX2                !
 ! A57   A(30,11,32)           107.5503         estimate D2E/DX2                !
 ! A58   A(31,11,32)           107.2832         estimate D2E/DX2                !
 ! D1    D(13,1,2,3)          -179.9773         estimate D2E/DX2                !
 ! D2    D(13,1,2,12)           -0.0655         estimate D2E/DX2                !
 ! D3    D(1,2,3,4)           -179.7927         estimate D2E/DX2                !
 ! D4    D(1,2,3,14)            58.1078         estimate D2E/DX2                !
 ! D5    D(1,2,3,15)           -56.5698         estimate D2E/DX2                !
 ! D6    D(12,2,3,4)             0.2976         estimate D2E/DX2                !
 ! D7    D(12,2,3,14)         -121.8019         estimate D2E/DX2                !
 ! D8    D(12,2,3,15)          123.5205         estimate D2E/DX2                !
 ! D9    D(2,3,4,5)            178.0221         estimate D2E/DX2                !
 ! D10   D(2,3,4,16)           -61.2385         estimate D2E/DX2                !
 ! D11   D(2,3,4,17)            53.7241         estimate D2E/DX2                !
 ! D12   D(14,3,4,5)           -61.2941         estimate D2E/DX2                !
 ! D13   D(14,3,4,16)           59.4453         estimate D2E/DX2                !
 ! D14   D(14,3,4,17)          174.4079         estimate D2E/DX2                !
 ! D15   D(15,3,4,5)            56.9902         estimate D2E/DX2                !
 ! D16   D(15,3,4,16)          177.7296         estimate D2E/DX2                !
 ! D17   D(15,3,4,17)          -67.3078         estimate D2E/DX2                !
 ! D18   D(3,4,5,6)            -94.6778         estimate D2E/DX2                !
 ! D19   D(3,4,5,18)            30.9686         estimate D2E/DX2                !
 ! D20   D(3,4,5,19)           145.1307         estimate D2E/DX2                !
 ! D21   D(16,4,5,6)           144.6051         estimate D2E/DX2                !
 ! D22   D(16,4,5,18)          -89.7485         estimate D2E/DX2                !
 ! D23   D(16,4,5,19)           24.4136         estimate D2E/DX2                !
 ! D24   D(17,4,5,6)            30.1436         estimate D2E/DX2                !
 ! D25   D(17,4,5,18)          155.79           estimate D2E/DX2                !
 ! D26   D(17,4,5,19)          -90.0479         estimate D2E/DX2                !
 ! D27   D(4,5,6,7)             62.6844         estimate D2E/DX2                !
 ! D28   D(4,5,6,20)          -175.0567         estimate D2E/DX2                !
 ! D29   D(4,5,6,21)           -60.8059         estimate D2E/DX2                !
 ! D30   D(18,5,6,7)           -63.1548         estimate D2E/DX2                !
 ! D31   D(18,5,6,20)           59.1042         estimate D2E/DX2                !
 ! D32   D(18,5,6,21)          173.355          estimate D2E/DX2                !
 ! D33   D(19,5,6,7)          -176.6962         estimate D2E/DX2                !
 ! D34   D(19,5,6,20)          -54.4372         estimate D2E/DX2                !
 ! D35   D(19,5,6,21)           59.8136         estimate D2E/DX2                !
 ! D36   D(5,6,7,8)            175.7052         estimate D2E/DX2                !
 ! D37   D(5,6,7,22)           -63.8803         estimate D2E/DX2                !
 ! D38   D(5,6,7,23)            51.9898         estimate D2E/DX2                !
 ! D39   D(20,6,7,8)            54.3542         estimate D2E/DX2                !
 ! D40   D(20,6,7,22)          174.7687         estimate D2E/DX2                !
 ! D41   D(20,6,7,23)          -69.3612         estimate D2E/DX2                !
 ! D42   D(21,6,7,8)           -60.7612         estimate D2E/DX2                !
 ! D43   D(21,6,7,22)           59.6533         estimate D2E/DX2                !
 ! D44   D(21,6,7,23)          175.5235         estimate D2E/DX2                !
 ! D45   D(6,7,8,9)            -68.1156         estimate D2E/DX2                !
 ! D46   D(6,7,8,24)           170.4018         estimate D2E/DX2                !
 ! D47   D(6,7,8,25)            55.6868         estimate D2E/DX2                !
 ! D48   D(22,7,8,9)           170.8632         estimate D2E/DX2                !
 ! D49   D(22,7,8,24)           49.3805         estimate D2E/DX2                !
 ! D50   D(22,7,8,25)          -65.3345         estimate D2E/DX2                !
 ! D51   D(23,7,8,9)            55.7893         estimate D2E/DX2                !
 ! D52   D(23,7,8,24)          -65.6933         estimate D2E/DX2                !
 ! D53   D(23,7,8,25)          179.5917         estimate D2E/DX2                !
 ! D54   D(7,8,9,10)          -172.4986         estimate D2E/DX2                !
 ! D55   D(7,8,9,26)           -51.1352         estimate D2E/DX2                !
 ! D56   D(7,8,9,27)            64.5306         estimate D2E/DX2                !
 ! D57   D(24,8,9,10)          -51.2497         estimate D2E/DX2                !
 ! D58   D(24,8,9,26)           70.1137         estimate D2E/DX2                !
 ! D59   D(24,8,9,27)         -174.2205         estimate D2E/DX2                !
 ! D60   D(25,8,9,10)           64.1482         estimate D2E/DX2                !
 ! D61   D(25,8,9,26)         -174.4884         estimate D2E/DX2                !
 ! D62   D(25,8,9,27)          -58.8226         estimate D2E/DX2                !
 ! D63   D(8,9,10,11)          -65.646          estimate D2E/DX2                !
 ! D64   D(8,9,10,28)           57.7252         estimate D2E/DX2                !
 ! D65   D(8,9,10,29)          172.8965         estimate D2E/DX2                !
 ! D66   D(26,9,10,11)         172.7234         estimate D2E/DX2                !
 ! D67   D(26,9,10,28)         -63.9054         estimate D2E/DX2                !
 ! D68   D(26,9,10,29)          51.2659         estimate D2E/DX2                !
 ! D69   D(27,9,10,11)          57.9508         estimate D2E/DX2                !
 ! D70   D(27,9,10,28)        -178.6779         estimate D2E/DX2                !
 ! D71   D(27,9,10,29)         -63.5067         estimate D2E/DX2                !
 ! D72   D(9,10,11,30)         -56.5582         estimate D2E/DX2                !
 ! D73   D(9,10,11,31)          64.1283         estimate D2E/DX2                !
 ! D74   D(9,10,11,32)        -176.2685         estimate D2E/DX2                !
 ! D75   D(28,10,11,30)        179.9667         estimate D2E/DX2                !
 ! D76   D(28,10,11,31)        -59.3467         estimate D2E/DX2                !
 ! D77   D(28,10,11,32)         60.2565         estimate D2E/DX2                !
 ! D78   D(29,10,11,30)         64.9618         estimate D2E/DX2                !
 ! D79   D(29,10,11,31)       -174.3516         estimate D2E/DX2                !
 ! D80   D(29,10,11,32)        -54.7485         estimate D2E/DX2                !
 --------------------------------------------------------------------------------
 Trust Radius=3.00D-01 FncErr=1.00D-07 GrdErr=1.00D-06 EigMax=2.50D+02 EigMin=1.00D-04
 Number of steps in this run=    179 maximum allowed number of steps=    192.
 GradGradGradGradGradGradGradGradGradGradGradGradGradGradGradGradGradGrad

                          Input orientation:                          
 ---------------------------------------------------------------------
 Center     Atomic      Atomic             Coordinates (Angstroms)
 Number     Number       Type             X           Y           Z
 ---------------------------------------------------------------------
      1          8           0        6.440800   -0.444100    0.091400
      2          6           0        5.100500   -0.300000    0.158200
      3          6           0        4.372700   -1.587000   -0.225400
      4          6           0        2.827200   -1.484500   -0.173300
      5          6           0        2.101400   -2.776600   -0.609500
      6          6           0        1.674100   -2.831800   -2.092100
      7          6           0        2.832900   -2.785000   -3.108000
      8          6           0        2.393700   -2.946100   -4.577100
      9          6           0        1.853500   -4.348300   -4.927800
     10          6           0        1.588100   -4.560000   -6.430800
     11          6           0        0.460500   -3.682300   -6.997100
     12          8           0        4.555900    0.743800    0.490000
     13          1           0        6.781300    0.413100    0.349700
     14          1           0        4.715400   -2.367900    0.452800
     15          1           0        4.711400   -1.857900   -1.222900
     16          1           0        2.531400   -1.251400    0.852400
     17          1           0        2.474200   -0.641400   -0.772200
     18          1           0        2.702300   -3.653200   -0.360700
     19          1           0        1.196800   -2.877200   -0.006900
     20          1           0        1.101700   -3.748200   -2.238200
     21          1           0        0.978900   -2.016300   -2.299600
     22          1           0        3.341900   -1.825000   -3.017000
     23          1           0        3.575000   -3.546500   -2.862000
     24          1           0        3.250000   -2.728800   -5.217900
     25          1           0        1.647000   -2.187000   -4.814400
     26          1           0        2.571700   -5.099100   -4.593900
     27          1           0        0.936000   -4.547800   -4.373000
     28          1           0        2.505600   -4.386100   -6.995700
     29          1           0        1.332900   -5.607800   -6.598400
     30          1           0       -0.472300   -3.834000   -6.452700
     31          1           0        0.709900   -2.622300   -6.944900
     32          1           0        0.272200   -3.919600   -8.044600
 ---------------------------------------------------------------------
                    Distance matrix (angstroms):
                    1          2          3          4          5
     1  O    0.000000
     2  C    1.349678   0.000000
     3  C    2.384034   1.527485   0.000000
     4  C    3.769695   2.584729   1.549771   0.000000
     5  C    4.976164   3.964532   2.592583   1.544855   0.000000
     6  C    5.761095   4.818099   3.509493   2.612786   1.543935
     7  C    5.360309   4.688848   3.480743   3.209953   2.603395
     8  C    6.665877   6.062316   4.969999   4.660220   3.981962
     9  C    7.840821   7.266302   6.006972   5.635132   4.602109
    10  C    9.111993   8.596480   7.422918   7.081693   6.109953
    11  C    9.823276   9.174305   8.096389   7.549559   6.656897
    12  O    2.263368   1.223192   2.444992   2.897187   4.430202
    13  H    0.957837   1.835830   3.183158   4.416936   5.744190
    14  H    2.609334   2.123982   1.089589   2.176625   2.851055
    15  H    2.591725   2.117992   1.087709   2.188903   2.834143
    16  H    4.063774   2.826190   2.159784   1.092654   2.155989
    17  H    4.064314   2.807071   2.190309   1.092752   2.173598
    18  H    4.947636   4.155066   2.660399   2.180362   1.091517
    19  H    5.781797   4.680608   3.434923   2.150699   1.091581
    20  H    6.697022   5.798553   4.406993   3.516461   2.143845
    21  H    6.166121   5.096475   4.000560   2.867085   2.166680
    22  H    4.601328   3.937029   2.985335   2.909895   2.870616
    23  H    5.153665   4.689192   3.380477   3.469893   2.799643
    24  H    6.602252   6.182707   5.243016   5.212968   4.749623
    25  H    7.077082   6.341465   5.371067   4.840061   4.270280
    26  H    7.654476   7.211702   5.887465   5.715970   4.635799
    27  H    8.189874   7.477877   6.146530   5.531539   4.319634
    28  H    9.013997   8.637593   7.560290   7.420772   6.598289
    29  H    9.874607   9.381855   8.125414   7.779232   6.668824
    30  H   10.104831   9.340731   8.203798   7.472464   6.471863
    31  H    9.332593   8.667438   7.722670   7.185549   6.488249
    32  H   10.785417  10.183315   9.132087   8.626419   7.741649
                    6          7          8          9         10
     6  C    0.000000
     7  C    1.541772   0.000000
     8  C    2.589617   1.541786   0.000000
     9  C    3.220738   2.591294   1.543040   0.000000
    10  C    4.671016   3.967512   2.586478   1.540864   0.000000
    11  C    5.123983   4.643116   3.183654   2.581861   1.537054
    12  O    5.268484   5.326046   6.630684   7.911069   9.210625
    13  H    6.524972   6.146006   7.403284   8.649055   9.883129
    14  H    3.992646   4.049330   5.569964   6.408066   7.872055
    15  H    3.305931   2.818134   4.219783   5.300563   6.646696
    16  H    3.450030   4.257652   5.689503   6.592500   8.054915
    17  H    2.679580   3.190556   4.449201   5.603159   6.939766
    18  H    2.174773   2.884178   4.286403   4.697023   6.237775
    19  H    2.139611   3.507441   4.724833   5.177900   6.652174
    20  H    1.090310   2.163645   2.789817   2.856444   4.298081
    21  H    1.091513   2.163730   2.837815   3.620854   4.889616
    22  H    2.156535   1.090395   2.142396   3.497647   4.712756
    23  H    2.171857   1.091380   2.167376   2.806060   4.208478
    24  H    3.502099   2.151467   1.091372   2.158043   2.754330
    25  H    2.797752   2.162351   1.090919   2.174102   2.871819
    26  H    3.493614   2.762460   2.160411   1.091330   2.152278
    27  H    2.948212   2.881999   2.175314   1.090601   2.158686
    28  H    5.210809   4.217210   2.817046   2.168611   1.091403
    29  H    5.303709   4.732979   3.506508   2.155984   1.091376
    30  H    4.962486   4.817859   3.538389   2.828280   2.184675
    31  H    4.952094   4.388098   2.923441   2.890604   2.188656
    32  H    6.211352   5.675784   4.179955   3.521184   2.178544
                   11         12         13         14         15
    11  C    0.000000
    12  O    9.613497   0.000000
    13  H   10.521420   2.254208   0.000000
    14  H    8.679449   3.116007   3.465910   0.000000
    15  H    7.398647   3.118822   3.451811   1.751595   0.000000
    16  H    8.474229   2.865442   4.591832   2.485178   3.070360
    17  H    7.214668   2.800965   4.574029   3.082921   2.586130
    18  H    7.004878   4.846971   5.803250   2.523163   2.828953
    19  H    7.074830   4.964081   6.491524   3.584865   3.856169
    20  H    4.802355   6.289089   7.501433   4.712275   4.199286
    21  H    5.011068   5.309892   6.825586   4.654112   3.887921
    22  H    5.252925   4.513489   5.307846   3.771042   2.257301
    23  H    5.178572   5.532155   6.022774   3.698312   2.613317
    24  H    3.443258   6.807676   7.303409   5.868090   4.342140
    25  H    2.899635   6.722198   7.732366   6.098459   4.732624
    26  H    3.498551   7.995159   8.517292   6.125690   5.142697
    27  H    2.803764   8.046954   9.004552   6.505703   5.604671
    28  H    2.162815   9.303511   9.760575   8.027235   6.677018
    29  H    2.151184  10.048680  10.687020   8.465086   7.373738
    30  H    1.090642   9.718031  10.813196   8.760571   7.624075
    31  H    1.090195   9.022199   9.964273   8.416336   7.024072
    32  H    1.090424  10.627172  11.471920   9.713681   8.395993
                   16         17         18         19         20
    16  H    0.000000
    17  H    1.736288   0.000000
    18  H    2.696194   3.048328   0.000000
    19  H    2.272175   2.686305   1.730283   0.000000
    20  H    4.222542   3.699340   2.468998   2.397162   0.000000
    21  H    3.595891   2.541500   3.067390   2.458679   1.737333
    22  H    3.994770   2.681966   3.287451   3.843082   3.053477
    23  H    4.489249   3.744146   2.651319   3.775632   2.558715
    24  H    6.288691   4.972258   4.974624   5.602872   3.812215
    25  H    5.811208   4.405964   4.806126   4.877613   3.061291
    26  H    6.668478   5.872477   4.475228   5.278992   3.087904
    27  H    6.380937   5.530984   4.474224   4.682067   2.285648
    28  H    8.451017   7.263313   6.678253   7.268636   5.001166
    29  H    8.713727   7.740304   6.678669   7.136005   4.745831
    30  H    8.310025   7.151408   6.871917   6.726790   4.499650
    31  H    8.123738   6.718552   6.955868   6.959733   4.855325
    32  H    9.559283   8.275458   8.063416   8.157580   5.867856
                   21         22         23         24         25
    21  H    0.000000
    22  H    2.476899   0.000000
    23  H    3.065541   1.744111   0.000000
    24  H    3.765903   2.381021   2.514860   0.000000
    25  H    2.607626   2.496873   3.062236   1.739531   0.000000
    26  H    4.159865   3.714775   2.533112   2.543185   3.063334
    27  H    3.272510   3.878238   3.201569   3.062224   2.504742
    28  H    5.477237   4.805069   4.351554   2.541918   3.214235
    29  H    5.612831   5.583196   4.820441   3.724204   3.870812
    30  H    4.760069   5.512553   5.418157   4.074520   3.144530
    31  H    4.692378   4.794946   5.072772   3.073431   2.367841
    32  H    6.093193   6.251973   6.156869   4.274989   3.914865
                   26         27         28         29         30
    26  H    0.000000
    27  H    1.740185   0.000000
    28  H    2.506268   3.060775   0.000000
    29  H    2.410689   2.496705   1.739432   0.000000
    30  H    3.784383   2.611125   3.076939   2.535023   0.000000
    31  H    3.889478   3.220767   2.517560   3.069430   1.762973
    32  H    4.311177   3.783637   2.511153   2.463047   1.759475
                   31         32
    31  H    0.000000
    32  H    1.756106   0.000000
 Stoichiometry    C10H20O2
 Framework group  C1[X(C10H20O2)]
 Deg. of freedom    90
 Full point group                 C1      NOp   1
 Largest Abelian subgroup         C1      NOp   1
 Largest concise Abelian subgroup C1      NOp   1
                         Standard orientation:                         
 ---------------------------------------------------------------------
 Center     Atomic      Atomic             Coordinates (Angstroms)
 Number     Number       Type             X           Y           Z
 ---------------------------------------------------------------------
      1          8           0       -4.336255   -1.629533   -0.582341
      2          6           0       -3.850189   -0.604679    0.149127
      3          6           0       -2.656552    0.061541   -0.532483
      4          6           0       -2.048564    1.245258    0.261844
      5          6           0       -0.812724    1.880229   -0.413501
      6          6           0        0.554771    1.345477    0.063714
      7          6           0        0.802770   -0.151227   -0.210938
      8          6           0        2.211949   -0.641182    0.177990
      9          6           0        3.346762   -0.068570   -0.696816
     10          6           0        4.726620   -0.697963   -0.424565
     11          6           0        5.284457   -0.401461    0.976662
     12          8           0       -4.324896   -0.266453    1.224513
     13          1           0       -5.068698   -1.961494   -0.061975
     14          1           0       -2.991746    0.404931   -1.510712
     15          1           0       -1.914228   -0.715030   -0.702794
     16          1           0       -2.815329    2.015631    0.373600
     17          1           0       -1.797827    0.940260    1.280772
     18          1           0       -0.888068    1.798043   -1.499308
     19          1           0       -0.830107    2.952941   -0.212167
     20          1           0        1.330362    1.936222   -0.424401
     21          1           0        0.667392    1.540041    1.131825
     22          1           0        0.079148   -0.737528    0.356145
     23          1           0        0.615324   -0.373006   -1.262978
     24          1           0        2.229076   -1.730148    0.107602
     25          1           0        2.395765   -0.410126    1.228194
     26          1           0        3.097057   -0.223006   -1.747910
     27          1           0        3.416017    1.011673   -0.563817
     28          1           0        4.676527   -1.777463   -0.577303
     29          1           0        5.434616   -0.327637   -1.168005
     30          1           0        5.347521    0.671800    1.160059
     31          1           0        4.663281   -0.838693    1.758643
     32          1           0        6.287317   -0.814054    1.090955
 ---------------------------------------------------------------------
 Rotational constants (GHZ):           1.9423602           0.2486219           0.2366510
 Standard basis: 6-31G(d,p) (6D, 7F)
 There are   280 symmetry adapted cartesian basis functions of A   symmetry.
 There are   280 symmetry adapted basis functions of A   symmetry.
   280 basis functions,   476 primitive gaussians,   280 cartesian basis functions
    48 alpha electrons       48 beta electrons
       nuclear repulsion energy       697.3422998212 Hartrees.
 NAtoms=   32 NActive=   32 NUniq=   32 SFac= 1.00D+00 NAtFMM=   60 NAOKFM=F Big=F
 Integral buffers will be    131072 words long.
 Raffenetti 2 integral format.
 Two-electron integral symmetry is turned on.
 Nuclear repulsion after empirical dispersion term =      697.2948751876 Hartrees.
 One-electron integrals computed using PRISM.
 NBasis=   280 RedAO= T EigKep=  3.12D-03  NBF=   280
 NBsUse=   280 1.00D-06 EigRej= -1.00D+00 NBFU=   280
 ExpMin= 1.61D-01 ExpMax= 5.48D+03 ExpMxC= 8.25D+02 IAcc=3 IRadAn=         5 AccDes= 0.00D+00
 Harris functional with IExCor=  402 and IRadAn=       5 diagonalized for initial guess.
 HarFok:  IExCor=  402 AccDes= 0.00D+00 IRadAn=         5 IDoV= 1 UseB2=F ITyADJ=14
 ICtDFT=  3500011 ScaDFX=  1.000000  1.000000  1.000000  1.000000
 FoFCou: FMM=F IPFlag=           0 FMFlag=      100000 FMFlg1=           0
         NFxFlg=           0 DoJE=T BraDBF=F KetDBF=T FulRan=T
         wScrn=  0.000000 ICntrl=       500 IOpCl=  0 I1Cent=   200000004 NGrid=           0
         NMat0=    1 NMatS0=      1 NMatT0=    0 NMatD0=    1 NMtDS0=    0 NMtDT0=    0
 Petite list used in FoFCou.
 Requested convergence on RMS density matrix=1.00D-08 within 128 cycles.
 Requested convergence on MAX density matrix=1.00D-06.
 Requested convergence on             energy=1.00D-06.
 No special actions if energy rises.
 Integral accuracy reduced to 1.0D-05 until final iterations.
 Initial convergence to 1.0D-05 achieved.  Increase integral accuracy.
 SCF Done:  E(RB3LYP) =  -543.662152540     A.U. after   13 cycles
            NFock= 13  Conv=0.70D-08     -V/T= 2.0096

 **********************************************************************

            Population analysis using the SCF Density.

 **********************************************************************

 Orbital symmetries:
       Occupied  (A) (A) (A) (A) (A) (A) (A) (A) (A) (A) (A) (A)
                 (A) (A) (A) (A) (A) (A) (A) (A) (A) (A) (A) (A)
                 (A) (A) (A) (A) (A) (A) (A) (A) (A) (A) (A) (A)
                 (A) (A) (A) (A) (A) (A) (A) (A) (A) (A) (A) (A)
       Virtual   (A) (A) (A) (A) (A) (A) (A) (A) (A) (A) (A) (A)
                 (A) (A) (A) (A) (A) (A) (A) (A) (A) (A) (A) (A)
                 (A) (A) (A) (A) (A) (A) (A) (A) (A) (A) (A) (A)
                 (A) (A) (A) (A) (A) (A) (A) (A) (A) (A) (A) (A)
                 (A) (A) (A) (A) (A) (A) (A) (A) (A) (A) (A) (A)
                 (A) (A) (A) (A) (A) (A) (A) (A) (A) (A) (A) (A)
                 (A) (A) (A) (A) (A) (A) (A) (A) (A) (A) (A) (A)
                 (A) (A) (A) (A) (A) (A) (A) (A) (A) (A) (A) (A)
                 (A) (A) (A) (A) (A) (A) (A) (A) (A) (A) (A) (A)
                 (A) (A) (A) (A) (A) (A) (A) (A) (A) (A) (A) (A)
                 (A) (A) (A) (A) (A) (A) (A) (A) (A) (A) (A) (A)
                 (A) (A) (A) (A) (A) (A) (A) (A) (A) (A) (A) (A)
                 (A) (A) (A) (A) (A) (A) (A) (A) (A) (A) (A) (A)
                 (A) (A) (A) (A) (A) (A) (A) (A) (A) (A) (A) (A)
                 (A) (A) (A) (A) (A) (A) (A) (A) (A) (A) (A) (A)
                 (A) (A) (A) (A) (A) (A) (A) (A) (A) (A) (A) (A)
                 (A) (A) (A) (A) (A) (A) (A) (A) (A) (A) (A) (A)
                 (A) (A) (A) (A) (A) (A) (A) (A) (A) (A) (A) (A)
                 (A) (A) (A) (A) (A) (A) (A) (A) (A) (A) (A) (A)
                 (A) (A) (A) (A)
 The electronic state is 1-A.
 Alpha  occ. eigenvalues --  -19.19758 -19.13702 -10.31998 -10.19903 -10.18338
 Alpha  occ. eigenvalues --  -10.18031 -10.17776 -10.17738 -10.17709 -10.17595
 Alpha  occ. eigenvalues --  -10.17497 -10.16960  -1.10694  -1.00984  -0.81179
 Alpha  occ. eigenvalues --   -0.79360  -0.76464  -0.73024  -0.68600  -0.65293
 Alpha  occ. eigenvalues --   -0.61328  -0.58643  -0.56878  -0.55680  -0.48710
 Alpha  occ. eigenvalues --   -0.48139  -0.47905  -0.46164  -0.45029  -0.44467
 Alpha  occ. eigenvalues --   -0.42732  -0.42097  -0.41159  -0.39650  -0.38815
 Alpha  occ. eigenvalues --   -0.37924  -0.37172  -0.36432  -0.34937  -0.34565
 Alpha  occ. eigenvalues --   -0.33083  -0.32763  -0.32419  -0.31659  -0.31424
 Alpha  occ. eigenvalues --   -0.30442  -0.30148  -0.27144
 Alpha virt. eigenvalues --    0.01148   0.08258   0.08714   0.09391   0.10801
 Alpha virt. eigenvalues --    0.11513   0.12551   0.13555   0.13946   0.14553
 Alpha virt. eigenvalues --    0.15941   0.16246   0.17030   0.17394   0.18226
 Alpha virt. eigenvalues --    0.18618   0.18958   0.20080   0.20589   0.20657
 Alpha virt. eigenvalues --    0.21839   0.23536   0.23774   0.25214   0.25723
 Alpha virt. eigenvalues --    0.26111   0.26834   0.27177   0.28653   0.30332
 Alpha virt. eigenvalues --    0.31712   0.36637   0.49040   0.50448   0.50849
 Alpha virt. eigenvalues --    0.52330   0.53078   0.53730   0.53885   0.54846
 Alpha virt. eigenvalues --    0.55706   0.56614   0.58027   0.60631   0.62103
 Alpha virt. eigenvalues --    0.64007   0.64917   0.65520   0.67011   0.67415
 Alpha virt. eigenvalues --    0.68768   0.69536   0.70350   0.70861   0.73511
 Alpha virt. eigenvalues --    0.75478   0.76221   0.79538   0.80238   0.82586
 Alpha virt. eigenvalues --    0.84023   0.84071   0.85490   0.86606   0.86890
 Alpha virt. eigenvalues --    0.87264   0.87776   0.88385   0.88915   0.89813
 Alpha virt. eigenvalues --    0.90912   0.91427   0.92964   0.93243   0.93975
 Alpha virt. eigenvalues --    0.94063   0.94970   0.95062   0.95448   0.96061
 Alpha virt. eigenvalues --    0.98040   0.99496   1.00099   1.01700   1.04143
 Alpha virt. eigenvalues --    1.05688   1.08328   1.10211   1.12709   1.14512
 Alpha virt. eigenvalues --    1.19198   1.27588   1.28753   1.30589   1.34365
 Alpha virt. eigenvalues --    1.37505   1.38507   1.39272   1.45930   1.49787
 Alpha virt. eigenvalues --    1.51577   1.54505   1.55927   1.56626   1.57275
 Alpha virt. eigenvalues --    1.60015   1.61335   1.62789   1.64672   1.66925
 Alpha virt. eigenvalues --    1.67283   1.70346   1.70520   1.73000   1.73516
 Alpha virt. eigenvalues --    1.76610   1.78119   1.80900   1.82074   1.84701
 Alpha virt. eigenvalues --    1.85371   1.86216   1.87003   1.87485   1.88202
 Alpha virt. eigenvalues --    1.89075   1.89534   1.92376   1.93634   1.94541
 Alpha virt. eigenvalues --    1.97701   2.01241   2.03158   2.05534   2.05945
 Alpha virt. eigenvalues --    2.08969   2.11258   2.11690   2.12918   2.13710
 Alpha virt. eigenvalues --    2.14676   2.16423   2.17423   2.18590   2.20310
 Alpha virt. eigenvalues --    2.23387   2.23897   2.24854   2.26528   2.26879
 Alpha virt. eigenvalues --    2.28189   2.28892   2.28914   2.31246   2.32293
 Alpha virt. eigenvalues --    2.34545   2.34690   2.35527   2.38281   2.38970
 Alpha virt. eigenvalues --    2.42415   2.46986   2.48246   2.48841   2.51711
 Alpha virt. eigenvalues --    2.52743   2.54406   2.55467   2.56163   2.58898
 Alpha virt. eigenvalues --    2.59971   2.62101   2.64537   2.64809   2.67613
 Alpha virt. eigenvalues --    2.68643   2.70993   2.71883   2.72807   2.74154
 Alpha virt. eigenvalues --    2.74553   2.77196   2.78668   2.82944   2.83670
 Alpha virt. eigenvalues --    2.83806   2.84410   2.85580   2.87512   2.88877
 Alpha virt. eigenvalues --    2.90032   2.90795   2.91700   2.92071   2.92919
 Alpha virt. eigenvalues --    2.93112   2.94320   2.97977   3.01832   3.16974
 Alpha virt. eigenvalues --    3.20220   3.24431   3.27886   3.29642   3.32527
 Alpha virt. eigenvalues --    3.33091   3.34684   3.35900   3.37775   3.40015
 Alpha virt. eigenvalues --    3.41885   3.42705   3.46128   3.47363   3.49926
 Alpha virt. eigenvalues --    3.52728   3.54946   3.57251   3.59446   3.60822
 Alpha virt. eigenvalues --    3.94010   4.13913   4.23338   4.26644   4.34777
 Alpha virt. eigenvalues --    4.44407   4.49649   4.57269   4.62045   4.68871
 Alpha virt. eigenvalues --    4.71734   4.76008
          Condensed to atoms (all electrons):
               1          2          3          4          5          6
     1  O    8.116183   0.257837  -0.095688   0.002623  -0.000026  -0.000000
     2  C    0.257837   4.387796   0.314698  -0.030728   0.004089  -0.000088
     3  C   -0.095688   0.314698   5.149535   0.350246  -0.031359  -0.001290
     4  C    0.002623  -0.030728   0.350246   4.907846   0.342983  -0.036768
     5  C   -0.000026   0.004089  -0.031359   0.342983   4.948104   0.373237
     6  C   -0.000000  -0.000088  -0.001290  -0.036768   0.373237   4.891148
     7  C   -0.000000  -0.000030  -0.001480  -0.002852  -0.041209   0.381347
     8  C   -0.000000  -0.000000   0.000089  -0.000049   0.003833  -0.037017
     9  C    0.000000   0.000000  -0.000002   0.000002   0.000103  -0.005298
    10  C   -0.000000  -0.000000   0.000000   0.000000  -0.000001   0.000191
    11  C    0.000000  -0.000000  -0.000000   0.000000   0.000000  -0.000020
    12  O   -0.080232   0.571892  -0.088298   0.005755   0.000406  -0.000005
    13  H    0.267424  -0.009313   0.011297  -0.000326   0.000002   0.000000
    14  H    0.002406  -0.024377   0.367291  -0.033666  -0.003617  -0.000060
    15  H    0.002790  -0.024449   0.366772  -0.037684  -0.001712   0.000128
    16  H    0.000043  -0.003443  -0.037650   0.385075  -0.033286   0.003817
    17  H    0.000082  -0.002061  -0.038742   0.390803  -0.042795  -0.007160
    18  H   -0.000002   0.000211  -0.008517  -0.042906   0.379701  -0.036411
    19  H    0.000000  -0.000142   0.003706  -0.033200   0.374516  -0.032811
    20  H   -0.000000   0.000003  -0.000102   0.004816  -0.033715   0.380772
    21  H   -0.000000   0.000007  -0.000069  -0.007228  -0.036983   0.382163
    22  H   -0.000009   0.000173  -0.003201   0.005002  -0.005211  -0.038155
    23  H   -0.000000   0.000025  -0.000148  -0.001371  -0.002980  -0.041687
    24  H   -0.000000  -0.000000   0.000005   0.000000  -0.000158   0.004506
    25  H    0.000000   0.000000  -0.000002  -0.000010   0.000067  -0.007352
    26  H    0.000000   0.000000  -0.000000   0.000000  -0.000027  -0.000702
    27  H   -0.000000   0.000000   0.000000  -0.000001  -0.000121   0.001455
    28  H    0.000000  -0.000000   0.000000  -0.000000   0.000000   0.000001
    29  H   -0.000000   0.000000  -0.000000   0.000000  -0.000000   0.000001
    30  H    0.000000  -0.000000  -0.000000  -0.000000   0.000000  -0.000001
    31  H   -0.000000  -0.000000  -0.000000   0.000000  -0.000000   0.000004
    32  H   -0.000000   0.000000   0.000000  -0.000000   0.000000   0.000000
               7          8          9         10         11         12
     1  O   -0.000000  -0.000000   0.000000  -0.000000   0.000000  -0.080232
     2  C   -0.000030  -0.000000   0.000000  -0.000000  -0.000000   0.571892
     3  C   -0.001480   0.000089  -0.000002   0.000000  -0.000000  -0.088298
     4  C   -0.002852  -0.000049   0.000002   0.000000   0.000000   0.005755
     5  C   -0.041209   0.003833   0.000103  -0.000001   0.000000   0.000406
     6  C    0.381347  -0.037017  -0.005298   0.000191  -0.000020  -0.000005
     7  C    4.911903   0.367686  -0.037466   0.003597   0.000150   0.000001
     8  C    0.367686   4.907552   0.382781  -0.039516  -0.004615   0.000000
     9  C   -0.037466   0.382781   4.894954   0.377820  -0.046187  -0.000000
    10  C    0.003597  -0.039516   0.377820   4.872845   0.376172   0.000000
    11  C    0.000150  -0.004615  -0.046187   0.376172   4.914675   0.000000
    12  O    0.000001   0.000000  -0.000000   0.000000   0.000000   8.041298
    13  H   -0.000000  -0.000000   0.000000   0.000000  -0.000000   0.011541
    14  H    0.000044  -0.000003   0.000000  -0.000000   0.000000   0.001124
    15  H    0.002100  -0.000059   0.000003  -0.000000   0.000000   0.001231
    16  H    0.000055   0.000001   0.000000  -0.000000   0.000000   0.003008
    17  H   -0.000742  -0.000079   0.000000  -0.000000  -0.000000   0.003498
    18  H   -0.006830   0.000031  -0.000016  -0.000000  -0.000000  -0.000001
    19  H    0.004888  -0.000144  -0.000002  -0.000000  -0.000000  -0.000000
    20  H   -0.042156  -0.005399   0.002674  -0.000145   0.000009   0.000000
    21  H   -0.040420  -0.003341  -0.000542  -0.000017  -0.000002  -0.000000
    22  H    0.376846  -0.031945   0.004561  -0.000153   0.000004  -0.000004
    23  H    0.381843  -0.038812  -0.007647   0.000024   0.000003   0.000000
    24  H   -0.032721   0.377731  -0.042635  -0.004070  -0.000828   0.000000
    25  H   -0.036639   0.381514  -0.038938  -0.003846   0.002647  -0.000000
    26  H   -0.004394  -0.041897   0.378928  -0.033543   0.005099  -0.000000
    27  H   -0.003350  -0.039919   0.382202  -0.037468  -0.007081  -0.000000
    28  H    0.000020  -0.007577  -0.038300   0.384927  -0.039982  -0.000000
    29  H   -0.000146   0.004651  -0.032618   0.381071  -0.039588  -0.000000
    30  H   -0.000022  -0.000737  -0.004579  -0.035877   0.386971  -0.000000
    31  H   -0.000088   0.002801  -0.004957  -0.035035   0.388726   0.000000
    32  H   -0.000001   0.000114   0.004383  -0.028199   0.381113   0.000000
              13         14         15         16         17         18
     1  O    0.267424   0.002406   0.002790   0.000043   0.000082  -0.000002
     2  C   -0.009313  -0.024377  -0.024449  -0.003443  -0.002061   0.000211
     3  C    0.011297   0.367291   0.366772  -0.037650  -0.038742  -0.008517
     4  C   -0.000326  -0.033666  -0.037684   0.385075   0.390803  -0.042906
     5  C    0.000002  -0.003617  -0.001712  -0.033286  -0.042795   0.379701
     6  C    0.000000  -0.000060   0.000128   0.003817  -0.007160  -0.036411
     7  C   -0.000000   0.000044   0.002100   0.000055  -0.000742  -0.006830
     8  C   -0.000000  -0.000003  -0.000059   0.000001  -0.000079   0.000031
     9  C    0.000000   0.000000   0.000003   0.000000   0.000000  -0.000016
    10  C    0.000000  -0.000000  -0.000000  -0.000000  -0.000000  -0.000000
    11  C   -0.000000   0.000000   0.000000   0.000000  -0.000000  -0.000000
    12  O    0.011541   0.001124   0.001231   0.003008   0.003498  -0.000001
    13  H    0.401831  -0.000368  -0.000367  -0.000004  -0.000006   0.000000
    14  H   -0.000368   0.581883  -0.028300  -0.005285   0.004950   0.004272
    15  H   -0.000367  -0.028300   0.575752   0.005311  -0.003884   0.000649
    16  H   -0.000004  -0.005285   0.005311   0.617736  -0.034803   0.001420
    17  H   -0.000006   0.004950  -0.003884  -0.034803   0.606297   0.005224
    18  H    0.000000   0.004272   0.000649   0.001420   0.005224   0.646473
    19  H   -0.000000   0.000131  -0.000046  -0.009693   0.001356  -0.038844
    20  H    0.000000   0.000011  -0.000043  -0.000205   0.000182  -0.004221
    21  H    0.000000   0.000007   0.000101   0.000094   0.004703   0.005941
    22  H    0.000001   0.000071   0.002626  -0.000070   0.001345  -0.000291
    23  H    0.000000   0.000059   0.001869  -0.000013   0.000169   0.004993
    24  H   -0.000000   0.000000  -0.000013  -0.000000   0.000002   0.000001
    25  H    0.000000   0.000000   0.000006  -0.000000   0.000002   0.000008
    26  H    0.000000  -0.000000  -0.000001  -0.000000  -0.000000   0.000000
    27  H    0.000000  -0.000000  -0.000000  -0.000000   0.000000   0.000011
    28  H   -0.000000  -0.000000  -0.000000   0.000000   0.000000   0.000000
    29  H    0.000000   0.000000   0.000000   0.000000   0.000000  -0.000000
    30  H   -0.000000  -0.000000  -0.000000   0.000000   0.000000   0.000000
    31  H    0.000000   0.000000   0.000000   0.000000   0.000000  -0.000000
    32  H    0.000000  -0.000000  -0.000000  -0.000000  -0.000000   0.000000
              19         20         21         22         23         24
     1  O    0.000000  -0.000000  -0.000000  -0.000009  -0.000000  -0.000000
     2  C   -0.000142   0.000003   0.000007   0.000173   0.000025  -0.000000
     3  C    0.003706  -0.000102  -0.000069  -0.003201  -0.000148   0.000005
     4  C   -0.033200   0.004816  -0.007228   0.005002  -0.001371   0.000000
     5  C    0.374516  -0.033715  -0.036983  -0.005211  -0.002980  -0.000158
     6  C   -0.032811   0.380772   0.382163  -0.038155  -0.041687   0.004506
     7  C    0.004888  -0.042156  -0.040420   0.376846   0.381843  -0.032721
     8  C   -0.000144  -0.005399  -0.003341  -0.031945  -0.038812   0.377731
     9  C   -0.000002   0.002674  -0.000542   0.004561  -0.007647  -0.042635
    10  C   -0.000000  -0.000145  -0.000017  -0.000153   0.000024  -0.004070
    11  C   -0.000000   0.000009  -0.000002   0.000004   0.000003  -0.000828
    12  O   -0.000000   0.000000  -0.000000  -0.000004   0.000000   0.000000
    13  H   -0.000000   0.000000   0.000000   0.000001   0.000000  -0.000000
    14  H    0.000131   0.000011   0.000007   0.000071   0.000059   0.000000
    15  H   -0.000046  -0.000043   0.000101   0.002626   0.001869  -0.000013
    16  H   -0.009693  -0.000205   0.000094  -0.000070  -0.000013  -0.000000
    17  H    0.001356   0.000182   0.004703   0.001345   0.000169   0.000002
    18  H   -0.038844  -0.004221   0.005941  -0.000291   0.004993   0.000001
    19  H    0.645545  -0.003818  -0.004336  -0.000041  -0.000004   0.000003
    20  H   -0.003818   0.644221  -0.040394   0.006312  -0.004802   0.000037
    21  H   -0.004336  -0.040394   0.643147  -0.007210   0.006252   0.000002
    22  H   -0.000041   0.006312  -0.007210   0.649929  -0.043936  -0.004737
    23  H   -0.000004  -0.004802   0.006252  -0.043936   0.649855  -0.002748
    24  H    0.000003   0.000037   0.000002  -0.004737  -0.002748   0.651610
    25  H    0.000001  -0.000181   0.005272  -0.003079   0.006025  -0.040825
    26  H    0.000000   0.000479   0.000064   0.000083   0.006084  -0.004790
    27  H    0.000008   0.002843   0.000302  -0.000061  -0.000177   0.006163
    28  H    0.000000  -0.000000   0.000001  -0.000009   0.000004   0.006032
    29  H    0.000000   0.000010  -0.000000   0.000003  -0.000009   0.000062
    30  H    0.000000  -0.000004   0.000004  -0.000000   0.000000   0.000095
    31  H    0.000000   0.000003  -0.000004   0.000007  -0.000001   0.000536
    32  H   -0.000000  -0.000000   0.000000  -0.000000   0.000000  -0.000031
              25         26         27         28         29         30
     1  O    0.000000   0.000000  -0.000000   0.000000  -0.000000   0.000000
     2  C    0.000000   0.000000   0.000000  -0.000000   0.000000  -0.000000
     3  C   -0.000002  -0.000000   0.000000   0.000000  -0.000000  -0.000000
     4  C   -0.000010   0.000000  -0.000001  -0.000000   0.000000  -0.000000
     5  C    0.000067  -0.000027  -0.000121   0.000000  -0.000000   0.000000
     6  C   -0.007352  -0.000702   0.001455   0.000001   0.000001  -0.000001
     7  C   -0.036639  -0.004394  -0.003350   0.000020  -0.000146  -0.000022
     8  C    0.381514  -0.041897  -0.039919  -0.007577   0.004651  -0.000737
     9  C   -0.038938   0.378928   0.382202  -0.038300  -0.032618  -0.004579
    10  C   -0.003846  -0.033543  -0.037468   0.384927   0.381071  -0.035877
    11  C    0.002647   0.005099  -0.007081  -0.039982  -0.039588   0.386971
    12  O   -0.000000  -0.000000  -0.000000  -0.000000  -0.000000  -0.000000
    13  H    0.000000   0.000000   0.000000  -0.000000   0.000000  -0.000000
    14  H    0.000000  -0.000000  -0.000000  -0.000000   0.000000  -0.000000
    15  H    0.000006  -0.000001  -0.000000  -0.000000   0.000000  -0.000000
    16  H   -0.000000  -0.000000  -0.000000   0.000000   0.000000   0.000000
    17  H    0.000002  -0.000000   0.000000   0.000000   0.000000   0.000000
    18  H    0.000008   0.000000   0.000011   0.000000  -0.000000   0.000000
    19  H    0.000001   0.000000   0.000008   0.000000   0.000000   0.000000
    20  H   -0.000181   0.000479   0.002843  -0.000000   0.000010  -0.000004
    21  H    0.005272   0.000064   0.000302   0.000001  -0.000000   0.000004
    22  H   -0.003079   0.000083  -0.000061  -0.000009   0.000003  -0.000000
    23  H    0.006025   0.006084  -0.000177   0.000004  -0.000009   0.000000
    24  H   -0.040825  -0.004790   0.006163   0.006032   0.000062   0.000095
    25  H    0.640143   0.006119  -0.006383  -0.000230  -0.000052   0.000389
    26  H    0.006119   0.651021  -0.040915  -0.003277  -0.004361   0.000033
    27  H   -0.006383  -0.040915   0.641928   0.006050  -0.003263   0.005451
    28  H   -0.000230  -0.003277   0.006050   0.642860  -0.040102   0.005532
    29  H   -0.000052  -0.004361  -0.003263  -0.040102   0.647331  -0.004461
    30  H    0.000389   0.000033   0.005451   0.005532  -0.004461   0.611899
    31  H    0.001555  -0.000021  -0.000153  -0.005198   0.005525  -0.033946
    32  H   -0.000103  -0.000185   0.000007  -0.002653  -0.004092  -0.032505
              31         32
     1  O   -0.000000  -0.000000
     2  C   -0.000000   0.000000
     3  C   -0.000000   0.000000
     4  C    0.000000  -0.000000
     5  C   -0.000000   0.000000
     6  C    0.000004   0.000000
     7  C   -0.000088  -0.000001
     8  C    0.002801   0.000114
     9  C   -0.004957   0.004383
    10  C   -0.035035  -0.028199
    11  C    0.388726   0.381113
    12  O    0.000000   0.000000
    13  H    0.000000   0.000000
    14  H    0.000000  -0.000000
    15  H    0.000000  -0.000000
    16  H    0.000000  -0.000000
    17  H    0.000000  -0.000000
    18  H   -0.000000   0.000000
    19  H    0.000000  -0.000000
    20  H    0.000003  -0.000000
    21  H   -0.000004   0.000000
    22  H    0.000007  -0.000000
    23  H   -0.000001   0.000000
    24  H    0.000536  -0.000031
    25  H    0.001555  -0.000103
    26  H   -0.000021  -0.000185
    27  H   -0.000153   0.000007
    28  H   -0.005198  -0.002653
    29  H    0.005525  -0.004092
    30  H   -0.033946  -0.032505
    31  H    0.606483  -0.032095
    32  H   -0.032095   0.614383
 Mulliken charges:
               1
     1  O   -0.473429
     2  C    0.557900
     3  C   -0.257090
     4  C   -0.168365
     5  C   -0.193841
     6  C   -0.173944
     7  C   -0.179934
     8  C   -0.177673
     9  C   -0.169223
    10  C   -0.178775
    11  C   -0.317265
    12  O   -0.471213
    13  H    0.318288
    14  H    0.133429
    15  H    0.137221
    16  H    0.107893
    17  H    0.111658
    18  H    0.089103
    19  H    0.092925
    20  H    0.092812
    21  H    0.092489
    22  H    0.091149
    23  H    0.087130
    24  H    0.086768
    25  H    0.093891
    26  H    0.086203
    27  H    0.092473
    28  H    0.091902
    29  H    0.090036
    30  H    0.101759
    31  H    0.105859
    32  H    0.099865
 Sum of Mulliken charges =  -0.00000
 Mulliken charges with hydrogens summed into heavy atoms:
               1
     1  O   -0.155141
     2  C    0.557900
     3  C    0.013559
     4  C    0.051187
     5  C   -0.011813
     6  C    0.011357
     7  C   -0.001656
     8  C    0.002985
     9  C    0.009454
    10  C    0.003162
    11  C   -0.009782
    12  O   -0.471213
 Electronic spatial extent (au):  <R**2>=           4639.2569
 Charge=             -0.0000 electrons
 Dipole moment (field-independent basis, Debye):
    X=              0.7395    Y=             -0.3939    Z=             -1.2968  Tot=              1.5439
 Quadrupole moment (field-independent basis, Debye-Ang):
   XX=            -77.5976   YY=            -73.5527   ZZ=            -79.6991
   XY=              4.1418   XZ=              5.5638   YZ=             -1.5890
 Traceless Quadrupole moment (field-independent basis, Debye-Ang):
   XX=             -0.6478   YY=              3.3971   ZZ=             -2.7493
   XY=              4.1418   XZ=              5.5638   YZ=             -1.5890
 Octapole moment (field-independent basis, Debye-Ang**2):
  XXX=            -50.7564  YYY=            -11.7555  ZZZ=             -2.2438  XYY=            -26.6406
  XXY=            -32.7237  XXZ=            -26.7389  XZZ=              2.4375  YZZ=             -0.3344
  YYZ=              4.6427  XYZ=              6.9463
 Hexadecapole moment (field-independent basis, Debye-Ang**3):
 XXXX=          -4963.3072 YYYY=           -563.7008 ZZZZ=           -308.6636 XXXY=            232.0197
 XXXZ=             93.9768 YYYX=             68.4919 YYYZ=             -1.4421 ZZZX=              4.9841
 ZZZY=              1.6352 XXYY=           -863.3957 XXZZ=           -989.2818 YYZZ=           -152.3463
 XXYZ=            -29.5726 YYXZ=            -18.1646 ZZXY=              2.3596
 N-N= 6.972948751876D+02 E-N=-2.657851773429D+03  KE= 5.384814486000D+02
 Calling FoFJK, ICntrl=      2127 FMM=F ISym2X=0 I1Cent= 0 IOpClX= 0 NMat=1 NMatS=1 NMatT=0.
 ***** Axes restored to original set *****
 -------------------------------------------------------------------
 Center     Atomic                   Forces (Hartrees/Bohr)
 Number     Number              X              Y              Z
 -------------------------------------------------------------------
      1        8          -0.005004382   -0.008515295   -0.002650504
      2        6          -0.024003588    0.003699278    0.002308442
      3        6          -0.008808040    0.011731224    0.001499114
      4        6           0.006619999   -0.002938378    0.002330680
      5        6          -0.002597925    0.005277477   -0.004763429
      6        6           0.009362786   -0.003686480    0.001840035
      7        6          -0.008972913    0.002794069   -0.001600659
      8        6          -0.000594670   -0.007450923    0.004648423
      9        6           0.002669758    0.006071761   -0.005412611
     10        6          -0.005929396    0.003438967    0.004012988
     11        6           0.005123730   -0.002255546    0.000373488
     12        8           0.011737597   -0.014022209   -0.004768088
     13        1           0.009125471    0.012806116    0.003820055
     14        1           0.002504028   -0.004108808    0.001052762
     15        1           0.002525858   -0.003109256   -0.003477089
     16        1           0.002050354    0.001529012    0.001701085
     17        1           0.002008313    0.001641752   -0.001849615
     18        1           0.003993375   -0.002965445   -0.000573076
     19        1          -0.003056926    0.000249926    0.001352859
     20        1          -0.001632124   -0.003953296   -0.000878137
     21        1          -0.001453636    0.004416169   -0.000597279
     22        1           0.002170991    0.003859344    0.000959495
     23        1           0.002154723   -0.004305433    0.001084045
     24        1           0.003475095   -0.000191524   -0.002908749
     25        1          -0.003463236    0.002473466   -0.000087779
     26        1           0.003833500   -0.002188447    0.001723248
     27        1          -0.004127105    0.000054944    0.001821835
     28        1           0.003857563    0.001833726   -0.001346497
     29        1          -0.001119842   -0.003748068    0.000140645
     30        1          -0.002385413   -0.000565950    0.002368295
     31        1           0.000404480    0.002766774    0.000666095
     32        1          -0.000468423   -0.000638945   -0.002790076
 -------------------------------------------------------------------
 Cartesian Forces:  Max     0.024003588 RMS     0.005032840

 GradGradGradGradGradGradGradGradGradGradGradGradGradGradGradGradGradGrad
 Berny optimization.
 FormGI is forming the generalized inverse of G from B-inverse, IUseBI=4.
 Internal  Forces:  Max     0.018484960 RMS     0.002923823
 Search for a local minimum.
 Step number   1 out of a maximum of  179
 All quantities printed in internal units (Hartrees-Bohrs-Radians)
 Mixed Optimization -- RFO/linear search
 Second derivative matrix not updated -- first step.
 ITU=  0
     Eigenvalues ---    0.00230   0.00230   0.00230   0.00230   0.00230
     Eigenvalues ---    0.00230   0.00230   0.00276   0.00402   0.00874
     Eigenvalues ---    0.02357   0.03083   0.03172   0.03242   0.03252
     Eigenvalues ---    0.03258   0.03271   0.03282   0.03812   0.04664
     Eigenvalues ---    0.04666   0.04687   0.04691   0.04693   0.04704
     Eigenvalues ---    0.04706   0.05160   0.05354   0.05456   0.08514
     Eigenvalues ---    0.08523   0.08542   0.08546   0.08571   0.08705
     Eigenvalues ---    0.08811   0.09646   0.12357   0.12359   0.12370
     Eigenvalues ---    0.12378   0.12392   0.12485   0.12576   0.12968
     Eigenvalues ---    0.16000   0.16000   0.16000   0.16000   0.21881
     Eigenvalues ---    0.21904   0.21908   0.21909   0.21911   0.21922
     Eigenvalues ---    0.21928   0.21985   0.25000   0.25000   0.27671
     Eigenvalues ---    0.28093   0.28173   0.28251   0.28361   0.28363
     Eigenvalues ---    0.28442   0.28782   0.29657   0.34496   0.34508
     Eigenvalues ---    0.34631   0.34638   0.34638   0.34651   0.34654
     Eigenvalues ---    0.34654   0.34655   0.34659   0.34707   0.34739
     Eigenvalues ---    0.34743   0.34764   0.34767   0.34777   0.34790
     Eigenvalues ---    0.34860   0.35079   0.55090   0.55941   0.93983
 RFO step:  Lambda=-4.70254428D-03 EMin= 2.30000000D-03
 Linear search not attempted -- first point.
 Iteration  1 RMS(Cart)=  0.07436681 RMS(Int)=  0.00072238
 Iteration  2 RMS(Cart)=  0.00118858 RMS(Int)=  0.00008602
 Iteration  3 RMS(Cart)=  0.00000070 RMS(Int)=  0.00008602
 Variable       Old X    -DE/DX   Delta X   Delta X   Delta X     New X
                                 (Linear)    (Quad)   (Total)
    R1        2.55052   0.00358   0.00000   0.00644   0.00644   2.55696
    R2        1.81005   0.01573   0.00000   0.02789   0.02789   1.83794
    R3        2.88653  -0.00929   0.00000  -0.03083  -0.03083   2.85570
    R4        2.31150  -0.01848   0.00000  -0.01957  -0.01957   2.29193
    R5        2.92864  -0.01172   0.00000  -0.04164  -0.04164   2.88701
    R6        2.05902   0.00439   0.00000   0.01242   0.01242   2.07144
    R7        2.05547   0.00475   0.00000   0.01336   0.01336   2.06883
    R8        2.91935  -0.00167   0.00000  -0.00585  -0.00585   2.91350
    R9        2.06482   0.00137   0.00000   0.00391   0.00391   2.06873
   R10        2.06500   0.00163   0.00000   0.00467   0.00467   2.06967
   R11        2.91761  -0.00461   0.00000  -0.01611  -0.01611   2.90150
   R12        2.06267   0.00445   0.00000   0.01267   0.01267   2.07534
   R13        2.06279   0.00326   0.00000   0.00928   0.00928   2.07207
   R14        2.91353  -0.00488   0.00000  -0.01692  -0.01692   2.89661
   R15        2.06039   0.00430   0.00000   0.01219   0.01219   2.07258
   R16        2.06266   0.00434   0.00000   0.01236   0.01236   2.07502
   R17        2.91355  -0.00338   0.00000  -0.01172  -0.01172   2.90183
   R18        2.06055   0.00449   0.00000   0.01275   0.01275   2.07329
   R19        2.06241   0.00471   0.00000   0.01342   0.01342   2.07583
   R20        2.91592  -0.00534   0.00000  -0.01859  -0.01859   2.89733
   R21        2.06239   0.00440   0.00000   0.01252   0.01252   2.07491
   R22        2.06154   0.00411   0.00000   0.01169   0.01169   2.07322
   R23        2.91181  -0.00337   0.00000  -0.01164  -0.01164   2.90017
   R24        2.06231   0.00456   0.00000   0.01297   0.01297   2.07528
   R25        2.06094   0.00439   0.00000   0.01246   0.01246   2.07340
   R26        2.90461  -0.00259   0.00000  -0.00884  -0.00884   2.89577
   R27        2.06245   0.00423   0.00000   0.01205   0.01205   2.07450
   R28        2.06240   0.00384   0.00000   0.01093   0.01093   2.07333
   R29        2.06101   0.00330   0.00000   0.00937   0.00937   2.07039
   R30        2.06017   0.00281   0.00000   0.00798   0.00798   2.06815
   R31        2.06060   0.00290   0.00000   0.00823   0.00823   2.06883
    A1        1.81741   0.00684   0.00000   0.04153   0.04153   1.85894
    A2        1.95064   0.00074   0.00000   0.00292   0.00290   1.95354
    A3        2.14918  -0.00490   0.00000  -0.01925  -0.01926   2.12991
    A4        2.18337   0.00416   0.00000   0.01634   0.01633   2.19970
    A5        1.99433  -0.00666   0.00000  -0.02775  -0.02766   1.96668
    A6        1.87306   0.00205   0.00000   0.00758   0.00763   1.88069
    A7        1.86689   0.00240   0.00000   0.01254   0.01264   1.87952
    A8        1.91785   0.00232   0.00000   0.01124   0.01124   1.92909
    A9        1.93674   0.00234   0.00000   0.01368   0.01374   1.95048
   A10        1.86960  -0.00228   0.00000  -0.01732  -0.01739   1.85221
   A11        1.98637  -0.00176   0.00000  -0.01052  -0.01063   1.97574
   A12        1.89193  -0.00064   0.00000  -0.00371  -0.00364   1.88828
   A13        1.93344  -0.00152   0.00000  -0.02827  -0.02839   1.90505
   A14        1.89262   0.00243   0.00000   0.03067   0.03060   1.92322
   A15        1.91642   0.00155   0.00000   0.00520   0.00469   1.92112
   A16        1.83634   0.00016   0.00000   0.00956   0.00924   1.84559
   A17        2.01647  -0.00139   0.00000  -0.01042  -0.01069   2.00578
   A18        1.92698   0.00004   0.00000  -0.01229  -0.01270   1.91428
   A19        1.88657   0.00071   0.00000   0.01394   0.01399   1.90056
   A20        1.92041  -0.00045   0.00000  -0.01689  -0.01724   1.90317
   A21        1.87283   0.00075   0.00000   0.01336   0.01344   1.88627
   A22        1.83006   0.00058   0.00000   0.01676   0.01691   1.84698
   A23        2.00826  -0.00056   0.00000  -0.00533  -0.00544   2.00282
   A24        1.87971   0.00073   0.00000   0.01132   0.01134   1.89105
   A25        1.90934  -0.00029   0.00000  -0.00979  -0.00994   1.89940
   A26        1.90901  -0.00002   0.00000   0.00443   0.00445   1.91346
   A27        1.90791  -0.00030   0.00000  -0.01093  -0.01107   1.89684
   A28        1.84223   0.00055   0.00000   0.01228   0.01234   1.85457
   A29        1.99388  -0.00109   0.00000  -0.00672  -0.00682   1.98707
   A30        1.89926   0.00033   0.00000   0.00678   0.00680   1.90606
   A31        1.91916  -0.00030   0.00000  -0.01134  -0.01145   1.90771
   A32        1.88020   0.00085   0.00000   0.01239   0.01240   1.89260
   A33        1.91300   0.00017   0.00000  -0.00622  -0.00637   1.90663
   A34        1.85259   0.00015   0.00000   0.00681   0.00686   1.85945
   A35        1.99461  -0.00056   0.00000  -0.00470  -0.00473   1.98988
   A36        1.89142   0.00087   0.00000   0.00940   0.00941   1.90083
   A37        1.90661  -0.00028   0.00000  -0.00583  -0.00589   1.90073
   A38        1.89882  -0.00045   0.00000  -0.00242  -0.00240   1.89642
   A39        1.92118   0.00009   0.00000  -0.00443  -0.00449   1.91670
   A40        1.84499   0.00040   0.00000   0.00940   0.00941   1.85440
   A41        1.98979  -0.00052   0.00000  -0.00441  -0.00443   1.98536
   A42        1.90207  -0.00061   0.00000  -0.00433  -0.00431   1.89775
   A43        1.92318  -0.00002   0.00000  -0.00537  -0.00541   1.91777
   A44        1.89365   0.00099   0.00000   0.01046   0.01046   1.90411
   A45        1.90305  -0.00016   0.00000  -0.00415  -0.00420   1.89885
   A46        1.84642   0.00040   0.00000   0.00911   0.00911   1.85553
   A47        1.99027  -0.00016   0.00000  -0.00291  -0.00295   1.98732
   A48        1.91578  -0.00060   0.00000  -0.01065  -0.01070   1.90509
   A49        1.89861  -0.00017   0.00000   0.00099   0.00100   1.89961
   A50        1.91244   0.00003   0.00000  -0.00384  -0.00392   1.90852
   A51        1.89664   0.00046   0.00000   0.00792   0.00793   1.90456
   A52        1.84426   0.00050   0.00000   0.00977   0.00978   1.85403
   A53        1.94347  -0.00111   0.00000  -0.00836  -0.00837   1.93511
   A54        1.94953   0.00012   0.00000   0.00029   0.00027   1.94981
   A55        1.93515   0.00029   0.00000   0.00380   0.00380   1.93895
   A56        1.88283   0.00010   0.00000  -0.00317  -0.00320   1.87964
   A57        1.87711   0.00052   0.00000   0.00393   0.00395   1.88105
   A58        1.87245   0.00014   0.00000   0.00390   0.00389   1.87633
    D1       -3.14120  -0.00005   0.00000  -0.00440  -0.00431   3.13768
    D2       -0.00114   0.00010   0.00000   0.00613   0.00604   0.00489
    D3       -3.13797  -0.00005   0.00000  -0.00114  -0.00110  -3.13907
    D4        1.01417  -0.00016   0.00000  -0.00293  -0.00290   1.01128
    D5       -0.98733   0.00032   0.00000   0.00732   0.00732  -0.98000
    D6        0.00519  -0.00019   0.00000  -0.01189  -0.01190  -0.00670
    D7       -2.12584  -0.00031   0.00000  -0.01368  -0.01370  -2.13954
    D8        2.15584   0.00018   0.00000  -0.00342  -0.00348   2.15236
    D9        3.10707  -0.00051   0.00000  -0.00969  -0.00956   3.09751
   D10       -1.06881   0.00098   0.00000   0.01983   0.01981  -1.04901
   D11        0.93766  -0.00002   0.00000   0.01381   0.01369   0.95135
   D12       -1.06978  -0.00072   0.00000  -0.01067  -0.01057  -1.08035
   D13        1.03752   0.00077   0.00000   0.01885   0.01881   1.05632
   D14        3.04399  -0.00023   0.00000   0.01283   0.01269   3.05668
   D15        0.99467  -0.00063   0.00000  -0.01655  -0.01639   0.97828
   D16        3.10197   0.00085   0.00000   0.01297   0.01299   3.11495
   D17       -1.17474  -0.00015   0.00000   0.00695   0.00687  -1.16787
   D18       -1.65244   0.00166   0.00000   0.07773   0.07770  -1.57474
   D19        0.54050  -0.00003   0.00000   0.03579   0.03589   0.57639
   D20        2.53301   0.00108   0.00000   0.05700   0.05702   2.59003
   D21        2.52384   0.00189   0.00000   0.06747   0.06750   2.59134
   D22       -1.56641   0.00020   0.00000   0.02553   0.02569  -1.54071
   D23        0.42610   0.00131   0.00000   0.04674   0.04682   0.47292
   D24        0.52611  -0.00045   0.00000   0.03657   0.03639   0.56250
   D25        2.71905  -0.00214   0.00000  -0.00536  -0.00541   2.71363
   D26       -1.57163  -0.00103   0.00000   0.01584   0.01572  -1.55592
   D27        1.09405  -0.00111   0.00000  -0.03885  -0.03875   1.05530
   D28       -3.05532  -0.00096   0.00000  -0.02817  -0.02808  -3.08340
   D29       -1.06126  -0.00007   0.00000  -0.01271  -0.01266  -1.07392
   D30       -1.10226   0.00032   0.00000   0.00059   0.00051  -1.10175
   D31        1.03156   0.00047   0.00000   0.01127   0.01117   1.04273
   D32        3.02562   0.00136   0.00000   0.02673   0.02659   3.05221
   D33       -3.08393  -0.00054   0.00000  -0.01782  -0.01777  -3.10170
   D34       -0.95011  -0.00039   0.00000  -0.00714  -0.00711  -0.95722
   D35        1.04394   0.00050   0.00000   0.00832   0.00831   1.05226
   D36        3.06663   0.00015   0.00000   0.01529   0.01529   3.08193
   D37       -1.11492   0.00077   0.00000   0.03160   0.03158  -1.08334
   D38        0.90739   0.00097   0.00000   0.03734   0.03727   0.94467
   D39        0.94866  -0.00039   0.00000   0.00085   0.00088   0.94954
   D40        3.05029   0.00022   0.00000   0.01717   0.01717   3.06746
   D41       -1.21058   0.00042   0.00000   0.02291   0.02286  -1.18772
   D42       -1.06048  -0.00087   0.00000  -0.01023  -0.01016  -1.07064
   D43        1.04115  -0.00026   0.00000   0.00609   0.00613   1.04728
   D44        3.06346  -0.00006   0.00000   0.01183   0.01182   3.07528
   D45       -1.18884   0.00059   0.00000   0.02659   0.02656  -1.16228
   D46        2.97407   0.00090   0.00000   0.02594   0.02592   3.00000
   D47        0.97192   0.00010   0.00000   0.01285   0.01284   0.98476
   D48        2.98212   0.00026   0.00000   0.01341   0.01339   2.99551
   D49        0.86185   0.00056   0.00000   0.01275   0.01275   0.87460
   D50       -1.14030  -0.00024   0.00000  -0.00034  -0.00033  -1.14063
   D51        0.97371  -0.00047   0.00000   0.00186   0.00187   0.97557
   D52       -1.14657  -0.00016   0.00000   0.00121   0.00123  -1.14534
   D53        3.13447  -0.00096   0.00000  -0.01188  -0.01185   3.12261
   D54       -3.01067  -0.00080   0.00000  -0.02311  -0.02309  -3.03376
   D55       -0.89248  -0.00032   0.00000  -0.01580  -0.01579  -0.90827
   D56        1.12627  -0.00020   0.00000  -0.01032  -0.01032   1.11595
   D57       -0.89448  -0.00038   0.00000  -0.01595  -0.01594  -0.91041
   D58        1.22372   0.00010   0.00000  -0.00864  -0.00863   1.21508
   D59       -3.04072   0.00022   0.00000  -0.00316  -0.00316  -3.04389
   D60        1.11960  -0.00010   0.00000  -0.00849  -0.00850   1.11110
   D61       -3.04540   0.00038   0.00000  -0.00118  -0.00119  -3.04659
   D62       -1.02665   0.00050   0.00000   0.00430   0.00428  -1.02237
   D63       -1.14574   0.00041   0.00000   0.02188   0.02185  -1.12389
   D64        1.00750  -0.00013   0.00000   0.00653   0.00654   1.01404
   D65        3.01761   0.00004   0.00000   0.01294   0.01293   3.03054
   D66        3.01459   0.00081   0.00000   0.02275   0.02274   3.03733
   D67       -1.11536   0.00027   0.00000   0.00740   0.00743  -1.10793
   D68        0.89476   0.00044   0.00000   0.01381   0.01381   0.90857
   D69        1.01143  -0.00011   0.00000   0.00858   0.00856   1.01999
   D70       -3.11852  -0.00065   0.00000  -0.00678  -0.00675  -3.12527
   D71       -1.10840  -0.00047   0.00000  -0.00037  -0.00037  -1.10877
   D72       -0.98713  -0.00010   0.00000  -0.00734  -0.00735  -0.99447
   D73        1.11925  -0.00066   0.00000  -0.01700  -0.01699   1.10226
   D74       -3.07647  -0.00021   0.00000  -0.00931  -0.00930  -3.08577
   D75        3.14101   0.00078   0.00000   0.01167   0.01166  -3.13051
   D76       -1.03579   0.00022   0.00000   0.00202   0.00202  -1.03378
   D77        1.05167   0.00067   0.00000   0.00971   0.00971   1.06138
   D78        1.13380  -0.00008   0.00000  -0.00224  -0.00225   1.13155
   D79       -3.04301  -0.00064   0.00000  -0.01190  -0.01190  -3.05491
   D80       -0.95554  -0.00019   0.00000  -0.00421  -0.00420  -0.95974
         Item               Value     Threshold  Converged?
 Maximum Force            0.018485     0.000450     NO 
 RMS     Force            0.002924     0.000300     NO 
 Maximum Displacement     0.352550     0.001800     NO 
 RMS     Displacement     0.074380     0.001200     NO 
 Predicted change in Energy=-2.468200D-03
 GradGradGradGradGradGradGradGradGradGradGradGradGradGradGradGradGradGrad

                          Input orientation:                          
 ---------------------------------------------------------------------
 Center     Atomic      Atomic             Coordinates (Angstroms)
 Number     Number       Type             X           Y           Z
 ---------------------------------------------------------------------
      1          8           0        6.370520   -0.444680   -0.078364
      2          6           0        5.027846   -0.331955    0.045551
      3          6           0        4.318379   -1.618239   -0.309091
      4          6           0        2.800164   -1.509011   -0.178400
      5          6           0        2.060396   -2.795408   -0.596667
      6          6           0        1.666383   -2.862259   -2.079153
      7          6           0        2.843008   -2.798474   -3.059468
      8          6           0        2.433554   -2.950238   -4.531655
      9          6           0        1.879555   -4.335354   -4.885552
     10          6           0        1.612898   -4.530014   -6.384326
     11          6           0        0.520258   -3.612840   -6.943886
     12          8           0        4.498491    0.702184    0.393848
     13          1           0        6.743954    0.420287    0.163139
     14          1           0        4.705138   -2.405534    0.348292
     15          1           0        4.619342   -1.895045   -1.324640
     16          1           0        2.563766   -1.258010    0.860607
     17          1           0        2.448096   -0.661639   -0.776329
     18          1           0        2.673903   -3.671992   -0.349068
     19          1           0        1.147171   -2.890671    0.002697
     20          1           0        1.098854   -3.786132   -2.244251
     21          1           0        0.978784   -2.035314   -2.300714
     22          1           0        3.360413   -1.838353   -2.940405
     23          1           0        3.571386   -3.580012   -2.803879
     24          1           0        3.306459   -2.748398   -5.166393
     25          1           0        1.691836   -2.179524   -4.775560
     26          1           0        2.592886   -5.097951   -4.545507
     27          1           0        0.948378   -4.516743   -4.334330
     28          1           0        2.545212   -4.366246   -6.940284
     29          1           0        1.330090   -5.575265   -6.561040
     30          1           0       -0.420171   -3.748132   -6.398326
     31          1           0        0.799701   -2.557387   -6.868486
     32          1           0        0.327950   -3.827953   -7.999957
 ---------------------------------------------------------------------
                    Distance matrix (angstroms):
                    1          2          3          4          5
     1  O    0.000000
     2  C    1.353084   0.000000
     3  C    2.375239   1.511171   0.000000
     4  C    3.726962   2.529462   1.527739   0.000000
     5  C    4.936773   3.909834   2.562599   1.541759   0.000000
     6  C    5.654799   4.713410   3.422542   2.594148   1.535409
     7  C    5.183693   4.527513   3.336802   3.156755   2.584160
     8  C    6.450529   5.876782   4.812155   4.600257   3.955673
     9  C    7.642982   7.089056   5.854449   5.567137   4.560556
    10  C    8.893260   8.404099   7.259927   7.003540   6.058556
[...]
 Alpha virt. eigenvalues --    4.19400   4.24669   4.26581   4.30781   4.31520
 Alpha virt. eigenvalues --    4.34377   4.37188   4.38870   4.44422   4.46104
 Alpha virt. eigenvalues --    4.47259   4.47967   4.51103   4.53034   4.54233
 Alpha virt. eigenvalues --    4.56614   4.57432   4.59513   4.62618   4.62950
 Alpha virt. eigenvalues --    4.63152   4.68818   4.69579   4.71282   4.73566
 Alpha virt. eigenvalues --    4.77577   4.78999   4.83902   4.87398   4.89997
 Alpha virt. eigenvalues --    4.94419   5.02945   5.11209   5.16985   5.21898
 Alpha virt. eigenvalues --    5.22393   5.38724   5.41607   5.50266   5.59868
 Alpha virt. eigenvalues --    5.75144   5.84611   5.86395   6.15710   6.19227
 Alpha virt. eigenvalues --    6.32100   6.34025   6.44049   6.48596   6.64909
 Alpha virt. eigenvalues --    6.68587   6.73880   6.81004   6.88788   7.07355
 Alpha virt. eigenvalues --    7.09542   7.27294  22.42026  22.49524  22.54017
 Alpha virt. eigenvalues --   22.56240  22.58501  22.59928  22.61735  22.63546
 Alpha virt. eigenvalues --   22.66556  23.26823  43.93634  44.00701
          Condensed to atoms (all electrons):
               1          2          3          4          5          6
     1  O    7.939397   0.392171  -0.142170   0.011226  -0.000168  -0.000025
     2  C    0.392171   4.431959   0.224536  -0.015251   0.004214  -0.001743
     3  C   -0.142170   0.224536   5.548386   0.123929  -0.010149  -0.000018
     4  C    0.011226  -0.015251   0.123929   5.340483   0.159089  -0.022174
     5  C   -0.000168   0.004214  -0.010149   0.159089   5.211218   0.231981
     6  C   -0.000025  -0.001743  -0.000018  -0.022174   0.231981   5.279455
     7  C   -0.000098   0.000735  -0.000755   0.012865  -0.037794   0.190101
     8  C   -0.000002  -0.000027   0.002314  -0.003130   0.008827  -0.050345
     9  C   -0.000000  -0.000003  -0.000112   0.000214   0.000096   0.008405
    10  C   -0.000000  -0.000000   0.000004  -0.000004  -0.000012   0.000811
    11  C    0.000000  -0.000000  -0.000000   0.000002  -0.000008  -0.000160
    12  O   -0.088104   0.672143  -0.121456   0.016507   0.001822  -0.000279
    13  H    0.290136  -0.031248   0.023431  -0.001952   0.000050   0.000003
    14  H    0.003639  -0.005973   0.388186  -0.034990  -0.004968   0.001555
    15  H    0.006686  -0.023555   0.410234  -0.043995   0.000136   0.000146
    16  H    0.000124  -0.005019  -0.036188   0.429603  -0.040946   0.004626
    17  H    0.000089  -0.003573  -0.042121   0.423442  -0.052451   0.009995
    18  H   -0.000013  -0.000038  -0.004585  -0.057998   0.433915  -0.040265
    19  H    0.000003  -0.000457   0.005559  -0.048198   0.445775  -0.055381
    20  H   -0.000000   0.000048  -0.000705   0.010673  -0.048784   0.436336
    21  H    0.000001   0.000023   0.001335  -0.014254  -0.029308   0.423286
    22  H    0.000039   0.001118  -0.013532   0.017638  -0.017880  -0.039458
    23  H   -0.000003   0.000079  -0.000691  -0.005055   0.007963  -0.071389
    24  H   -0.000000   0.000002  -0.000034  -0.000012  -0.000186   0.009817
    25  H    0.000000   0.000001  -0.000015   0.000029   0.000141  -0.013328
    26  H    0.000000   0.000000  -0.000001   0.000057  -0.000164  -0.002952
    27  H    0.000000   0.000000  -0.000005  -0.000074   0.000947   0.000431
    28  H    0.000000  -0.000000  -0.000000  -0.000000   0.000008  -0.000080
    29  H    0.000000   0.000000  -0.000000  -0.000000  -0.000003   0.000060
    30  H   -0.000000   0.000000  -0.000000   0.000000   0.000006  -0.000012
    31  H   -0.000000  -0.000000   0.000000  -0.000001  -0.000000   0.000133
    32  H   -0.000000   0.000000   0.000000  -0.000000  -0.000000  -0.000004
               7          8          9         10         11         12
     1  O   -0.000098  -0.000002  -0.000000  -0.000000   0.000000  -0.088104
     2  C    0.000735  -0.000027  -0.000003  -0.000000  -0.000000   0.672143
     3  C   -0.000755   0.002314  -0.000112   0.000004  -0.000000  -0.121456
     4  C    0.012865  -0.003130   0.000214  -0.000004   0.000002   0.016507
     5  C   -0.037794   0.008827   0.000096  -0.000012  -0.000008   0.001822
     6  C    0.190101  -0.050345   0.008405   0.000811  -0.000160  -0.000279
     7  C    5.280709   0.249238  -0.045654   0.006394   0.000839   0.000113
     8  C    0.249238   5.235519   0.197602  -0.043095   0.014349   0.000005
     9  C   -0.045654   0.197602   5.272549   0.260436  -0.058477  -0.000000
    10  C    0.006394  -0.043095   0.260436   5.100136   0.255047   0.000000
    11  C    0.000839   0.014349  -0.058477   0.255047   5.089768  -0.000000
    12  O    0.000113   0.000005  -0.000000   0.000000  -0.000000   7.836744
    13  H   -0.000005  -0.000000   0.000000   0.000000  -0.000000   0.005985
    14  H   -0.001168  -0.000069   0.000001  -0.000000  -0.000000   0.001726
    15  H   -0.001656   0.001502  -0.000017   0.000003  -0.000000   0.001371
    16  H    0.000204   0.000061   0.000004  -0.000000   0.000000   0.003450
    17  H   -0.009564  -0.000323   0.000015   0.000000  -0.000001   0.003864
    18  H   -0.011642  -0.000930   0.000234  -0.000006  -0.000000  -0.000009
    19  H    0.010333  -0.000629  -0.000031  -0.000004   0.000001  -0.000042
    20  H   -0.046371  -0.005275  -0.000344   0.000528   0.000133  -0.000000
    21  H   -0.060842   0.002722  -0.001555  -0.000064  -0.000027   0.000004
    22  H    0.426559  -0.036414   0.009017  -0.000415   0.000080  -0.000018
    23  H    0.427820  -0.024695  -0.012077   0.000021  -0.000080  -0.000003
    24  H   -0.044872   0.422321  -0.043617   0.001918  -0.002463  -0.000000
    25  H   -0.029503   0.438413  -0.060623  -0.004951   0.000171  -0.000000
    26  H    0.004281  -0.048093   0.417950  -0.040431   0.009493   0.000000
    27  H   -0.006332  -0.064296   0.439007  -0.031121  -0.011036   0.000000
    28  H   -0.000312  -0.014657  -0.040138   0.434702  -0.055025   0.000000
    29  H   -0.000811   0.012783  -0.061117   0.437575  -0.039031  -0.000000
    30  H   -0.000219  -0.005798   0.007453  -0.048080   0.405788  -0.000000
    31  H    0.000515   0.007422  -0.013324  -0.040762   0.418989  -0.000000
    32  H    0.000032  -0.000301   0.010884  -0.042031   0.413976   0.000000
              13         14         15         16         17         18
     1  O    0.290136   0.003639   0.006686   0.000124   0.000089  -0.000013
     2  C   -0.031248  -0.005973  -0.023555  -0.005019  -0.003573  -0.000038
     3  C    0.023431   0.388186   0.410234  -0.036188  -0.042121  -0.004585
     4  C   -0.001952  -0.034990  -0.043995   0.429603   0.423442  -0.057998
     5  C    0.000050  -0.004968   0.000136  -0.040946  -0.052451   0.433915
     6  C    0.000003   0.001555   0.000146   0.004626   0.009995  -0.040265
     7  C   -0.000005  -0.001168  -0.001656   0.000204  -0.009564  -0.011642
     8  C   -0.000000  -0.000069   0.001502   0.000061  -0.000323  -0.000930
     9  C    0.000000   0.000001  -0.000017   0.000004   0.000015   0.000234
    10  C    0.000000  -0.000000   0.000003  -0.000000   0.000000  -0.000006
    11  C   -0.000000  -0.000000  -0.000000   0.000000  -0.000001  -0.000000
    12  O    0.005985   0.001726   0.001371   0.003450   0.003864  -0.000009
    13  H    0.380102  -0.000516  -0.000730  -0.000037  -0.000003   0.000003
    14  H   -0.000516   0.495481  -0.020802  -0.003228   0.005133   0.001607
    15  H   -0.000730  -0.020802   0.495587   0.004597  -0.000896   0.001246
    16  H   -0.000037  -0.003228   0.004597   0.506067  -0.014924   0.001414
    17  H   -0.000003   0.005133  -0.000896  -0.014924   0.502060   0.005756
    18  H    0.000003   0.001607   0.001246   0.001414   0.005756   0.533619
    19  H   -0.000001   0.000321  -0.000364  -0.009874   0.002034  -0.018873
    20  H    0.000000  -0.000052   0.000070  -0.000168  -0.000050  -0.002940
    21  H   -0.000000   0.000013  -0.000033  -0.000245   0.002638   0.006105
    22  H    0.000007   0.000452  -0.002425   0.000234  -0.000735   0.001386
    23  H    0.000002   0.000387  -0.003645  -0.000175   0.000893   0.001957
    24  H    0.000000   0.000002   0.000014  -0.000001   0.000041   0.000034
    25  H    0.000000   0.000001  -0.000044  -0.000004   0.000026  -0.000026
    26  H   -0.000000  -0.000001  -0.000001   0.000000  -0.000004  -0.000030
    27  H   -0.000000   0.000001   0.000001  -0.000000   0.000010   0.000045
    28  H   -0.000000   0.000000   0.000000   0.000000   0.000000   0.000000
    29  H   -0.000000   0.000000  -0.000000   0.000000   0.000000   0.000000
    30  H    0.000000   0.000000   0.000000  -0.000000   0.000000   0.000000
    31  H   -0.000000  -0.000000  -0.000000   0.000000   0.000000   0.000000
    32  H    0.000000  -0.000000   0.000000  -0.000000   0.000000  -0.000000
              19         20         21         22         23         24
     1  O    0.000003  -0.000000   0.000001   0.000039  -0.000003  -0.000000
     2  C   -0.000457   0.000048   0.000023   0.001118   0.000079   0.000002
     3  C    0.005559  -0.000705   0.001335  -0.013532  -0.000691  -0.000034
     4  C   -0.048198   0.010673  -0.014254   0.017638  -0.005055  -0.000012
     5  C    0.445775  -0.048784  -0.029308  -0.017880   0.007963  -0.000186
     6  C   -0.055381   0.436336   0.423286  -0.039458  -0.071389   0.009817
     7  C    0.010333  -0.046371  -0.060842   0.426559   0.427820  -0.044872
     8  C   -0.000629  -0.005275   0.002722  -0.036414  -0.024695   0.422321
     9  C   -0.000031  -0.000344  -0.001555   0.009017  -0.012077  -0.043617
    10  C   -0.000004   0.000528  -0.000064  -0.000415   0.000021   0.001918
    11  C    0.000001   0.000133  -0.000027   0.000080  -0.000080  -0.002463
    12  O   -0.000042  -0.000000   0.000004  -0.000018  -0.000003  -0.000000
    13  H   -0.000001   0.000000  -0.000000   0.000007   0.000002   0.000000
    14  H    0.000321  -0.000052   0.000013   0.000452   0.000387   0.000002
    15  H   -0.000364   0.000070  -0.000033  -0.002425  -0.003645   0.000014
    16  H   -0.009874  -0.000168  -0.000245   0.000234  -0.000175  -0.000001
    17  H    0.002034  -0.000050   0.002638  -0.000735   0.000893   0.000041
    18  H   -0.018873  -0.002940   0.006105   0.001386   0.001957   0.000034
    19  H    0.531115  -0.006659  -0.003273  -0.000507   0.000085   0.000014
    20  H   -0.006659   0.538811  -0.020378   0.005065   0.000383  -0.000442
    21  H   -0.003273  -0.020378   0.532570  -0.001588   0.006851   0.000171
    22  H   -0.000507   0.005065  -0.001588   0.547699  -0.027415  -0.008370
    23  H    0.000085   0.000383   0.006851  -0.027415   0.534633  -0.002254
    24  H    0.000014  -0.000442   0.000171  -0.008370  -0.002254   0.536104
    25  H    0.000030   0.001293   0.002146  -0.003777   0.006191  -0.021627
    26  H    0.000016   0.000823   0.000070   0.000286   0.001595  -0.001454
    27  H   -0.000012  -0.004706   0.000591  -0.000564   0.001086   0.005778
    28  H   -0.000000  -0.000034   0.000006  -0.000039   0.000111   0.002419
    29  H    0.000000  -0.000008   0.000005   0.000016  -0.000024   0.000132
    30  H   -0.000000   0.000040   0.000018   0.000005   0.000004   0.000168
    31  H    0.000000  -0.000028   0.000017  -0.000008  -0.000019   0.000511
    32  H   -0.000000   0.000000   0.000001  -0.000002   0.000003  -0.000090
              25         26         27         28         29         30
     1  O    0.000000   0.000000   0.000000   0.000000   0.000000  -0.000000
     2  C    0.000001   0.000000   0.000000  -0.000000   0.000000   0.000000
     3  C   -0.000015  -0.000001  -0.000005  -0.000000  -0.000000  -0.000000
     4  C    0.000029   0.000057  -0.000074  -0.000000  -0.000000   0.000000
     5  C    0.000141  -0.000164   0.000947   0.000008  -0.000003   0.000006
     6  C   -0.013328  -0.002952   0.000431  -0.000080   0.000060  -0.000012
     7  C   -0.029503   0.004281  -0.006332  -0.000312  -0.000811  -0.000219
     8  C    0.438413  -0.048093  -0.064296  -0.014657   0.012783  -0.005798
     9  C   -0.060623   0.417950   0.439007  -0.040138  -0.061117   0.007453
    10  C   -0.004951  -0.040431  -0.031121   0.434702   0.437575  -0.048080
    11  C    0.000171   0.009493  -0.011036  -0.055025  -0.039031   0.405788
    12  O   -0.000000   0.000000   0.000000   0.000000  -0.000000  -0.000000
    13  H    0.000000  -0.000000  -0.000000  -0.000000  -0.000000   0.000000
    14  H    0.000001  -0.000001   0.000001   0.000000   0.000000   0.000000
    15  H   -0.000044  -0.000001   0.000001   0.000000  -0.000000   0.000000
    16  H   -0.000004   0.000000  -0.000000   0.000000   0.000000  -0.000000
    17  H    0.000026  -0.000004   0.000010   0.000000   0.000000   0.000000
    18  H   -0.000026  -0.000030   0.000045   0.000000   0.000000   0.000000
    19  H    0.000030   0.000016  -0.000012  -0.000000   0.000000  -0.000000
    20  H    0.001293   0.000823  -0.004706  -0.000034  -0.000008   0.000040
    21  H    0.002146   0.000070   0.000591   0.000006   0.000005   0.000018
    22  H   -0.003777   0.000286  -0.000564  -0.000039   0.000016   0.000005
    23  H    0.006191   0.001595   0.001086   0.000111  -0.000024   0.000004
    24  H   -0.021627  -0.001454   0.005778   0.002419   0.000132   0.000168
    25  H    0.532570   0.005965  -0.000325   0.001402  -0.000617   0.000935
    26  H    0.005965   0.546288  -0.022912  -0.002926  -0.007336   0.000145
    27  H   -0.000325  -0.022912   0.540981   0.006884  -0.003199   0.001912
    28  H    0.001402  -0.002926   0.006884   0.556168  -0.024936   0.007661
    29  H   -0.000617  -0.007336  -0.003199  -0.024936   0.554112  -0.003547
    30  H    0.000935   0.000145   0.001912   0.007661  -0.003547   0.550348
    31  H   -0.007269  -0.000643   0.001279  -0.003385   0.006446  -0.030728
    32  H    0.000337  -0.000279  -0.000189  -0.003685  -0.005712  -0.023130
              31         32
     1  O   -0.000000  -0.000000
     2  C   -0.000000   0.000000
     3  C    0.000000   0.000000
     4  C   -0.000001  -0.000000
     5  C   -0.000000  -0.000000
     6  C    0.000133  -0.000004
     7  C    0.000515   0.000032
     8  C    0.007422  -0.000301
     9  C   -0.013324   0.010884
    10  C   -0.040762  -0.042031
    11  C    0.418989   0.413976
    12  O   -0.000000   0.000000
    13  H   -0.000000   0.000000
    14  H   -0.000000  -0.000000
    15  H   -0.000000   0.000000
    16  H    0.000000  -0.000000
    17  H    0.000000   0.000000
    18  H    0.000000  -0.000000
    19  H    0.000000  -0.000000
    20  H   -0.000028   0.000000
    21  H    0.000017   0.000001
    22  H   -0.000008  -0.000002
    23  H   -0.000019   0.000003
    24  H    0.000511  -0.000090
    25  H   -0.007269   0.000337
    26  H   -0.000643  -0.000279
    27  H    0.001279  -0.000189
    28  H   -0.003385  -0.003685
    29  H    0.006446  -0.005712
    30  H   -0.030728  -0.023130
    31  H    0.542535  -0.024241
    32  H   -0.024241   0.531398
 Mulliken charges:
               1
     1  O   -0.412928
     2  C    0.359858
     3  C   -0.355378
     4  C   -0.298668
     5  C   -0.263367
     6  C   -0.299530
     7  C   -0.313139
     8  C   -0.294998
     9  C   -0.286777
    10  C   -0.246600
    11  C   -0.442328
    12  O   -0.333823
    13  H    0.334771
    14  H    0.173260
    15  H    0.176566
    16  H    0.160426
    17  H    0.168650
    18  H    0.150035
    19  H    0.149020
    20  H    0.142742
    21  H    0.152996
    22  H    0.143547
    23  H    0.157462
    24  H    0.145976
    25  H    0.152457
    26  H    0.140255
    27  H    0.145821
    28  H    0.135857
    29  H    0.135213
    30  H    0.137030
    31  H    0.142562
    32  H    0.143031
 Sum of Mulliken charges =  -0.00000
 Mulliken charges with hydrogens summed into heavy atoms:
               1
     1  O   -0.078157
     2  C    0.359858
     3  C   -0.005551
     4  C    0.030407
     5  C    0.035688
     6  C   -0.003792
     7  C   -0.012130
     8  C    0.003435
     9  C   -0.000701
    10  C    0.024470
    11  C   -0.019704
    12  O   -0.333823
 Electronic spatial extent (au):  <R**2>=           4560.7852
 Charge=             -0.0000 electrons
 Dipole moment (field-independent basis, Debye):
    X=              0.9802    Y=             -0.2805    Z=             -1.3883  Tot=              1.7225
 Quadrupole moment (field-independent basis, Debye-Ang):
   XX=            -79.8861   YY=            -74.9794   ZZ=            -81.3694
   XY=              3.7205   XZ=              5.4582   YZ=             -1.6355
 Traceless Quadrupole moment (field-independent basis, Debye-Ang):
   XX=             -1.1412   YY=              3.7656   ZZ=             -2.6244
   XY=              3.7205   XZ=              5.4582   YZ=             -1.6355
 Octapole moment (field-independent basis, Debye-Ang**2):
  XXX=            -42.6057  YYY=            -10.5560  ZZZ=             -3.3478  XYY=            -25.9098
  XXY=            -31.6580  XXZ=            -28.1619  XZZ=              3.0235  YZZ=             -0.0320
  YYZ=              4.6920  XYZ=              7.0690
 Hexadecapole moment (field-independent basis, Debye-Ang**3):
 XXXX=          -4982.2467 YYYY=           -573.0591 ZZZZ=           -322.5504 XXXY=            227.5866
 XXXZ=             90.1205 YYYX=             65.7759 YYYZ=             -0.6680 ZZZX=              4.9554
 ZZZY=              1.2985 XXYY=           -865.8238 XXZZ=          -1000.0220 YYZZ=           -157.9756
 XXYZ=            -31.3619 YYXZ=            -18.8697 ZZXY=              1.0979
 N-N= 7.014331636655D+02 E-N=-2.667697444055D+03  KE= 5.405710436047D+02
 Unable to Open any file for archive entry.
 1\1\GINC-NOTCH075\SP\RM062X\def2TZVP\C10H20O2\U6032257\03-Feb-2022\0\\
 # M062X/def2tzvp int=(grid=ultrafine) nmr=giao guess=read geom=check\\
 Ac1.xyz\\0,1\O,0,6.3923161839,-0.4436899993,0.0595356295\C,0,5.0421746
 863,-0.3162594263,0.1246177054\C,0,4.3452543035,-1.5948995778,-0.27516
 78343\C,0,2.8213405498,-1.492532824,-0.1920568441\C,0,2.0849563769,-2.
 7784119616,-0.6145512556\C,0,1.6860140298,-2.8539130505,-2.0964788169\
 C,0,2.8457655624,-2.7933762538,-3.0971142666\C,0,2.4141341891,-2.95496
 92286,-4.5618947483\C,0,1.8661759256,-4.3448264116,-4.9082059299\C,0,1
 .5853995656,-4.5500163635,-6.403310494\C,0,0.4810490781,-3.6460866896,
 -6.9592954566\O,0,4.5047356992,0.714819976,0.4644711588\H,0,6.75398086
 75,0.4173850943,0.3289633439\H,0,4.7205054872,-2.3951721688,0.37507230
 66\H,0,4.6884909576,-1.8567189747,-1.2812640626\H,0,2.5595828079,-1.23
 45614732,0.8390199385\H,0,2.4816015683,-0.646232092,-0.8000178192\H,0,
 2.6963517198,-3.654400693,-0.3564762866\H,0,1.1690103238,-2.8697240359
 ,-0.0194845246\H,0,1.1219179898,-3.7815479,-2.2491333961\H,0,0.9881591
 061,-2.034256529,-2.3184893014\H,0,3.360964472,-1.8309305854,-2.994441
 1107\H,0,3.5844155913,-3.5693363036,-2.8491914128\H,0,3.2760811966,-2.
 7480235446,-5.2104188846\H,0,1.6653096007,-2.187983296,-4.7975653594\H
 ,0,2.5894518322,-5.1007679136,-4.5732737254\H,0,0.9429765787,-4.535130
 3352,-4.3458784951\H,0,2.5120952086,-4.3860098852,-6.969814153\H,0,1.3
 079397958,-5.5982529177,-6.5700733825\H,0,-0.4524348329,-3.7791409143,
 -6.4003190795\H,0,0.7536192433,-2.5879545891,-6.8993450769\H,0,0.27526
 43355,-3.8733791322,-8.0100183661\\Version=ES64L-G16RevC.01\State=1-A\
 HF=-543.5393058\RMSD=2.364e-09\Dipole=0.1689126,-0.6084254,-0.2460154\
 Quadrupole=3.7339314,-3.251527,-0.4824044,2.3906367,1.1690541,-3.51063
 52\PG=C01 [X(C10H20O2)]\\@
 The archive entry for this job was punched.


 WE LEARN WISDOM FROM FAILURE MUCH MORE THAN FROM SUCCESS.
 WE DISCOVER WHAT WILL DO BY FINDING OUT WHAT WILL NOT DO...
 AND HE WHO NEVER MADE A MISTAKE NEVER MADE A DISCOVERY
 Job cpu time:       0 days  0 hours 35 minutes 33.2 seconds.
 Elapsed time:       0 days  0 hours  1 minutes 17.0 seconds.
 File lengths (MBytes):  RWF=    140 Int=      0 D2E=      0 Chk=     24 Scr=      1
 Normal termination of Gaussian 16 at Thu Feb  3 08:17:53 2022.
