 Entering Gaussian System, Link 0=/uufs/chpc.utah.edu/sys/installdir/gaussian16/C01/AVX2/g16/g16
 Input=Ac1_clust-39.com
 Output=Ac1_clust-39.log
 Initial command:
 /uufs/chpc.utah.edu/sys/installdir/gaussian16/C01/AVX2/g16/l1.exe "/scratch/general/lustre/u6032257/3857496/notchpeak.peaks/Gau-51705.inp" -scrdir="/scratch/general/lustre/u6032257/3857496/notchpeak.peaks/"
 Entering Link 1 = /uufs/chpc.utah.edu/sys/installdir/gaussian16/C01/AVX2/g16/l1.exe PID=     51707.
  
 Copyright (c) 1988-2019, Gaussian, Inc.  All Rights Reserved.
  
 This is part of the Gaussian(R) 16 program.  It is based on
 the Gaussian(R) 09 system (copyright 2009, Gaussian, Inc.),
 the Gaussian(R) 03 system (copyright 2003, Gaussian, Inc.),
 the Gaussian(R) 98 system (copyright 1998, Gaussian, Inc.),
 the Gaussian(R) 94 system (copyright 1995, Gaussian, Inc.),
 the Gaussian 92(TM) system (copyright 1992, Gaussian, Inc.),
 the Gaussian 90(TM) system (copyright 1990, Gaussian, Inc.),
 the Gaussian 88(TM) system (copyright 1988, Gaussian, Inc.),
 the Gaussian 86(TM) system (copyright 1986, Carnegie Mellon
 University), and the Gaussian 82(TM) system (copyright 1983,
 Carnegie Mellon University). Gaussian is a federally registered
 trademark of Gaussian, Inc.
  
 This software contains proprietary and confidential information,
 including trade secrets, belonging to Gaussian, Inc.
  
 This software is provided under written license and may be
 used, copied, transmitted, or stored only in accord with that
 written license.
  
 The following legend is applicable only to US Government
 contracts under FAR:
  
                    RESTRICTED RIGHTS LEGEND
  
 Use, reproduction and disclosure by the US Government is
 subject to restrictions as set forth in subparagraphs (a)
 and (c) of the Commercial Computer Software - Restricted
 Rights clause in FAR 52.227-19.
  
 Gaussian, Inc.
 340 Quinnipiac St., Bldg. 40, Wallingford CT 06492
  
  
 ---------------------------------------------------------------
 Warning -- This program may not be used in any manner that
 competes with the business of Gaussian, Inc. or will provide
 assistance to any competitor of Gaussian, Inc.  The licensee
 of this program is prohibited from giving any competitor of
 Gaussian, Inc. access to this program.  By using this program,
 the user acknowledges that Gaussian, Inc. is engaged in the
 business of creating and licensing software in the field of
 computational chemistry and represents and warrants to the
 licensee that it is not a competitor of Gaussian, Inc. and that
 it will not use this program in any manner prohibited above.
 ---------------------------------------------------------------
  

 Cite this work as:
 Gaussian 16, Revision C.01,
 M. J. Frisch, G. W. Trucks, H. B. Schlegel, G. E. Scuseria, 
 M. A. Robb, J. R. Cheeseman, G. Scalmani, V. Barone, 
 G. A. Petersson, H. Nakatsuji, X. Li, M. Caricato, A. V. Marenich, 
 J. Bloino, B. G. Janesko, R. Gomperts, B. Mennucci, H. P. Hratchian, 
 J. V. Ortiz, A. F. Izmaylov, J. L. Sonnenberg, D. Williams-Young, 
 F. Ding, F. Lipparini, F. Egidi, J. Goings, B. Peng, A. Petrone, 
 T. Henderson, D. Ranasinghe, V. G. Zakrzewski, J. Gao, N. Rega, 
 G. Zheng, W. Liang, M. Hada, M. Ehara, K. Toyota, R. Fukuda, 
 J. Hasegawa, M. Ishida, T. Nakajima, Y. Honda, O. Kitao, H. Nakai, 
 T. Vreven, K. Throssell, J. A. Montgomery, Jr., J. E. Peralta, 
 F. Ogliaro, M. J. Bearpark, J. J. Heyd, E. N. Brothers, K. N. Kudin, 
 V. N. Staroverov, T. A. Keith, R. Kobayashi, J. Normand, 
 K. Raghavachari, A. P. Rendell, J. C. Burant, S. S. Iyengar, 
 J. Tomasi, M. Cossi, J. M. Millam, M. Klene, C. Adamo, R. Cammi, 
 J. W. Ochterski, R. L. Martin, K. Morokuma, O. Farkas, 
 J. B. Foresman, and D. J. Fox, Gaussian, Inc., Wallingford CT, 2019.
 
 ******************************************
 Gaussian 16:  ES64L-G16RevC.01  3-Jul-2019
                 3-Feb-2022 
 ******************************************
 %NProcShared=32
 Will use up to   32 processors via shared memory.
 %mem=16GB
 %chk=Ac1_clust-39.chk
 ----------------------------------------------------------------------
 # B3LYP/6-31G(d,p) empiricaldispersion=GD3BJ int=(grid=ultrafine) opt 
 freq=noraman
 ----------------------------------------------------------------------
 1/18=20,19=15,26=4,38=1/1,3;
 2/9=110,12=2,17=6,18=5,40=1/2;
 3/5=1,6=6,7=101,11=2,25=1,30=1,71=1,74=-5,75=-5,124=41/1,2,3;
 4//1;
 5/5=2,38=5/2;
 6/7=2,8=2,9=2,10=2,28=1/1;
 7//1,2,3,16;
 1/18=20,19=15,26=4/3(2);
 2/9=110/2;
 99//99;
 2/9=110/2;
 3/5=1,6=6,7=101,11=2,25=1,30=1,71=1,74=-5,75=-5,124=41/1,2,3;
 4/5=5,16=3,69=1/1;
 5/5=2,38=5/2;
 7//1,2,3,16;
 1/18=20,19=15,26=4/3(-5);
 2/9=110/2;
 6/7=2,8=2,9=2,10=2,19=2,28=1/1;
 99/9=1/99;
 -------
 Ac1.xyz
 -------
 Symbolic Z-matrix:
 Charge =  0 Multiplicity = 1
 O                     6.3648   -0.0963    1.2544 
 C                     5.2139   -0.1968    0.5566 
 C                     4.3988   -1.4184    0.9831 
 C                     3.1512   -1.7275    0.1176 
 C                     3.4795   -2.2395   -1.2994 
 C                     2.2203   -2.588    -2.1124 
 C                     2.5477   -3.0997   -3.5262 
 C                     1.2891   -3.448    -4.3402 
 C                     1.6169   -3.9596   -5.754 
 C                     0.3588   -4.3075   -6.5678 
 C                     0.6879   -4.8176   -7.9778 
 O                     4.8764    0.6142   -0.2944 
 H                     6.7775    0.696     0.9089 
 H                     4.0827   -1.2237    2.0074 
 H                     5.0578   -2.2857    1.0185 
 H                     2.5503   -2.4802    0.6313 
 H                     2.5146   -0.8417    0.0525 
 H                     4.0561   -1.4858   -1.839 
 H                     4.1216   -3.1192   -1.2289 
 H                     1.6389   -3.3421   -1.5789 
 H                     1.5815   -1.7058   -2.1854 
 H                     3.1273   -2.3439   -4.0597 
 H                     3.1893   -3.9799   -3.4547 
 H                     0.6487   -2.5669   -4.4127 
 H                     0.7086   -4.2029   -3.8065 
 H                     2.1969   -3.2044   -6.2878 
 H                     2.2578   -4.8403   -5.6822 
 H                    -0.2237   -5.0641   -6.0391 
 H                    -0.2839   -3.4287   -6.6449 
 H                     1.2355   -4.0698   -8.5528 
 H                     1.2965   -5.722    -7.9411 
 H                    -0.2222   -5.0554   -8.5296 
 

 GradGradGradGradGradGradGradGradGradGradGradGradGradGradGradGradGradGrad
 Berny optimization.
 Initialization pass.
                           ----------------------------
                           !    Initial Parameters    !
                           ! (Angstroms and Degrees)  !
 --------------------------                            --------------------------
 ! Name  Definition              Value          Derivative Info.                !
 --------------------------------------------------------------------------------
 ! R1    R(1,2)                  1.3497         estimate D2E/DX2                !
 ! R2    R(1,13)                 0.9578         estimate D2E/DX2                !
 ! R3    R(2,3)                  1.5292         estimate D2E/DX2                !
 ! R4    R(2,12)                 1.223          estimate D2E/DX2                !
 ! R5    R(3,4)                  1.5496         estimate D2E/DX2                !
 ! R6    R(3,14)                 1.0895         estimate D2E/DX2                !
 ! R7    R(3,15)                 1.0898         estimate D2E/DX2                !
 ! R8    R(4,5)                  1.542          estimate D2E/DX2                !
 ! R9    R(4,16)                 1.0916         estimate D2E/DX2                !
 ! R10   R(4,17)                 1.0928         estimate D2E/DX2                !
 ! R11   R(5,6)                  1.5388         estimate D2E/DX2                !
 ! R12   R(5,18)                 1.0916         estimate D2E/DX2                !
 ! R13   R(5,19)                 1.0914         estimate D2E/DX2                !
 ! R14   R(6,7)                  1.5388         estimate D2E/DX2                !
 ! R15   R(6,20)                 1.0915         estimate D2E/DX2                !
 ! R16   R(6,21)                 1.0916         estimate D2E/DX2                !
 ! R17   R(7,8)                  1.5388         estimate D2E/DX2                !
 ! R18   R(7,22)                 1.0917         estimate D2E/DX2                !
 ! R19   R(7,23)                 1.0916         estimate D2E/DX2                !
 ! R20   R(8,9)                  1.5388         estimate D2E/DX2                !
 ! R21   R(8,24)                 1.0917         estimate D2E/DX2                !
 ! R22   R(8,25)                 1.0916         estimate D2E/DX2                !
 ! R23   R(9,10)                 1.5382         estimate D2E/DX2                !
 ! R24   R(9,26)                 1.0916         estimate D2E/DX2                !
 ! R25   R(9,27)                 1.0916         estimate D2E/DX2                !
 ! R26   R(10,11)                1.5351         estimate D2E/DX2                !
 ! R27   R(10,28)                1.0915         estimate D2E/DX2                !
 ! R28   R(10,29)                1.0915         estimate D2E/DX2                !
 ! R29   R(11,30)                1.0907         estimate D2E/DX2                !
 ! R30   R(11,31)                1.0907         estimate D2E/DX2                !
 ! R31   R(11,32)                1.0906         estimate D2E/DX2                !
 ! A1    A(2,1,13)             104.0352         estimate D2E/DX2                !
 ! A2    A(1,2,3)              111.7033         estimate D2E/DX2                !
 ! A3    A(1,2,12)             123.0711         estimate D2E/DX2                !
 ! A4    A(3,2,12)             125.217          estimate D2E/DX2                !
 ! A5    A(2,3,4)              115.6398         estimate D2E/DX2                !
 ! A6    A(2,3,14)             105.908          estimate D2E/DX2                !
 ! A7    A(2,3,15)             108.8125         estimate D2E/DX2                !
 ! A8    A(4,3,14)             109.0972         estimate D2E/DX2                !
 ! A9    A(4,3,15)             110.2577         estimate D2E/DX2                !
 ! A10   A(14,3,15)            106.6852         estimate D2E/DX2                !
 ! A11   A(3,4,5)              114.0843         estimate D2E/DX2                !
 ! A12   A(3,4,16)             108.5367         estimate D2E/DX2                !
 ! A13   A(3,4,17)             109.9143         estimate D2E/DX2                !
 ! A14   A(5,4,16)             108.7052         estimate D2E/DX2                !
 ! A15   A(5,4,17)             109.7813         estimate D2E/DX2                !
 ! A16   A(16,4,17)            105.4442         estimate D2E/DX2                !
 ! A17   A(4,5,6)              112.7351         estimate D2E/DX2                !
 ! A18   A(4,5,18)             109.7206         estimate D2E/DX2                !
 ! A19   A(4,5,19)             109.4831         estimate D2E/DX2                !
 ! A20   A(6,5,18)             109.1123         estimate D2E/DX2                !
 ! A21   A(6,5,19)             109.4513         estimate D2E/DX2                !
 ! A22   A(18,5,19)            106.122          estimate D2E/DX2                !
 ! A23   A(5,6,7)              112.7442         estimate D2E/DX2                !
 ! A24   A(5,6,20)             109.5183         estimate D2E/DX2                !
 ! A25   A(5,6,21)             109.3385         estimate D2E/DX2                !
 ! A26   A(7,6,20)             109.4311         estimate D2E/DX2                !
 ! A27   A(7,6,21)             109.3781         estimate D2E/DX2                !
 ! A28   A(20,6,21)            106.2199         estimate D2E/DX2                !
 ! A29   A(6,7,8)              112.7839         estimate D2E/DX2                !
 ! A30   A(6,7,22)             109.3743         estimate D2E/DX2                !
 ! A31   A(6,7,23)             109.4523         estimate D2E/DX2                !
 ! A32   A(8,7,22)             109.4165         estimate D2E/DX2                !
 ! A33   A(8,7,23)             109.4436         estimate D2E/DX2                !
 ! A34   A(22,7,23)            106.1534         estimate D2E/DX2                !
 ! A35   A(7,8,9)              112.769          estimate D2E/DX2                !
 ! A36   A(7,8,24)             109.4054         estimate D2E/DX2                !
 ! A37   A(7,8,25)             109.4411         estimate D2E/DX2                !
 ! A38   A(9,8,24)             109.4074         estimate D2E/DX2                !
 ! A39   A(9,8,25)             109.4232         estimate D2E/DX2                !
 ! A40   A(24,8,25)            106.1805         estimate D2E/DX2                !
 ! A41   A(8,9,10)             112.7699         estimate D2E/DX2                !
 ! A42   A(8,9,26)             109.417          estimate D2E/DX2                !
 ! A43   A(8,9,27)             109.4431         estimate D2E/DX2                !
 ! A44   A(10,9,26)            109.4097         estimate D2E/DX2                !
 ! A45   A(10,9,27)            109.4226         estimate D2E/DX2                !
 ! A46   A(26,9,27)            106.1631         estimate D2E/DX2                !
 ! A47   A(9,10,11)            112.69           estimate D2E/DX2                !
 ! A48   A(9,10,28)            109.6949         estimate D2E/DX2                !
 ! A49   A(9,10,29)            109.6868         estimate D2E/DX2                !
 ! A50   A(11,10,28)           109.2074         estimate D2E/DX2                !
 ! A51   A(11,10,29)           109.2018         estimate D2E/DX2                !
 ! A52   A(28,10,29)           106.1465         estimate D2E/DX2                !
 ! A53   A(10,11,30)           111.3471         estimate D2E/DX2                !
 ! A54   A(10,11,31)           111.3606         estimate D2E/DX2                !
 ! A55   A(10,11,32)           110.9951         estimate D2E/DX2                !
 ! A56   A(30,11,31)           107.8233         estimate D2E/DX2                !
 ! A57   A(30,11,32)           107.5617         estimate D2E/DX2                !
 ! A58   A(31,11,32)           107.5699         estimate D2E/DX2                !
 ! D1    D(13,1,2,3)          -179.5945         estimate D2E/DX2                !
 ! D2    D(13,1,2,12)           -0.6086         estimate D2E/DX2                !
 ! D3    D(1,2,3,4)           -172.3526         estimate D2E/DX2                !
 ! D4    D(1,2,3,14)            66.7066         estimate D2E/DX2                !
 ! D5    D(1,2,3,15)           -47.6547         estimate D2E/DX2                !
 ! D6    D(12,2,3,4)             8.6876         estimate D2E/DX2                !
 ! D7    D(12,2,3,14)         -112.2533         estimate D2E/DX2                !
 ! D8    D(12,2,3,15)          133.3854         estimate D2E/DX2                !
 ! D9    D(2,3,4,5)             70.029          estimate D2E/DX2                !
 ! D10   D(2,3,4,16)          -168.6132         estimate D2E/DX2                !
 ! D11   D(2,3,4,17)           -53.7654         estimate D2E/DX2                !
 ! D12   D(14,3,4,5)          -170.7673         estimate D2E/DX2                !
 ! D13   D(14,3,4,16)          -49.4095         estimate D2E/DX2                !
 ! D14   D(14,3,4,17)           65.4383         estimate D2E/DX2                !
 ! D15   D(15,3,4,5)           -53.9177         estimate D2E/DX2                !
 ! D16   D(15,3,4,16)           67.4401         estimate D2E/DX2                !
 ! D17   D(15,3,4,17)         -177.7121         estimate D2E/DX2                !
 ! D18   D(3,4,5,6)            177.7829         estimate D2E/DX2                !
 ! D19   D(3,4,5,18)           -60.392          estimate D2E/DX2                !
 ! D20   D(3,4,5,19)            55.6939         estimate D2E/DX2                !
 ! D21   D(16,4,5,6)            56.5185         estimate D2E/DX2                !
 ! D22   D(16,4,5,18)          178.3435         estimate D2E/DX2                !
 ! D23   D(16,4,5,19)          -65.5706         estimate D2E/DX2                !
 ! D24   D(17,4,5,6)           -58.351          estimate D2E/DX2                !
 ! D25   D(17,4,5,18)           63.474          estimate D2E/DX2                !
 ! D26   D(17,4,5,19)          179.5599         estimate D2E/DX2                !
 ! D27   D(4,5,6,7)           -179.9678         estimate D2E/DX2                !
 ! D28   D(4,5,6,20)           -57.8732         estimate D2E/DX2                !
 ! D29   D(4,5,6,21)            58.1338         estimate D2E/DX2                !
 ! D30   D(18,5,6,7)            57.864          estimate D2E/DX2                !
 ! D31   D(18,5,6,20)          179.9586         estimate D2E/DX2                !
 ! D32   D(18,5,6,21)          -64.0344         estimate D2E/DX2                !
 ! D33   D(19,5,6,7)           -57.8609         estimate D2E/DX2                !
 ! D34   D(19,5,6,20)           64.2337         estimate D2E/DX2                !
 ! D35   D(19,5,6,21)         -179.7593         estimate D2E/DX2                !
 ! D36   D(5,6,7,8)           -179.9793         estimate D2E/DX2                !
 ! D37   D(5,6,7,22)           -57.9795         estimate D2E/DX2                !
 ! D38   D(5,6,7,23)            57.9305         estimate D2E/DX2                !
 ! D39   D(20,6,7,8)            57.877          estimate D2E/DX2                !
 ! D40   D(20,6,7,22)          179.8767         estimate D2E/DX2                !
 ! D41   D(20,6,7,23)          -64.2133         estimate D2E/DX2                !
 ! D42   D(21,6,7,8)           -58.1033         estimate D2E/DX2                !
 ! D43   D(21,6,7,22)           63.8965         estimate D2E/DX2                !
 ! D44   D(21,6,7,23)          179.8065         estimate D2E/DX2                !
 ! D45   D(6,7,8,9)            179.9968         estimate D2E/DX2                !
 ! D46   D(6,7,8,24)            57.9965         estimate D2E/DX2                !
 ! D47   D(6,7,8,25)           -57.9573         estimate D2E/DX2                !
 ! D48   D(22,7,8,9)            58.0208         estimate D2E/DX2                !
 ! D49   D(22,7,8,24)          -63.9794         estimate D2E/DX2                !
 ! D50   D(22,7,8,25)         -179.9333         estimate D2E/DX2                !
 ! D51   D(23,7,8,9)           -57.9081         estimate D2E/DX2                !
 ! D52   D(23,7,8,24)         -179.9083         estimate D2E/DX2                !
 ! D53   D(23,7,8,25)           64.1379         estimate D2E/DX2                !
 ! D54   D(7,8,9,10)          -179.9884         estimate D2E/DX2                !
 ! D55   D(7,8,9,26)           -57.9762         estimate D2E/DX2                !
 ! D56   D(7,8,9,27)            57.9643         estimate D2E/DX2                !
 ! D57   D(24,8,9,10)          -57.9892         estimate D2E/DX2                !
 ! D58   D(24,8,9,26)           64.0229         estimate D2E/DX2                !
 ! D59   D(24,8,9,27)          179.9635         estimate D2E/DX2                !
 ! D60   D(25,8,9,10)           57.9556         estimate D2E/DX2                !
 ! D61   D(25,8,9,26)          179.9677         estimate D2E/DX2                !
 ! D62   D(25,8,9,27)          -64.0917         estimate D2E/DX2                !
 ! D63   D(8,9,10,11)          179.9983         estimate D2E/DX2                !
 ! D64   D(8,9,10,28)          -58.1041         estimate D2E/DX2                !
 ! D65   D(8,9,10,29)           58.1136         estimate D2E/DX2                !
 ! D66   D(26,9,10,11)          57.9821         estimate D2E/DX2                !
 ! D67   D(26,9,10,28)         179.8797         estimate D2E/DX2                !
 ! D68   D(26,9,10,29)         -63.9026         estimate D2E/DX2                !
 ! D69   D(27,9,10,11)         -57.9428         estimate D2E/DX2                !
 ! D70   D(27,9,10,28)          63.9548         estimate D2E/DX2                !
 ! D71   D(27,9,10,29)        -179.8275         estimate D2E/DX2                !
 ! D72   D(9,10,11,30)         -60.1888         estimate D2E/DX2                !
 ! D73   D(9,10,11,31)          60.1907         estimate D2E/DX2                !
 ! D74   D(9,10,11,32)        -179.9894         estimate D2E/DX2                !
 ! D75   D(28,10,11,30)        177.6385         estimate D2E/DX2                !
 ! D76   D(28,10,11,31)        -61.9821         estimate D2E/DX2                !
 ! D77   D(28,10,11,32)         57.8379         estimate D2E/DX2                !
 ! D78   D(29,10,11,30)         61.9697         estimate D2E/DX2                !
 ! D79   D(29,10,11,31)       -177.6508         estimate D2E/DX2                !
 ! D80   D(29,10,11,32)        -57.8309         estimate D2E/DX2                !
 --------------------------------------------------------------------------------
 Trust Radius=3.00D-01 FncErr=1.00D-07 GrdErr=1.00D-06 EigMax=2.50D+02 EigMin=1.00D-04
 Number of steps in this run=    179 maximum allowed number of steps=    192.
 GradGradGradGradGradGradGradGradGradGradGradGradGradGradGradGradGradGrad

                          Input orientation:                          
 ---------------------------------------------------------------------
 Center     Atomic      Atomic             Coordinates (Angstroms)
 Number     Number       Type             X           Y           Z
 ---------------------------------------------------------------------
      1          8           0        6.364800   -0.096300    1.254400
      2          6           0        5.213900   -0.196800    0.556600
      3          6           0        4.398800   -1.418400    0.983100
      4          6           0        3.151200   -1.727500    0.117600
      5          6           0        3.479500   -2.239500   -1.299400
      6          6           0        2.220300   -2.588000   -2.112400
      7          6           0        2.547700   -3.099700   -3.526200
      8          6           0        1.289100   -3.448000   -4.340200
      9          6           0        1.616900   -3.959600   -5.754000
     10          6           0        0.358800   -4.307500   -6.567800
     11          6           0        0.687900   -4.817600   -7.977800
     12          8           0        4.876400    0.614200   -0.294400
     13          1           0        6.777500    0.696000    0.908900
     14          1           0        4.082700   -1.223700    2.007400
     15          1           0        5.057800   -2.285700    1.018500
     16          1           0        2.550300   -2.480200    0.631300
     17          1           0        2.514600   -0.841700    0.052500
     18          1           0        4.056100   -1.485800   -1.839000
     19          1           0        4.121600   -3.119200   -1.228900
     20          1           0        1.638900   -3.342100   -1.578900
     21          1           0        1.581500   -1.705800   -2.185400
     22          1           0        3.127300   -2.343900   -4.059700
     23          1           0        3.189300   -3.979900   -3.454700
     24          1           0        0.648700   -2.566900   -4.412700
     25          1           0        0.708600   -4.202900   -3.806500
     26          1           0        2.196900   -3.204400   -6.287800
     27          1           0        2.257800   -4.840300   -5.682200
     28          1           0       -0.223700   -5.064100   -6.039100
     29          1           0       -0.283900   -3.428700   -6.644900
     30          1           0        1.235500   -4.069800   -8.552800
     31          1           0        1.296500   -5.722000   -7.941100
     32          1           0       -0.222200   -5.055400   -8.529600
 ---------------------------------------------------------------------
                    Distance matrix (angstroms):
                    1          2          3          4          5
     1  O    0.000000
     2  C    1.349665   0.000000
     3  C    2.384682   1.529247   0.000000
     4  C    3.778935   2.605858   1.549561   0.000000
     5  C    4.409099   3.259678   2.594056   1.542016   0.000000
     6  C    5.892435   4.669372   3.961811   2.565138   1.538833
     7  C    6.815042   5.674919   5.156271   3.940105   2.562583
     8  C    8.264150   7.067744   6.490534   5.128306   3.937612
     9  C    9.305123   8.180510   7.719144   6.466223   5.125572
    10  C   10.723481   9.551279   9.037953   7.690804   6.463082
    11  C   11.821649  10.708522  10.277308   9.008444   7.683792
    12  O    2.262504   1.223041   2.447769   2.937621   3.332410
    13  H    0.957826   1.834680   3.183458   4.432782   4.936654
    14  H    2.654434   2.106883   1.089503   2.166299   3.511499
    15  H    2.560736   2.145046   1.089836   2.181360   2.804608
    16  H    4.541106   3.509168   2.160587   1.091570   2.156143
    17  H    4.101734   2.820680   2.179176   1.092767   2.170832
    18  H    4.102430   2.956505   2.843631   2.169227   1.091650
    19  H    4.509617   3.594656   2.804016   2.166003   1.091391
    20  H    6.395071   5.218611   4.228654   2.787848   2.163713
    21  H    6.107591   4.794786   4.249608   2.787156   2.161535
    22  H    6.616099   5.502196   5.282338   4.222601   2.784636
    23  H    6.880536   5.873787   5.264812   4.223279   2.785413
    24  H    8.419839   7.152088   6.670604   5.243159   4.220575
    25  H    8.629570   7.441989   6.656672   5.243325   4.221182
    26  H    9.160593   8.061871   7.804111   6.642369   5.240251
    27  H    9.353577   8.320051   7.792272   6.642693   5.240768
    28  H   11.012834   9.836735   9.163511   7.773532   6.645059
    29  H   10.849380   9.619386   9.173624   7.773378   6.644678
    30  H   11.759234  10.668128  10.390851   9.183252   7.810080
    31  H   11.911901  10.866681  10.382032   9.183604   7.810600
    32  H   12.794839  11.649730  11.183598   9.860467   8.596957
                    6          7          8          9         10
     6  C    0.000000
     7  C    1.538785   0.000000
     8  C    2.563167   1.538825   0.000000
     9  C    3.937846   2.562988   1.538837   0.000000
    10  C    5.125666   3.937181   2.562499   1.538220   0.000000
    11  C    6.459279   5.121209   3.933113   2.558220   1.535125
    12  O    4.540273   5.446139   6.763038   7.832702   9.164463
    13  H    6.378164   7.208929   8.651492   9.628117  11.051505
    14  H    4.722563   6.041219   7.283113   8.590963   9.844354
    15  H    4.236192   5.255235   6.653548   7.778720   9.149876
    16  H    2.765576   4.203403   5.219490   6.620568   7.743948
    17  H    2.796957   4.231637   5.252662   6.651512   7.777378
    18  H    2.158646   2.779674   4.214560   5.234177   6.632765
    19  H    2.162796   2.784803   4.220350   5.239878   6.638868
    20  H    1.091474   2.162557   2.785382   4.220575   5.240208
    21  H    1.091637   2.162000   2.786381   4.220874   5.241113
    22  H    2.161992   1.091692   2.162567   2.786117   4.220294
    23  H    2.162895   1.091565   2.162819   2.785612   4.220242
    24  H    2.785992   2.162397   1.091653   2.162432   2.785352
    25  H    2.786236   2.162847   1.091646   2.162628   2.785333
    26  H    4.220718   2.785760   2.162542   1.091636   2.161907
    27  H    4.221106   2.786049   2.162832   1.091577   2.162028
    28  H    5.246254   4.225422   2.790449   2.165412   1.091455
    29  H    5.246080   4.225221   2.790402   2.165317   1.091466
    30  H    6.681640   5.284853   4.258580   2.826816   2.182963
    31  H    6.681999   5.285196   4.258827   2.827033   2.183127
    32  H    7.296186   6.044098   4.734853   3.505285   2.178434
                   11         12         13         14         15
    11  C    0.000000
    12  O   10.299642   0.000000
    13  H   12.101919   2.251400   0.000000
    14  H   11.142038   3.050593   3.486244   0.000000
    15  H   10.316974   3.188422   3.443823   1.748310   0.000000
    16  H    9.113099   3.980323   5.294764   2.412611   2.544663
    17  H    9.144962   2.796084   4.611969   2.535053   3.079961
    18  H    7.754388   2.732889   4.440408   3.855411   3.131860
    19  H    7.760316   3.921899   5.116615   3.750743   2.573325
    20  H    6.635316   5.271020   6.992897   4.829216   4.421690
    21  H    6.635791   4.451365   6.507054   4.905914   4.762974
    22  H    5.236542   5.097763   6.874005   6.243183   5.433078
    23  H    5.236141   5.825767   7.333500   6.182988   5.135282
    24  H    4.216293   6.704718   8.748036   7.403663   7.001226
    25  H    4.216400   7.273916   9.114042   7.352661   6.772874
    26  H    2.781294   7.594884   9.380166   8.734401   7.900049
    27  H    2.781165   8.101668   9.722186   8.691375   7.698400
    28  H    2.156463   9.552784  11.422358   9.901511   9.242482
    29  H    2.156400   9.127025  11.132673   9.939392   9.411052
    30  H    1.090732  10.168440  11.956186  11.301533  10.459578
    31  H    1.090725  10.556284  12.229251  11.268108  10.306792
    32  H    1.090557  11.223128  13.082801  12.010098  11.256814
                   16         17         18         19         20
    16  H    0.000000
    17  H    1.738093   0.000000
    18  H    3.059191   2.523660   0.000000
    19  H    2.517469   3.067807   1.744852   0.000000
    20  H    2.541359   3.111321   3.058816   2.517138   0.000000
    21  H    3.077672   2.574013   2.508394   3.060180   1.746028
    22  H    4.728318   4.420655   2.555487   3.098895   3.060410
    23  H    4.399184   4.754363   3.095539   2.562064   2.515781
    24  H    5.391246   5.137695   4.404893   4.743696   3.100299
    25  H    5.104275   5.426894   4.739140   4.412142   2.562935
    26  H    6.965867   6.773676   5.118792   5.413335   4.743845
    27  H    6.746548   6.995822   5.408950   5.125214   4.411883
    28  H    7.672408   7.901553   6.982962   6.767739   5.131077
    29  H    7.866094   7.705799   6.760705   6.988367   5.419319
    30  H    9.412928   9.279435   7.727092   7.929232   7.023358
    31  H    9.250261   9.444508   7.924418   7.733653   6.801379
    32  H    9.911635   9.944736   8.706895   8.713076   7.396710
                   21         22         23         24         25
    21  H    0.000000
    22  H    2.511906   0.000000
    23  H    3.060666   1.745384   0.000000
    24  H    2.563684   2.513523   3.060879   0.000000
    25  H    3.102487   3.061062   2.515425   1.745727   0.000000
    26  H    4.410692   2.563305   3.100438   2.513828   3.060864
    27  H    4.744479   3.101701   2.563150   3.060912   2.514866
    28  H    5.421064   4.748338   4.416241   3.105200   2.568142
    29  H    5.131787   4.415465   4.748085   2.568104   3.104989
    30  H    6.800882   5.171613   5.460407   4.443363   4.777311
    31  H    7.024185   5.461562   5.171594   4.777437   4.443896
    32  H    7.397434   6.208976   6.208836   4.888759   4.888846
                   26         27         28         29         30
    26  H    0.000000
    27  H    1.745460   0.000000
    28  H    3.062620   2.517003   0.000000
    29  H    2.516386   3.062621   1.745036   0.000000
    30  H    2.608339   3.143105   3.071902   2.521838   0.000000
    31  H    3.143633   2.608471   2.522190   3.071974   1.762856
    32  H    3.782051   3.782110   2.490516   2.490392   1.759783
                   31         32
    31  H    0.000000
    32  H    1.759869   0.000000
 Stoichiometry    C10H20O2
 Framework group  C1[X(C10H20O2)]
 Deg. of freedom    90
 Full point group                 C1      NOp   1
 Largest Abelian subgroup         C1      NOp   1
 Largest concise Abelian subgroup C1      NOp   1
                         Standard orientation:                         
 ---------------------------------------------------------------------
 Center     Atomic      Atomic             Coordinates (Angstroms)
 Number     Number       Type             X           Y           Z
 ---------------------------------------------------------------------
      1          8           0       -5.419776   -0.870636   -0.581032
      2          6           0       -4.304837   -0.527492    0.097760
      3          6           0       -3.756964    0.824480   -0.361156
      4          6           0       -2.378914    1.223289    0.224564
      5          6           0       -1.201338    0.382703   -0.308863
      6          6           0        0.157252    0.839749    0.250913
      7          6           0        1.332599    0.001564   -0.281876
      8          6           0        2.691617    0.457519    0.277729
      9          6           0        3.866740   -0.380965   -0.255233
     10          6           0        5.225206    0.074610    0.304359
     11          6           0        6.396123   -0.763056   -0.228442
     12          8           0       -3.821895   -1.220830    0.981998
     13          1           0       -5.668136   -1.716805   -0.207205
     14          1           0       -4.498866    1.564314   -0.062418
     15          1           0       -3.722312    0.838241   -1.450355
     16          1           0       -2.193428    2.273377   -0.008755
     17          1           0       -2.408194    1.168369    1.315557
     18          1           0       -1.355819   -0.668495   -0.058232
     19          1           0       -1.181361    0.434615   -1.398836
     20          1           0        0.318880    1.890402    0.003286
     21          1           0        0.136687    0.783036    1.340881
     22          1           0        1.171080   -1.048753   -0.031798
     23          1           0        1.352228    0.054643   -1.371973
     24          1           0        2.671850    0.402642    1.367822
     25          1           0        2.853013    1.508104    0.028906
     26          1           0        3.705525   -1.431437   -0.005858
     27          1           0        3.886662   -0.327024   -1.345294
     28          1           0        5.392152    1.124172    0.055718
     29          1           0        5.211063    0.019429    1.394337
     30          1           0        6.285141   -1.815016    0.037562
     31          1           0        6.468261   -0.699238   -1.314906
     32          1           0        7.344042   -0.417256    0.185305
 ---------------------------------------------------------------------
 Rotational constants (GHZ):           3.1253673           0.1906217           0.1857828
 Standard basis: 6-31G(d,p) (6D, 7F)
 There are   280 symmetry adapted cartesian basis functions of A   symmetry.
 There are   280 symmetry adapted basis functions of A   symmetry.
   280 basis functions,   476 primitive gaussians,   280 cartesian basis functions
    48 alpha electrons       48 beta electrons
       nuclear repulsion energy       675.3292878618 Hartrees.
 NAtoms=   32 NActive=   32 NUniq=   32 SFac= 1.00D+00 NAtFMM=   60 NAOKFM=F Big=F
 Integral buffers will be    131072 words long.
 Raffenetti 2 integral format.
 Two-electron integral symmetry is turned on.
 Nuclear repulsion after empirical dispersion term =      675.2840116651 Hartrees.
 One-electron integrals computed using PRISM.
 NBasis=   280 RedAO= T EigKep=  2.49D-03  NBF=   280
 NBsUse=   280 1.00D-06 EigRej= -1.00D+00 NBFU=   280
 ExpMin= 1.61D-01 ExpMax= 5.48D+03 ExpMxC= 8.25D+02 IAcc=3 IRadAn=         5 AccDes= 0.00D+00
 Harris functional with IExCor=  402 and IRadAn=       5 diagonalized for initial guess.
 HarFok:  IExCor=  402 AccDes= 0.00D+00 IRadAn=         5 IDoV= 1 UseB2=F ITyADJ=14
 ICtDFT=  3500011 ScaDFX=  1.000000  1.000000  1.000000  1.000000
 FoFCou: FMM=F IPFlag=           0 FMFlag=      100000 FMFlg1=           0
         NFxFlg=           0 DoJE=T BraDBF=F KetDBF=T FulRan=T
         wScrn=  0.000000 ICntrl=       500 IOpCl=  0 I1Cent=   200000004 NGrid=           0
         NMat0=    1 NMatS0=      1 NMatT0=    0 NMatD0=    1 NMtDS0=    0 NMtDT0=    0
 Petite list used in FoFCou.
 Requested convergence on RMS density matrix=1.00D-08 within 128 cycles.
 Requested convergence on MAX density matrix=1.00D-06.
 Requested convergence on             energy=1.00D-06.
 No special actions if energy rises.
 Integral accuracy reduced to 1.0D-05 until final iterations.
 Initial convergence to 1.0D-05 achieved.  Increase integral accuracy.
 SCF Done:  E(RB3LYP) =  -543.667774150     A.U. after   13 cycles
            NFock= 13  Conv=0.47D-08     -V/T= 2.0096

 **********************************************************************

            Population analysis using the SCF Density.

 **********************************************************************

 Orbital symmetries:
       Occupied  (A) (A) (A) (A) (A) (A) (A) (A) (A) (A) (A) (A)
                 (A) (A) (A) (A) (A) (A) (A) (A) (A) (A) (A) (A)
                 (A) (A) (A) (A) (A) (A) (A) (A) (A) (A) (A) (A)
                 (A) (A) (A) (A) (A) (A) (A) (A) (A) (A) (A) (A)
       Virtual   (A) (A) (A) (A) (A) (A) (A) (A) (A) (A) (A) (A)
                 (A) (A) (A) (A) (A) (A) (A) (A) (A) (A) (A) (A)
                 (A) (A) (A) (A) (A) (A) (A) (A) (A) (A) (A) (A)
                 (A) (A) (A) (A) (A) (A) (A) (A) (A) (A) (A) (A)
                 (A) (A) (A) (A) (A) (A) (A) (A) (A) (A) (A) (A)
                 (A) (A) (A) (A) (A) (A) (A) (A) (A) (A) (A) (A)
                 (A) (A) (A) (A) (A) (A) (A) (A) (A) (A) (A) (A)
                 (A) (A) (A) (A) (A) (A) (A) (A) (A) (A) (A) (A)
                 (A) (A) (A) (A) (A) (A) (A) (A) (A) (A) (A) (A)
                 (A) (A) (A) (A) (A) (A) (A) (A) (A) (A) (A) (A)
                 (A) (A) (A) (A) (A) (A) (A) (A) (A) (A) (A) (A)
                 (A) (A) (A) (A) (A) (A) (A) (A) (A) (A) (A) (A)
                 (A) (A) (A) (A) (A) (A) (A) (A) (A) (A) (A) (A)
                 (A) (A) (A) (A) (A) (A) (A) (A) (A) (A) (A) (A)
                 (A) (A) (A) (A) (A) (A) (A) (A) (A) (A) (A) (A)
                 (A) (A) (A) (A) (A) (A) (A) (A) (A) (A) (A) (A)
                 (A) (A) (A) (A) (A) (A) (A) (A) (A) (A) (A) (A)
                 (A) (A) (A) (A) (A) (A) (A) (A) (A) (A) (A) (A)
                 (A) (A) (A) (A) (A) (A) (A) (A) (A) (A) (A) (A)
                 (A) (A) (A) (A)
 The electronic state is 1-A.
 Alpha  occ. eigenvalues --  -19.19942 -19.13914 -10.32240 -10.20133 -10.18479
 Alpha  occ. eigenvalues --  -10.17396 -10.17365 -10.17290 -10.17198 -10.17168
 Alpha  occ. eigenvalues --  -10.17147 -10.16757  -1.10888  -1.01186  -0.80806
 Alpha  occ. eigenvalues --   -0.79306  -0.76623  -0.72925  -0.68577  -0.64199
 Alpha  occ. eigenvalues --   -0.60294  -0.57486  -0.57340  -0.56789  -0.49551
 Alpha  occ. eigenvalues --   -0.48277  -0.47462  -0.47043  -0.45308  -0.42639
 Alpha  occ. eigenvalues --   -0.42457  -0.41570  -0.40119  -0.39749  -0.39433
 Alpha  occ. eigenvalues --   -0.37698  -0.36968  -0.35025  -0.34690  -0.33967
 Alpha  occ. eigenvalues --   -0.33008  -0.32781  -0.32152  -0.31954  -0.31750
 Alpha  occ. eigenvalues --   -0.31472  -0.29153  -0.27304
 Alpha virt. eigenvalues --    0.00914   0.08242   0.09208   0.09774   0.10784
 Alpha virt. eigenvalues --    0.11996   0.12792   0.13127   0.14372   0.15136
 Alpha virt. eigenvalues --    0.16305   0.16951   0.17682   0.17990   0.19532
 Alpha virt. eigenvalues --    0.19912   0.20065   0.20400   0.20720   0.21113
 Alpha virt. eigenvalues --    0.21367   0.21556   0.22365   0.23226   0.23639
 Alpha virt. eigenvalues --    0.25449   0.26218   0.27206   0.29947   0.31103
 Alpha virt. eigenvalues --    0.31929   0.36822   0.47215   0.49173   0.50033
 Alpha virt. eigenvalues --    0.51953   0.54368   0.54690   0.55073   0.55916
 Alpha virt. eigenvalues --    0.56242   0.57529   0.58767   0.59286   0.61179
 Alpha virt. eigenvalues --    0.62453   0.64410   0.66033   0.66542   0.68080
 Alpha virt. eigenvalues --    0.69214   0.70024   0.71632   0.73185   0.73967
 Alpha virt. eigenvalues --    0.75786   0.77631   0.79486   0.79954   0.81035
 Alpha virt. eigenvalues --    0.81310   0.82927   0.84543   0.85455   0.86481
 Alpha virt. eigenvalues --    0.87671   0.88514   0.89082   0.90483   0.91176
 Alpha virt. eigenvalues --    0.91592   0.91719   0.93136   0.93376   0.93804
 Alpha virt. eigenvalues --    0.94072   0.94413   0.95003   0.96122   0.96384
 Alpha virt. eigenvalues --    0.96569   0.97653   0.97985   1.00592   1.02636
 Alpha virt. eigenvalues --    1.04546   1.09715   1.12102   1.16201   1.20290
 Alpha virt. eigenvalues --    1.25025   1.27990   1.30184   1.32975   1.34521
 Alpha virt. eigenvalues --    1.38252   1.39678   1.40448   1.45335   1.47389
 Alpha virt. eigenvalues --    1.50135   1.52374   1.53808   1.55706   1.56816
 Alpha virt. eigenvalues --    1.59946   1.61262   1.63950   1.67683   1.68744
 Alpha virt. eigenvalues --    1.69623   1.70889   1.71071   1.71615   1.71748
 Alpha virt. eigenvalues --    1.74316   1.76875   1.79822   1.83310   1.85148
 Alpha virt. eigenvalues --    1.86059   1.86467   1.87199   1.87957   1.88238
 Alpha virt. eigenvalues --    1.88563   1.90847   1.92635   1.94798   1.94932
 Alpha virt. eigenvalues --    1.99716   2.02797   2.05789   2.07010   2.07729
 Alpha virt. eigenvalues --    2.08865   2.09265   2.11190   2.12461   2.13987
 Alpha virt. eigenvalues --    2.14146   2.15128   2.17274   2.18258   2.21809
 Alpha virt. eigenvalues --    2.23178   2.23497   2.24288   2.24639   2.26374
 Alpha virt. eigenvalues --    2.27972   2.29113   2.30828   2.31731   2.32797
 Alpha virt. eigenvalues --    2.34096   2.38625   2.38900   2.40480   2.42136
 Alpha virt. eigenvalues --    2.43416   2.43985   2.45506   2.47472   2.48322
 Alpha virt. eigenvalues --    2.49613   2.53174   2.55550   2.56704   2.58806
 Alpha virt. eigenvalues --    2.59591   2.63901   2.66849   2.67110   2.68315
 Alpha virt. eigenvalues --    2.68657   2.71163   2.72350   2.72838   2.75730
 Alpha virt. eigenvalues --    2.76749   2.78943   2.81750   2.82882   2.84198
 Alpha virt. eigenvalues --    2.86899   2.87745   2.89261   2.90380   2.91311
 Alpha virt. eigenvalues --    2.91820   2.92195   2.92936   2.93611   2.93969
 Alpha virt. eigenvalues --    2.95717   2.96234   2.97430   3.01671   3.15412
 Alpha virt. eigenvalues --    3.20128   3.24949   3.27387   3.29385   3.30646
 Alpha virt. eigenvalues --    3.31731   3.32818   3.34741   3.35943   3.39144
 Alpha virt. eigenvalues --    3.41697   3.45159   3.45736   3.47181   3.49635
 Alpha virt. eigenvalues --    3.52051   3.56528   3.59300   3.60322   3.60607
 Alpha virt. eigenvalues --    3.93038   4.15472   4.24104   4.26909   4.32472
 Alpha virt. eigenvalues --    4.40361   4.48101   4.55017   4.61254   4.64833
 Alpha virt. eigenvalues --    4.71154   4.79441
          Condensed to atoms (all electrons):
               1          2          3          4          5          6
     1  O    8.113194   0.257445  -0.094359   0.002561  -0.000049  -0.000000
     2  C    0.257445   4.379009   0.325345  -0.033460  -0.002993   0.000042
     3  C   -0.094359   0.325345   5.148192   0.334537  -0.034651   0.003238
     4  C    0.002561  -0.033460   0.334537   4.915778   0.371078  -0.033108
     5  C   -0.000049  -0.002993  -0.034651   0.371078   4.911097   0.370665
     6  C   -0.000000   0.000042   0.003238  -0.033108   0.370665   4.899012
     7  C   -0.000000  -0.000001  -0.000116   0.003286  -0.034304   0.368824
     8  C   -0.000000   0.000000   0.000001  -0.000116   0.003370  -0.034128
     9  C   -0.000000  -0.000000  -0.000000   0.000001  -0.000119   0.003389
    10  C    0.000000   0.000000   0.000000  -0.000000   0.000001  -0.000119
    11  C    0.000000  -0.000000  -0.000000   0.000000  -0.000000   0.000001
    12  O   -0.080117   0.565886  -0.085062   0.004993  -0.003996   0.000021
    13  H    0.267675  -0.009258   0.011217  -0.000319   0.000010  -0.000000
    14  H    0.001777  -0.026261   0.363949  -0.026883   0.003612  -0.000107
    15  H    0.002868  -0.025883   0.365315  -0.035286  -0.005328  -0.000012
    16  H   -0.000047   0.004658  -0.029987   0.372380  -0.040109  -0.004062
    17  H    0.000107  -0.006085  -0.035483   0.382717  -0.034106  -0.003920
    18  H   -0.000037   0.004179  -0.005611  -0.036732   0.383505  -0.034413
    19  H   -0.000001  -0.000408  -0.003734  -0.041954   0.378396  -0.038172
    20  H   -0.000000  -0.000001   0.000027  -0.003725  -0.039997   0.381302
    21  H   -0.000000  -0.000011   0.000085  -0.003680  -0.039564   0.384450
    22  H   -0.000000  -0.000002   0.000004   0.000052  -0.003479  -0.038616
    23  H   -0.000000   0.000000   0.000002   0.000053  -0.004034  -0.038920
    24  H    0.000000   0.000000   0.000000   0.000002   0.000051  -0.003806
    25  H    0.000000  -0.000000   0.000000   0.000002   0.000048  -0.003862
    26  H    0.000000  -0.000000   0.000000   0.000000   0.000001   0.000056
    27  H    0.000000  -0.000000   0.000000   0.000000   0.000002   0.000055
    28  H   -0.000000   0.000000  -0.000000   0.000000   0.000000   0.000002
    29  H    0.000000  -0.000000  -0.000000   0.000000   0.000000   0.000002
    30  H    0.000000   0.000000  -0.000000  -0.000000   0.000000   0.000000
    31  H    0.000000  -0.000000  -0.000000  -0.000000   0.000000   0.000000
    32  H    0.000000   0.000000   0.000000  -0.000000   0.000000  -0.000000
               7          8          9         10         11         12
     1  O   -0.000000  -0.000000  -0.000000   0.000000   0.000000  -0.080117
     2  C   -0.000001   0.000000  -0.000000   0.000000  -0.000000   0.565886
     3  C   -0.000116   0.000001  -0.000000   0.000000  -0.000000  -0.085062
     4  C    0.003286  -0.000116   0.000001  -0.000000   0.000000   0.004993
     5  C   -0.034304   0.003370  -0.000119   0.000001  -0.000000  -0.003996
     6  C    0.368824  -0.034128   0.003389  -0.000119   0.000001   0.000021
     7  C    4.908559   0.367285  -0.034274   0.003438  -0.000130   0.000001
     8  C    0.367285   4.905244   0.370596  -0.034542   0.003635  -0.000000
     9  C   -0.034274   0.370596   4.893993   0.378469  -0.041520  -0.000000
    10  C    0.003438  -0.034542   0.378469   4.873077   0.365983  -0.000000
    11  C   -0.000130   0.003635  -0.041520   0.365983   4.921787   0.000000
    12  O    0.000001  -0.000000  -0.000000  -0.000000   0.000000   8.044212
    13  H    0.000000  -0.000000   0.000000  -0.000000   0.000000   0.011369
    14  H    0.000001  -0.000000   0.000000  -0.000000   0.000000   0.000562
    15  H    0.000000   0.000000   0.000000   0.000000  -0.000000   0.001881
    16  H    0.000022   0.000002   0.000000   0.000000   0.000000   0.000244
    17  H    0.000051   0.000001   0.000000   0.000000  -0.000000   0.005159
    18  H   -0.003639   0.000057   0.000002   0.000000   0.000000   0.006963
    19  H   -0.003830   0.000058   0.000001   0.000000   0.000000   0.000119
    20  H   -0.038772  -0.003792   0.000052   0.000002   0.000000  -0.000002
    21  H   -0.038204  -0.003748   0.000047   0.000002   0.000000   0.000011
    22  H    0.383205  -0.038439  -0.003826   0.000045   0.000002  -0.000003
    23  H    0.381901  -0.038867  -0.003863   0.000046   0.000002   0.000000
    24  H   -0.038740   0.382752  -0.038722  -0.003887   0.000047   0.000000
    25  H   -0.038927   0.382119  -0.038927  -0.003905   0.000047   0.000000
    26  H   -0.003796  -0.038617   0.383093  -0.039795  -0.003249   0.000000
    27  H   -0.003852  -0.038743   0.382676  -0.039916  -0.003256   0.000000
    28  H    0.000050  -0.003911  -0.039075   0.386177  -0.038607   0.000000
    29  H    0.000050  -0.003893  -0.038992   0.386423  -0.038533  -0.000000
    30  H    0.000001   0.000054  -0.004916  -0.034492   0.387385  -0.000000
    31  H    0.000001   0.000054  -0.004932  -0.034526   0.387219   0.000000
    32  H    0.000001  -0.000147   0.004083  -0.026864   0.378189  -0.000000
              13         14         15         16         17         18
     1  O    0.267675   0.001777   0.002868  -0.000047   0.000107  -0.000037
     2  C   -0.009258  -0.026261  -0.025883   0.004658  -0.006085   0.004179
     3  C    0.011217   0.363949   0.365315  -0.029987  -0.035483  -0.005611
     4  C   -0.000319  -0.026883  -0.035286   0.372380   0.382717  -0.036732
     5  C    0.000010   0.003612  -0.005328  -0.040109  -0.034106   0.383505
     6  C   -0.000000  -0.000107  -0.000012  -0.004062  -0.003920  -0.034413
     7  C    0.000000   0.000001   0.000000   0.000022   0.000051  -0.003639
     8  C   -0.000000  -0.000000   0.000000   0.000002   0.000001   0.000057
     9  C    0.000000   0.000000   0.000000   0.000000   0.000000   0.000002
    10  C   -0.000000  -0.000000   0.000000   0.000000   0.000000   0.000000
    11  C    0.000000   0.000000  -0.000000   0.000000  -0.000000   0.000000
    12  O    0.011369   0.000562   0.001881   0.000244   0.005159   0.006963
    13  H    0.401071  -0.000378  -0.000393   0.000004  -0.000011   0.000002
    14  H   -0.000378   0.581784  -0.027395  -0.004096  -0.001594   0.000073
    15  H   -0.000393  -0.027395   0.586174  -0.002227   0.005203  -0.000443
    16  H    0.000004  -0.004096  -0.002227   0.647716  -0.039919   0.005969
    17  H   -0.000011  -0.001594   0.005203  -0.039919   0.611519  -0.005721
    18  H    0.000002   0.000073  -0.000443   0.005969  -0.005721   0.608177
    19  H   -0.000001   0.000037   0.005210  -0.005708   0.005893  -0.040755
    20  H    0.000000  -0.000001   0.000003   0.005189  -0.000553   0.005737
    21  H   -0.000000   0.000004   0.000008  -0.000561   0.004735  -0.005786
    22  H   -0.000000  -0.000000   0.000001   0.000007   0.000002   0.004803
    23  H    0.000000   0.000000  -0.000001   0.000003   0.000006  -0.000536
    24  H   -0.000000   0.000000  -0.000000   0.000001  -0.000002   0.000003
    25  H   -0.000000   0.000000   0.000000  -0.000002   0.000001   0.000006
    26  H   -0.000000   0.000000   0.000000  -0.000000   0.000000  -0.000002
    27  H   -0.000000   0.000000  -0.000000   0.000000  -0.000000   0.000001
    28  H    0.000000  -0.000000  -0.000000  -0.000000   0.000000  -0.000000
    29  H   -0.000000  -0.000000   0.000000   0.000000  -0.000000   0.000000
    30  H    0.000000   0.000000  -0.000000   0.000000  -0.000000  -0.000000
    31  H    0.000000   0.000000   0.000000  -0.000000   0.000000   0.000000
    32  H    0.000000  -0.000000   0.000000  -0.000000  -0.000000   0.000000
              19         20         21         22         23         24
     1  O   -0.000001  -0.000000  -0.000000  -0.000000  -0.000000   0.000000
     2  C   -0.000408  -0.000001  -0.000011  -0.000002   0.000000   0.000000
     3  C   -0.003734   0.000027   0.000085   0.000004   0.000002   0.000000
     4  C   -0.041954  -0.003725  -0.003680   0.000052   0.000053   0.000002
     5  C    0.378396  -0.039997  -0.039564  -0.003479  -0.004034   0.000051
     6  C   -0.038172   0.381302   0.384450  -0.038616  -0.038920  -0.003806
     7  C   -0.003830  -0.038772  -0.038204   0.383205   0.381901  -0.038740
     8  C    0.000058  -0.003792  -0.003748  -0.038439  -0.038867   0.382752
     9  C    0.000001   0.000052   0.000047  -0.003826  -0.003863  -0.038722
    10  C    0.000000   0.000002   0.000002   0.000045   0.000046  -0.003887
    11  C    0.000000   0.000000   0.000000   0.000002   0.000002   0.000047
    12  O    0.000119  -0.000002   0.000011  -0.000003   0.000000   0.000000
    13  H   -0.000001   0.000000  -0.000000  -0.000000   0.000000  -0.000000
    14  H    0.000037  -0.000001   0.000004  -0.000000   0.000000   0.000000
    15  H    0.005210   0.000003   0.000008   0.000001  -0.000001  -0.000000
    16  H   -0.005708   0.005189  -0.000561   0.000007   0.000003   0.000001
    17  H    0.005893  -0.000553   0.004735   0.000002   0.000006  -0.000002
    18  H   -0.040755   0.005737  -0.005786   0.004803  -0.000536   0.000003
    19  H    0.657061  -0.006154   0.006134  -0.000600   0.004986   0.000006
    20  H   -0.006154   0.652532  -0.042393   0.006139  -0.005985  -0.000547
    21  H    0.006134  -0.042393   0.639921  -0.006056   0.006062   0.004937
    22  H   -0.000600   0.006139  -0.006056   0.641798  -0.042004  -0.005996
    23  H    0.004986  -0.005985   0.006062  -0.042004   0.649167   0.006116
    24  H    0.000006  -0.000547   0.004937  -0.005996   0.006116   0.645697
    25  H    0.000004   0.004987  -0.000539   0.006073  -0.005997  -0.042161
    26  H    0.000001   0.000006   0.000004   0.004941  -0.000550  -0.006017
    27  H   -0.000002   0.000004   0.000006  -0.000544   0.004987   0.006117
    28  H    0.000000  -0.000002   0.000001   0.000006   0.000003  -0.000553
    29  H   -0.000000   0.000001  -0.000002   0.000003   0.000006   0.005012
    30  H    0.000000  -0.000000   0.000000  -0.000001   0.000000   0.000001
    31  H   -0.000000   0.000000  -0.000000   0.000000  -0.000001   0.000007
    32  H    0.000000   0.000000   0.000000   0.000000   0.000000   0.000002
              25         26         27         28         29         30
     1  O    0.000000   0.000000   0.000000  -0.000000   0.000000   0.000000
     2  C   -0.000000  -0.000000  -0.000000   0.000000  -0.000000   0.000000
     3  C    0.000000   0.000000   0.000000  -0.000000  -0.000000  -0.000000
     4  C    0.000002   0.000000   0.000000   0.000000   0.000000  -0.000000
     5  C    0.000048   0.000001   0.000002   0.000000   0.000000   0.000000
     6  C   -0.003862   0.000056   0.000055   0.000002   0.000002   0.000000
     7  C   -0.038927  -0.003796  -0.003852   0.000050   0.000050   0.000001
     8  C    0.382119  -0.038617  -0.038743  -0.003911  -0.003893   0.000054
     9  C   -0.038927   0.383093   0.382676  -0.039075  -0.038992  -0.004916
    10  C   -0.003905  -0.039795  -0.039916   0.386177   0.386423  -0.034492
    11  C    0.000047  -0.003249  -0.003256  -0.038607  -0.038533   0.387385
    12  O    0.000000   0.000000   0.000000   0.000000  -0.000000  -0.000000
    13  H   -0.000000  -0.000000  -0.000000   0.000000  -0.000000   0.000000
    14  H    0.000000   0.000000   0.000000  -0.000000  -0.000000   0.000000
    15  H    0.000000   0.000000  -0.000000  -0.000000   0.000000  -0.000000
    16  H   -0.000002  -0.000000   0.000000  -0.000000   0.000000   0.000000
    17  H    0.000001   0.000000  -0.000000   0.000000  -0.000000  -0.000000
    18  H    0.000006  -0.000002   0.000001  -0.000000   0.000000  -0.000000
    19  H    0.000004   0.000001  -0.000002   0.000000  -0.000000   0.000000
    20  H    0.004987   0.000006   0.000004  -0.000002   0.000001  -0.000000
    21  H   -0.000539   0.000004   0.000006   0.000001  -0.000002   0.000000
    22  H    0.006073   0.004941  -0.000544   0.000006   0.000003  -0.000001
    23  H   -0.005997  -0.000550   0.004987   0.000003   0.000006   0.000000
    24  H   -0.042161  -0.006017   0.006117  -0.000553   0.005012   0.000001
    25  H    0.648814   0.006129  -0.006014   0.005033  -0.000555   0.000007
    26  H    0.006129   0.646551  -0.042329   0.006124  -0.006045   0.004807
    27  H   -0.006014  -0.042329   0.648672  -0.006045   0.006131  -0.000484
    28  H    0.005033   0.006124  -0.006045   0.643409  -0.041378   0.005508
    29  H   -0.000555  -0.006045   0.006131  -0.041378   0.642175  -0.005038
    30  H    0.000007   0.004807  -0.000484   0.005508  -0.005038   0.611573
    31  H    0.000001  -0.000483   0.004820  -0.005040   0.005505  -0.033836
    32  H    0.000002  -0.000020  -0.000021  -0.003101  -0.003099  -0.032610
              31         32
     1  O    0.000000   0.000000
     2  C   -0.000000   0.000000
     3  C   -0.000000   0.000000
     4  C   -0.000000  -0.000000
     5  C    0.000000   0.000000
     6  C    0.000000  -0.000000
     7  C    0.000001   0.000001
     8  C    0.000054  -0.000147
     9  C   -0.004932   0.004083
    10  C   -0.034526  -0.026864
    11  C    0.387219   0.378189
    12  O    0.000000  -0.000000
    13  H    0.000000   0.000000
    14  H    0.000000  -0.000000
    15  H    0.000000   0.000000
    16  H   -0.000000  -0.000000
    17  H    0.000000  -0.000000
    18  H    0.000000   0.000000
    19  H   -0.000000   0.000000
    20  H    0.000000   0.000000
    21  H   -0.000000   0.000000
    22  H    0.000000   0.000000
    23  H   -0.000001   0.000000
    24  H    0.000007   0.000002
    25  H    0.000001   0.000002
    26  H   -0.000483  -0.000020
    27  H    0.004820  -0.000021
    28  H   -0.005040  -0.003101
    29  H    0.005505  -0.003099
    30  H   -0.033836  -0.032610
    31  H    0.612442  -0.032662
    32  H   -0.032662   0.618248
 Mulliken charges:
               1
     1  O   -0.471018
     2  C    0.567800
     3  C   -0.262909
     4  C   -0.172176
     5  C   -0.179108
     6  C   -0.177814
     7  C   -0.178091
     8  C   -0.176284
     9  C   -0.167236
    10  C   -0.175616
    11  C   -0.319000
    12  O   -0.472241
    13  H    0.319012
    14  H    0.134917
    15  H    0.130307
    16  H    0.090525
    17  H    0.112002
    18  H    0.114200
    19  H    0.083413
    20  H    0.085945
    21  H    0.094139
    22  H    0.092486
    23  H    0.087421
    24  H    0.089682
    25  H    0.087617
    26  H    0.089191
    27  H    0.087736
    28  H    0.091399
    29  H    0.092228
    30  H    0.102043
    31  H    0.101431
    32  H    0.098000
 Sum of Mulliken charges =  -0.00000
 Mulliken charges with hydrogens summed into heavy atoms:
               1
     1  O   -0.152006
     2  C    0.567800
     3  C    0.002315
     4  C    0.030351
     5  C    0.018504
     6  C    0.002271
     7  C    0.001816
     8  C    0.001015
     9  C    0.009691
    10  C    0.008010
    11  C   -0.017527
    12  O   -0.472241
 Electronic spatial extent (au):  <R**2>=           5758.5257
 Charge=             -0.0000 electrons
 Dipole moment (field-independent basis, Debye):
    X=             -0.6308    Y=              0.7255    Z=             -0.9717  Tot=              1.3669
 Quadrupole moment (field-independent basis, Debye-Ang):
   XX=            -70.7285   YY=            -74.2596   ZZ=            -78.2126
   XY=              0.6560   XZ=              2.4632   YZ=              1.5169
 Traceless Quadrupole moment (field-independent basis, Debye-Ang):
   XX=              3.6717   YY=              0.1406   ZZ=             -3.8124
   XY=              0.6560   XZ=              2.4632   YZ=              1.5169
 Octapole moment (field-independent basis, Debye-Ang**2):
  XXX=            -99.4649  YYY=            -12.8755  ZZZ=             -0.6859  XYY=            -30.3048
  XXY=            -20.1166  XXZ=              2.4167  XZZ=             -3.5514  YZZ=              0.8313
  YYZ=             -3.1094  XYZ=             -8.5089
 Hexadecapole moment (field-independent basis, Debye-Ang**3):
 XXXX=          -6666.8577 YYYY=           -386.1828 ZZZZ=           -212.3736 XXXY=            252.3296
 XXXZ=            -38.4353 YYYX=             72.6059 YYYZ=              0.4863 ZZZX=              3.4876
 ZZZY=             -0.9167 XXYY=          -1115.2403 XXZZ=          -1231.6010 YYZZ=           -109.6283
 XXYZ=             16.6651 YYXZ=             15.0641 ZZXY=             -0.5684
 N-N= 6.752840116651D+02 E-N=-2.613987219580D+03  KE= 5.384842146829D+02
 Calling FoFJK, ICntrl=      2127 FMM=F ISym2X=0 I1Cent= 0 IOpClX= 0 NMat=1 NMatS=1 NMatT=0.
 ***** Axes restored to original set *****
 -------------------------------------------------------------------
 Center     Atomic                   Forces (Hartrees/Bohr)
 Number     Number              X              Y              Z
 -------------------------------------------------------------------
      1        8          -0.006077654   -0.008549920    0.002004586
      2        6          -0.019625953   -0.002780280   -0.014066023
      3        6          -0.007068208    0.004721311   -0.008412510
      4        6           0.009711043    0.002614499   -0.004316637
      5        6          -0.006991291    0.004171452    0.002939190
      6        6           0.010195217   -0.000705605   -0.002879830
      7        6          -0.010314553    0.001397100    0.004053456
      8        6           0.010763872   -0.001025625   -0.003935538
      9        6          -0.010983281    0.001315301    0.004382583
     10        6           0.008776398   -0.001325446   -0.004488551
     11        6          -0.003300207    0.001338695    0.003852377
     12        8           0.007889110   -0.009999006    0.012928699
     13        1           0.009671046    0.012824842   -0.002970541
     14        1           0.000460795   -0.000191855    0.005783456
     15        1           0.003622581   -0.001876347    0.001201926
     16        1           0.000314521   -0.003162965    0.003149308
     17        1           0.001407463    0.003262149   -0.000933544
     18        1           0.001149867    0.003172829   -0.000215504
     19        1           0.002090194   -0.004566248    0.001045285
     20        1          -0.002367106   -0.003506333    0.002144962
     21        1          -0.002159510    0.003578747   -0.000407977
     22        1           0.001965971    0.003147117   -0.001947501
     23        1           0.002311484   -0.003801763    0.000469196
     24        1          -0.002281160    0.003630278   -0.000424794
     25        1          -0.002082831   -0.003249594    0.002108122
     26        1           0.002040076    0.003211164   -0.002208941
     27        1           0.002331775   -0.003815495    0.000366341
     28        1          -0.001586549   -0.002684951    0.002841575
     29        1          -0.001799061    0.003747862    0.000458895
     30        1           0.002000887    0.002199157   -0.001170621
     31        1           0.002171188   -0.002315959    0.000498463
     32        1          -0.002236125   -0.000775110   -0.001849909
 -------------------------------------------------------------------
 Cartesian Forces:  Max     0.019625953 RMS     0.005223808

 GradGradGradGradGradGradGradGradGradGradGradGradGradGradGradGradGradGrad
 Berny optimization.
 FormGI is forming the generalized inverse of G from B-inverse, IUseBI=4.
 Internal  Forces:  Max     0.017803295 RMS     0.003025208
 Search for a local minimum.
 Step number   1 out of a maximum of  179
 All quantities printed in internal units (Hartrees-Bohrs-Radians)
 Mixed Optimization -- RFO/linear search
 Second derivative matrix not updated -- first step.
 ITU=  0
     Eigenvalues ---    0.00230   0.00230   0.00252   0.00252   0.00252
     Eigenvalues ---    0.00253   0.00260   0.00301   0.00379   0.00856
     Eigenvalues ---    0.02358   0.03247   0.03407   0.03413   0.03415
     Eigenvalues ---    0.03417   0.03419   0.03443   0.03642   0.04686
     Eigenvalues ---    0.04730   0.04738   0.04739   0.04741   0.04742
     Eigenvalues ---    0.04759   0.05194   0.05409   0.05464   0.08307
     Eigenvalues ---    0.08310   0.08316   0.08318   0.08319   0.08319
     Eigenvalues ---    0.08549   0.09814   0.12198   0.12200   0.12202
     Eigenvalues ---    0.12204   0.12205   0.12206   0.12378   0.13122
     Eigenvalues ---    0.16000   0.16000   0.16000   0.16000   0.21891
     Eigenvalues ---    0.21891   0.21893   0.21893   0.21894   0.21895
     Eigenvalues ---    0.21896   0.22003   0.24997   0.25000   0.27689
     Eigenvalues ---    0.28341   0.28622   0.28623   0.28623   0.28627
     Eigenvalues ---    0.28677   0.28955   0.29493   0.34495   0.34618
     Eigenvalues ---    0.34622   0.34623   0.34623   0.34624   0.34624
     Eigenvalues ---    0.34631   0.34632   0.34632   0.34643   0.34644
     Eigenvalues ---    0.34645   0.34652   0.34728   0.34729   0.34748
     Eigenvalues ---    0.34832   0.34870   0.55093   0.55944   0.94049
 RFO step:  Lambda=-4.76140962D-03 EMin= 2.30000000D-03
 Linear search not attempted -- first point.
 Iteration  1 RMS(Cart)=  0.05377083 RMS(Int)=  0.00074256
 Iteration  2 RMS(Cart)=  0.00137865 RMS(Int)=  0.00010432
 Iteration  3 RMS(Cart)=  0.00000123 RMS(Int)=  0.00010431
 Iteration  4 RMS(Cart)=  0.00000000 RMS(Int)=  0.00010431
 Variable       Old X    -DE/DX   Delta X   Delta X   Delta X     New X
                                 (Linear)    (Quad)   (Total)
    R1        2.55050   0.00288   0.00000   0.00519   0.00519   2.55569
    R2        1.81003   0.01585   0.00000   0.02809   0.02809   1.83812
    R3        2.88986  -0.01055   0.00000  -0.03519  -0.03519   2.85466
    R4        2.31121  -0.01780   0.00000  -0.01883  -0.01883   2.29238
    R5        2.92825  -0.01210   0.00000  -0.04296  -0.04296   2.88529
    R6        2.05886   0.00527   0.00000   0.01491   0.01491   2.07377
    R7        2.05949   0.00372   0.00000   0.01054   0.01054   2.07004
    R8        2.91399  -0.00628   0.00000  -0.02180  -0.02180   2.89219
    R9        2.06277   0.00349   0.00000   0.00994   0.00994   2.07271
   R10        2.06503   0.00188   0.00000   0.00538   0.00538   2.07041
   R11        2.90797  -0.00389   0.00000  -0.01335  -0.01335   2.89462
   R12        2.06292   0.00290   0.00000   0.00828   0.00828   2.07119
   R13        2.06243   0.00498   0.00000   0.01417   0.01417   2.07660
   R14        2.90788  -0.00356   0.00000  -0.01225  -0.01225   2.89564
   R15        2.06259   0.00473   0.00000   0.01347   0.01347   2.07606
   R16        2.06289   0.00418   0.00000   0.01192   0.01192   2.07481
   R17        2.90796  -0.00340   0.00000  -0.01170  -0.01170   2.89626
   R18        2.06300   0.00417   0.00000   0.01189   0.01189   2.07489
   R19        2.06276   0.00446   0.00000   0.01269   0.01269   2.07545
   R20        2.90798  -0.00331   0.00000  -0.01138  -0.01138   2.89660
   R21        2.06292   0.00430   0.00000   0.01224   0.01224   2.07517
   R22        2.06291   0.00439   0.00000   0.01249   0.01249   2.07541
   R23        2.90681  -0.00341   0.00000  -0.01170  -0.01170   2.89512
   R24        2.06289   0.00439   0.00000   0.01249   0.01249   2.07539
   R25        2.06278   0.00447   0.00000   0.01274   0.01274   2.07552
   R26        2.90097  -0.00166   0.00000  -0.00565  -0.00565   2.89532
   R27        2.06255   0.00408   0.00000   0.01163   0.01163   2.07418
   R28        2.06257   0.00404   0.00000   0.01152   0.01152   2.07409
   R29        2.06118   0.00313   0.00000   0.00889   0.00889   2.07007
   R30        2.06117   0.00315   0.00000   0.00894   0.00894   2.07011
   R31        2.06085   0.00297   0.00000   0.00843   0.00843   2.06929
    A1        1.81576   0.00713   0.00000   0.04329   0.04329   1.85905
    A2        1.94959   0.00083   0.00000   0.00319   0.00318   1.95277
    A3        2.14800  -0.00448   0.00000  -0.01765  -0.01766   2.13034
    A4        2.18545   0.00365   0.00000   0.01430   0.01429   2.19973
    A5        2.01829  -0.01026   0.00000  -0.04731  -0.04725   1.97104
    A6        1.84844   0.00312   0.00000   0.01746   0.01799   1.86644
    A7        1.89914   0.00178   0.00000  -0.00876  -0.00887   1.89026
    A8        1.90410   0.00394   0.00000   0.03062   0.03070   1.93481
    A9        1.92436   0.00423   0.00000   0.01734   0.01661   1.94097
   A10        1.86201  -0.00240   0.00000  -0.00666  -0.00701   1.85500
   A11        1.99115  -0.00136   0.00000  -0.01232  -0.01247   1.97868
   A12        1.89432  -0.00094   0.00000  -0.00747  -0.00735   1.88697
   A13        1.91837  -0.00043   0.00000  -0.01539  -0.01561   1.90276
   A14        1.89726   0.00172   0.00000   0.01864   0.01861   1.91587
   A15        1.91605   0.00007   0.00000  -0.00632  -0.00669   1.90935
   A16        1.84035   0.00116   0.00000   0.02649   0.02645   1.86680
   A17        1.96760   0.00058   0.00000   0.00030   0.00030   1.96790
   A18        1.91499  -0.00125   0.00000  -0.01170  -0.01170   1.90329
   A19        1.91084  -0.00026   0.00000  -0.00343  -0.00343   1.90741
   A20        1.90437   0.00058   0.00000   0.00577   0.00575   1.91012
   A21        1.91029  -0.00036   0.00000  -0.00127  -0.00128   1.90901
   A22        1.85218   0.00072   0.00000   0.01102   0.01099   1.86317
   A23        1.96776   0.00128   0.00000   0.00558   0.00558   1.97334
   A24        1.91146  -0.00026   0.00000  -0.00017  -0.00017   1.91129
   A25        1.90832  -0.00052   0.00000  -0.00305  -0.00305   1.90527
   A26        1.90993  -0.00054   0.00000  -0.00260  -0.00260   1.90733
   A27        1.90901  -0.00038   0.00000  -0.00212  -0.00211   1.90689
   A28        1.85389   0.00037   0.00000   0.00215   0.00215   1.85604
   A29        1.96845   0.00180   0.00000   0.00797   0.00798   1.97643
   A30        1.90894  -0.00064   0.00000  -0.00305  -0.00305   1.90589
   A31        1.91030  -0.00057   0.00000  -0.00262  -0.00261   1.90769
   A32        1.90968  -0.00053   0.00000  -0.00205  -0.00204   1.90764
   A33        1.91015  -0.00062   0.00000  -0.00296  -0.00296   1.90719
   A34        1.85273   0.00048   0.00000   0.00236   0.00235   1.85508
   A35        1.96819   0.00195   0.00000   0.00885   0.00885   1.97704
   A36        1.90949  -0.00064   0.00000  -0.00285  -0.00285   1.90664
   A37        1.91011  -0.00062   0.00000  -0.00266  -0.00266   1.90745
   A38        1.90952  -0.00061   0.00000  -0.00259  -0.00259   1.90693
   A39        1.90979  -0.00064   0.00000  -0.00283  -0.00283   1.90696
   A40        1.85320   0.00047   0.00000   0.00165   0.00165   1.85485
   A41        1.96821   0.00213   0.00000   0.00969   0.00970   1.97791
   A42        1.90969  -0.00062   0.00000  -0.00218  -0.00217   1.90752
   A43        1.91014  -0.00062   0.00000  -0.00227  -0.00227   1.90787
   A44        1.90956  -0.00074   0.00000  -0.00356  -0.00356   1.90600
   A45        1.90978  -0.00076   0.00000  -0.00382  -0.00382   1.90596
   A46        1.85290   0.00051   0.00000   0.00165   0.00164   1.85453
   A47        1.96681   0.00134   0.00000   0.00599   0.00601   1.97282
   A48        1.91454  -0.00104   0.00000  -0.00888  -0.00891   1.90563
   A49        1.91440  -0.00105   0.00000  -0.00894  -0.00897   1.90543
   A50        1.90603   0.00016   0.00000   0.00489   0.00491   1.91094
   A51        1.90593   0.00017   0.00000   0.00495   0.00496   1.91090
   A52        1.85261   0.00037   0.00000   0.00184   0.00176   1.85436
   A53        1.94337  -0.00067   0.00000  -0.00527  -0.00529   1.93808
   A54        1.94361  -0.00068   0.00000  -0.00537  -0.00540   1.93821
   A55        1.93723   0.00101   0.00000   0.00861   0.00862   1.94585
   A56        1.88187   0.00017   0.00000  -0.00356  -0.00361   1.87826
   A57        1.87731   0.00009   0.00000   0.00295   0.00296   1.88026
   A58        1.87745   0.00009   0.00000   0.00285   0.00286   1.88031
    D1       -3.13452   0.00039   0.00000   0.01747   0.01740  -3.11712
    D2       -0.01062   0.00034   0.00000   0.00845   0.00852  -0.00210
    D3       -3.00812   0.00044   0.00000   0.01183   0.01154  -2.99658
    D4        1.16425  -0.00048   0.00000  -0.01049  -0.01054   1.15371
    D5       -0.83173  -0.00011   0.00000  -0.00749  -0.00723  -0.83896
    D6        0.15163   0.00059   0.00000   0.02148   0.02124   0.17287
    D7       -1.95919  -0.00033   0.00000  -0.00084  -0.00084  -1.96003
    D8        2.32802   0.00004   0.00000   0.00216   0.00247   2.33048
    D9        1.22224  -0.00142   0.00000  -0.04306  -0.04294   1.17930
   D10       -2.94286  -0.00081   0.00000  -0.03281  -0.03271  -2.97557
   D11       -0.93838  -0.00018   0.00000  -0.01365  -0.01367  -0.95205
   D12       -2.98045  -0.00129   0.00000  -0.02917  -0.02935  -3.00980
   D13       -0.86236  -0.00068   0.00000  -0.01892  -0.01913  -0.88149
   D14        1.14211  -0.00004   0.00000   0.00023  -0.00009   1.14202
   D15       -0.94104   0.00056   0.00000  -0.00924  -0.00902  -0.95006
   D16        1.17705   0.00117   0.00000   0.00101   0.00121   1.17826
   D17       -3.10166   0.00180   0.00000   0.02016   0.02025  -3.08141
   D18        3.10290   0.00011   0.00000   0.01714   0.01708   3.11998
   D19       -1.05404   0.00035   0.00000   0.01636   0.01631  -1.03773
   D20        0.97204   0.00036   0.00000   0.02102   0.02096   0.99300
   D21        0.98643   0.00097   0.00000   0.02138   0.02143   1.00786
   D22        3.11268   0.00121   0.00000   0.02059   0.02066   3.13334
   D23       -1.14442   0.00123   0.00000   0.02525   0.02531  -1.11911
   D24       -1.01842  -0.00140   0.00000  -0.01710  -0.01711  -1.03553
   D25        1.10783  -0.00116   0.00000  -0.01788  -0.01788   1.08995
   D26        3.13391  -0.00115   0.00000  -0.01323  -0.01323   3.12068
   D27       -3.14103  -0.00019   0.00000  -0.00229  -0.00230   3.13986
   D28       -1.01008  -0.00020   0.00000  -0.00194  -0.00195  -1.01202
   D29        1.01463  -0.00020   0.00000  -0.00118  -0.00118   1.01345
   D30        1.00992   0.00060   0.00000   0.00833   0.00833   1.01825
   D31        3.14087   0.00059   0.00000   0.00868   0.00869  -3.13363
   D32       -1.11761   0.00059   0.00000   0.00944   0.00945  -1.10816
   D33       -1.00986  -0.00039   0.00000  -0.00739  -0.00739  -1.01726
   D34        1.12109  -0.00040   0.00000  -0.00704  -0.00704   1.11405
   D35       -3.13739  -0.00040   0.00000  -0.00627  -0.00628   3.13952
   D36       -3.14123   0.00006   0.00000   0.00185   0.00185  -3.13939
   D37       -1.01193   0.00014   0.00000   0.00245   0.00245  -1.00949
   D38        1.01108   0.00004   0.00000   0.00209   0.00209   1.01317
   D39        1.01014  -0.00009   0.00000   0.00013   0.00014   1.01028
   D40        3.13944  -0.00000   0.00000   0.00074   0.00074   3.14018
   D41       -1.12073  -0.00010   0.00000   0.00038   0.00039  -1.12035
   D42       -1.01409  -0.00001   0.00000   0.00020   0.00020  -1.01389
   D43        1.11520   0.00007   0.00000   0.00081   0.00080   1.11601
   D44        3.13822  -0.00003   0.00000   0.00045   0.00045   3.13867
   D45        3.14154  -0.00001   0.00000  -0.00028  -0.00028   3.14126
   D46        1.01223  -0.00009   0.00000  -0.00092  -0.00092   1.01131
   D47       -1.01155   0.00006   0.00000   0.00020   0.00020  -1.01135
   D48        1.01265  -0.00003   0.00000  -0.00032  -0.00032   1.01233
   D49       -1.11665  -0.00011   0.00000  -0.00096  -0.00096  -1.11761
   D50       -3.14043   0.00004   0.00000   0.00016   0.00015  -3.14027
   D51       -1.01069   0.00004   0.00000  -0.00033  -0.00034  -1.01102
   D52       -3.13999  -0.00004   0.00000  -0.00098  -0.00098  -3.14097
   D53        1.11942   0.00010   0.00000   0.00014   0.00014   1.11956
   D54       -3.14139  -0.00000   0.00000  -0.00002  -0.00002  -3.14141
   D55       -1.01188   0.00005   0.00000   0.00044   0.00044  -1.01143
   D56        1.01167  -0.00004   0.00000  -0.00009  -0.00009   1.01158
   D57       -1.01210   0.00006   0.00000   0.00048   0.00048  -1.01163
   D58        1.11741   0.00011   0.00000   0.00094   0.00094   1.11835
   D59        3.14095   0.00003   0.00000   0.00041   0.00041   3.14136
   D60        1.01152  -0.00008   0.00000  -0.00059  -0.00059   1.01093
   D61        3.14103  -0.00002   0.00000  -0.00013  -0.00013   3.14090
   D62       -1.11861  -0.00011   0.00000  -0.00066  -0.00066  -1.11927
   D63        3.14156   0.00000   0.00000   0.00004   0.00004  -3.14158
   D64       -1.01411   0.00038   0.00000   0.00405   0.00402  -1.01009
   D65        1.01427  -0.00037   0.00000  -0.00398  -0.00396   1.01032
   D66        1.01198  -0.00012   0.00000  -0.00120  -0.00119   1.01078
   D67        3.13949   0.00026   0.00000   0.00280   0.00278  -3.14091
   D68       -1.11531  -0.00049   0.00000  -0.00523  -0.00520  -1.12051
   D69       -1.01129   0.00012   0.00000   0.00098   0.00098  -1.01032
   D70        1.11622   0.00049   0.00000   0.00498   0.00495   1.12117
   D71       -3.13858  -0.00026   0.00000  -0.00305  -0.00303   3.14158
   D72       -1.05049   0.00035   0.00000   0.00596   0.00595  -1.04455
   D73        1.05053  -0.00034   0.00000  -0.00583  -0.00581   1.04471
   D74       -3.14141  -0.00000   0.00000  -0.00003  -0.00003  -3.14144
   D75        3.10038   0.00066   0.00000   0.00976   0.00975   3.11012
   D76       -1.08179  -0.00003   0.00000  -0.00203  -0.00201  -1.08380
   D77        1.00946   0.00031   0.00000   0.00377   0.00377   1.01323
   D78        1.08158   0.00003   0.00000   0.00212   0.00210   1.08368
   D79       -3.10059  -0.00066   0.00000  -0.00967  -0.00966  -3.11025
   D80       -1.00934  -0.00032   0.00000  -0.00387  -0.00387  -1.01321
         Item               Value     Threshold  Converged?
 Maximum Force            0.017803     0.000450     NO 
 RMS     Force            0.003025     0.000300     NO 
 Maximum Displacement     0.345074     0.001800     NO 
 RMS     Displacement     0.054013     0.001200     NO 
 Predicted change in Energy=-2.443657D-03
 GradGradGradGradGradGradGradGradGradGradGradGradGradGradGradGradGradGrad

                          Input orientation:                          
 ---------------------------------------------------------------------
 Center     Atomic      Atomic             Coordinates (Angstroms)
 Number     Number       Type             X           Y           Z
 ---------------------------------------------------------------------
      1          8           0        6.330862   -0.099721    1.102927
      2          6           0        5.151823   -0.249360    0.457567
      3          6           0        4.372178   -1.434516    0.976740
      4          6           0        3.136675   -1.748210    0.136303
      5          6           0        3.470817   -2.255601   -1.268431
      6          6           0        2.222214   -2.594462   -2.088475
      7          6           0        2.548546   -3.100994   -3.497336
      8          6           0        1.301891   -3.438381   -4.322557
      9          6           0        1.627400   -3.944730   -5.732227
     10          6           0        0.382001   -4.282094   -6.558231
     11          6           0        0.714975   -4.787473   -7.965768
     12          8           0        4.790024    0.518700   -0.408881
     13          1           0        6.753820    0.691089    0.726295
     14          1           0        4.091971   -1.204024    2.012417
     15          1           0        5.047331   -2.295745    1.025627
     16          1           0        2.542535   -2.499580    0.670606
     17          1           0        2.518396   -0.846935    0.060149
     18          1           0        4.056762   -1.493065   -1.794250
     19          1           0        4.108646   -3.147010   -1.190176
     20          1           0        1.629852   -3.352830   -1.558460
     21          1           0        1.586623   -1.702271   -2.162632
     22          1           0        3.139279   -2.341510   -4.026289
     23          1           0        3.186819   -3.991759   -3.424087
     24          1           0        0.664416   -2.547246   -4.396002
     25          1           0        0.710459   -4.197066   -3.792677
     26          1           0        2.218248   -3.186112   -6.262836
     27          1           0        2.265201   -4.835946   -5.659808
     28          1           0       -0.208592   -5.039761   -6.027303
     29          1           0       -0.254981   -3.391194   -6.630264
     30          1           0        1.278041   -4.036401   -8.530416
     31          1           0        1.324903   -5.696441   -7.923441
     32          1           0       -0.192036   -5.020550   -8.533285
 ---------------------------------------------------------------------
                    Distance matrix (angstroms):
                    1          2          3          4          5
     1  O    0.000000
     2  C    1.352411   0.000000
     3  C    2.373614   1.510623   0.000000
     4  C    3.722192   2.531913   1.526829   0.000000
     5  C    4.295465   3.135260   2.554883   1.530482   0.000000
     6  C    5.769729   4.534803   3.919613   2.549905   1.531766
     7  C    6.669032   5.527217   5.110787   3.921639   2.556030
     8  C    8.116223   6.916749   6.443965   5.109260   3.928217
     9  C    9.144725   8.024392   7.671064   6.445328   5.116329
[...]
 Alpha virt. eigenvalues --    3.98557   3.99631   4.03431   4.04841   4.06355
 Alpha virt. eigenvalues --    4.09202   4.11057   4.12616   4.16229   4.19983
 Alpha virt. eigenvalues --    4.22645   4.28416   4.30872   4.32933   4.33253
 Alpha virt. eigenvalues --    4.38562   4.38796   4.42583   4.45685   4.47229
 Alpha virt. eigenvalues --    4.49812   4.52568   4.53100   4.53430   4.55350
 Alpha virt. eigenvalues --    4.56328   4.57178   4.60282   4.62604   4.64008
 Alpha virt. eigenvalues --    4.64150   4.65451   4.66512   4.67208   4.70012
 Alpha virt. eigenvalues --    4.71748   4.78764   4.83899   4.86250   5.00605
 Alpha virt. eigenvalues --    5.02205   5.16893   5.21308   5.21777   5.22113
 Alpha virt. eigenvalues --    5.23152   5.38651   5.40894   5.50422   5.59309
 Alpha virt. eigenvalues --    5.74880   5.84469   5.86473   6.15007   6.19177
 Alpha virt. eigenvalues --    6.32994   6.33596   6.44336   6.48822   6.64296
 Alpha virt. eigenvalues --    6.68743   6.73771   6.81814   6.88150   7.07455
 Alpha virt. eigenvalues --    7.08897   7.26681  22.39251  22.43474  22.49816
 Alpha virt. eigenvalues --   22.56462  22.58205  22.58775  22.59864  22.61576
 Alpha virt. eigenvalues --   22.62551  23.27773  43.93857  44.02022
          Condensed to atoms (all electrons):
               1          2          3          4          5          6
     1  O    7.938730   0.375874  -0.125014   0.010576   0.000503   0.000015
     2  C    0.375874   4.490210   0.249255  -0.031784   0.007251   0.001271
     3  C   -0.125014   0.249255   5.388313   0.188002  -0.034443   0.005748
     4  C    0.010576  -0.031784   0.188002   5.200627   0.210615  -0.035769
     5  C    0.000503   0.007251  -0.034443   0.210615   5.286290   0.215757
     6  C    0.000015   0.001271   0.005748  -0.035769   0.215757   5.218384
     7  C   -0.000001   0.000077  -0.000975   0.010842  -0.036537   0.219909
     8  C    0.000000   0.000008   0.000013  -0.000754   0.009415  -0.032931
     9  C   -0.000000   0.000000  -0.000002   0.000040  -0.000899   0.010387
    10  C    0.000000   0.000000   0.000000  -0.000002   0.000036  -0.000814
    11  C   -0.000000   0.000000  -0.000000   0.000000  -0.000002   0.000060
    12  O   -0.088652   0.646958  -0.108875   0.021749  -0.008826   0.000434
    13  H    0.288813  -0.028577   0.020281  -0.002025   0.000203  -0.000017
    14  H    0.002893  -0.018815   0.407752  -0.043075   0.008667  -0.000487
    15  H    0.005658  -0.033978   0.413593  -0.038683  -0.006348  -0.000268
    16  H   -0.000086   0.008674  -0.049171   0.432433  -0.039901  -0.005298
    17  H    0.000215  -0.011635  -0.020683   0.429812  -0.054829  -0.002924
    18  H   -0.000348   0.003511  -0.006651  -0.039951   0.436250  -0.041150
    19  H   -0.000074  -0.001723   0.001694  -0.046074   0.411843  -0.037102
    20  H    0.000000  -0.000161   0.000409  -0.004971  -0.044222   0.432736
    21  H   -0.000001   0.000226  -0.000194  -0.002044  -0.048071   0.436125
    22  H    0.000000  -0.000072   0.000107  -0.000245  -0.002516  -0.045675
    23  H    0.000000   0.000037  -0.000057  -0.000064  -0.002669  -0.048041
    24  H    0.000000   0.000001   0.000001  -0.000008   0.000098  -0.003278
    25  H   -0.000000  -0.000001   0.000003   0.000014  -0.000078  -0.003058
    26  H   -0.000000  -0.000000  -0.000000   0.000002  -0.000031   0.000083
    27  H    0.000000  -0.000000   0.000000   0.000001   0.000002   0.000039
    28  H   -0.000000   0.000000   0.000000   0.000000   0.000000   0.000002
    29  H   -0.000000  -0.000000   0.000000  -0.000000   0.000001  -0.000001
    30  H    0.000000   0.000000  -0.000000   0.000000  -0.000000   0.000001
    31  H    0.000000  -0.000000  -0.000000  -0.000000  -0.000000   0.000000
    32  H    0.000000   0.000000   0.000000  -0.000000   0.000000  -0.000002
               7          8          9         10         11         12
     1  O   -0.000001   0.000000  -0.000000   0.000000  -0.000000  -0.088652
     2  C    0.000077   0.000008   0.000000   0.000000   0.000000   0.646958
     3  C   -0.000975   0.000013  -0.000002   0.000000  -0.000000  -0.108875
     4  C    0.010842  -0.000754   0.000040  -0.000002   0.000000   0.021749
     5  C   -0.036537   0.009415  -0.000899   0.000036  -0.000002  -0.008826
     6  C    0.219909  -0.032931   0.010387  -0.000814   0.000060   0.000434
     7  C    5.227496   0.218619  -0.036603   0.010660  -0.001130   0.000058
     8  C    0.218619   5.218240   0.223825  -0.044189   0.013070   0.000003
     9  C   -0.036603   0.223825   5.243877   0.245445  -0.057973  -0.000000
    10  C    0.010660  -0.044189   0.245445   5.120517   0.274013   0.000000
    11  C   -0.001130   0.013070  -0.057973   0.274013   5.031762  -0.000000
    12  O    0.000058   0.000003  -0.000000   0.000000  -0.000000   7.854509
    13  H    0.000000  -0.000000   0.000000  -0.000000   0.000000   0.006175
    14  H    0.000026  -0.000001   0.000000   0.000000   0.000000   0.001709
    15  H   -0.000013  -0.000001   0.000000  -0.000000   0.000000   0.003004
    16  H    0.000072  -0.000033   0.000002  -0.000000   0.000000   0.000497
    17  H   -0.000448  -0.000020   0.000000  -0.000000   0.000000   0.004262
    18  H   -0.004282  -0.000014   0.000005   0.000000   0.000000   0.004908
    19  H   -0.004546   0.000180  -0.000027   0.000001   0.000000   0.000496
    20  H   -0.047135  -0.002630  -0.000053   0.000004   0.000001  -0.000004
    21  H   -0.043625  -0.003339  -0.000051   0.000011   0.000001   0.000100
    22  H    0.434656  -0.045299  -0.003372  -0.000104   0.000004  -0.000028
    23  H    0.434506  -0.048063  -0.002381  -0.000122   0.000006   0.000000
    24  H   -0.045462   0.432483  -0.044966  -0.003509  -0.000072  -0.000000
    25  H   -0.046156   0.432941  -0.046558  -0.003202  -0.000088  -0.000000
    26  H   -0.004762  -0.042091   0.423876  -0.041439  -0.003415   0.000000
    27  H   -0.004799  -0.042635   0.423823  -0.042058  -0.003274  -0.000000
    28  H   -0.000415  -0.003857  -0.051024   0.428521  -0.039690  -0.000000
    29  H   -0.000400  -0.003786  -0.050954   0.428761  -0.039461   0.000000
    30  H   -0.000037  -0.000211  -0.006846  -0.040769   0.414793  -0.000000
    31  H   -0.000036  -0.000201  -0.006964  -0.040735   0.414519   0.000000
    32  H    0.000054  -0.001023   0.014094  -0.054189   0.424096   0.000000
              13         14         15         16         17         18
     1  O    0.288813   0.002893   0.005658  -0.000086   0.000215  -0.000348
     2  C   -0.028577  -0.018815  -0.033978   0.008674  -0.011635   0.003511
     3  C    0.020281   0.407752   0.413593  -0.049171  -0.020683  -0.006651
     4  C   -0.002025  -0.043075  -0.038683   0.432433   0.429812  -0.039951
     5  C    0.000203   0.008667  -0.006348  -0.039901  -0.054829   0.436250
     6  C   -0.000017  -0.000487  -0.000268  -0.005298  -0.002924  -0.041150
     7  C    0.000000   0.000026  -0.000013   0.000072  -0.000448  -0.004282
     8  C   -0.000000  -0.000001  -0.000001  -0.000033  -0.000020  -0.000014
     9  C    0.000000   0.000000   0.000000   0.000002   0.000000   0.000005
    10  C   -0.000000   0.000000  -0.000000  -0.000000  -0.000000   0.000000
    11  C    0.000000   0.000000   0.000000   0.000000   0.000000   0.000000
    12  O    0.006175   0.001709   0.003004   0.000497   0.004262   0.004908
    13  H    0.382131  -0.000585  -0.000858   0.000030  -0.000029   0.000020
    14  H   -0.000585   0.488230  -0.015259  -0.004842  -0.002426   0.000062
    15  H   -0.000858  -0.015259   0.494527  -0.001894   0.005581   0.000402
    16  H    0.000030  -0.004842  -0.001894   0.532990  -0.022523   0.004541
    17  H   -0.000029  -0.002426   0.005581  -0.022523   0.504955  -0.001267
    18  H    0.000020   0.000062   0.000402   0.004541  -0.001267   0.497562
    19  H   -0.000001   0.000212   0.000647  -0.002841   0.005774  -0.025358
    20  H   -0.000000  -0.000022   0.000144   0.000666   0.001430   0.005325
    21  H    0.000000   0.000019  -0.000068   0.001277  -0.000590  -0.002293
    22  H   -0.000000  -0.000000   0.000011  -0.000079   0.000212  -0.000162
    23  H    0.000000   0.000001  -0.000023   0.000198  -0.000103   0.001425
    24  H    0.000000  -0.000000  -0.000000   0.000015  -0.000029   0.000215
    25  H   -0.000000  -0.000000   0.000000  -0.000030   0.000015  -0.000106
    26  H   -0.000000   0.000000  -0.000000  -0.000000   0.000000  -0.000030
    27  H    0.000000   0.000000   0.000000   0.000000  -0.000000   0.000014
    28  H    0.000000  -0.000000  -0.000000   0.000000  -0.000000  -0.000000
    29  H   -0.000000  -0.000000   0.000000  -0.000000   0.000000   0.000000
    30  H    0.000000  -0.000000  -0.000000   0.000000  -0.000000   0.000000
    31  H   -0.000000  -0.000000   0.000000  -0.000000   0.000000  -0.000000
    32  H   -0.000000   0.000000  -0.000000  -0.000000  -0.000000   0.000000
              19         20         21         22         23         24
     1  O   -0.000074   0.000000  -0.000001   0.000000   0.000000   0.000000
     2  C   -0.001723  -0.000161   0.000226  -0.000072   0.000037   0.000001
     3  C    0.001694   0.000409  -0.000194   0.000107  -0.000057   0.000001
     4  C   -0.046074  -0.004971  -0.002044  -0.000245  -0.000064  -0.000008
     5  C    0.411843  -0.044222  -0.048071  -0.002516  -0.002669   0.000098
     6  C   -0.037102   0.432736   0.436125  -0.045675  -0.048041  -0.003278
     7  C   -0.004546  -0.047135  -0.043625   0.434656   0.434506  -0.045462
     8  C    0.000180  -0.002630  -0.003339  -0.045299  -0.048063   0.432483
     9  C   -0.000027  -0.000053  -0.000051  -0.003372  -0.002381  -0.044966
    10  C    0.000001   0.000004   0.000011  -0.000104  -0.000122  -0.003509
    11  C    0.000000   0.000001   0.000001   0.000004   0.000006  -0.000072
    12  O    0.000496  -0.000004   0.000100  -0.000028   0.000000  -0.000000
    13  H   -0.000001  -0.000000   0.000000  -0.000000   0.000000   0.000000
    14  H    0.000212  -0.000022   0.000019  -0.000000   0.000001  -0.000000
    15  H    0.000647   0.000144  -0.000068   0.000011  -0.000023  -0.000000
    16  H   -0.002841   0.000666   0.001277  -0.000079   0.000198   0.000015
    17  H    0.005774   0.001430  -0.000590   0.000212  -0.000103  -0.000029
    18  H   -0.025358   0.005325  -0.002293  -0.000162   0.001425   0.000215
    19  H    0.557706  -0.003582   0.005898   0.001502  -0.000577  -0.000122
    20  H   -0.003582   0.547894  -0.028365   0.005842  -0.002636   0.001670
    21  H    0.005898  -0.028365   0.534811  -0.002580   0.005805  -0.000445
    22  H    0.001502   0.005842  -0.002580   0.536949  -0.027736  -0.002771
    23  H   -0.000577  -0.002636   0.005805  -0.027736   0.547721   0.006101
    24  H   -0.000122   0.001670  -0.000445  -0.002771   0.006101   0.545206
    25  H    0.000252  -0.000582   0.001633   0.005933  -0.002949  -0.029300
    26  H    0.000019  -0.000119   0.000238  -0.000205   0.001512  -0.003774
    27  H   -0.000034   0.000245  -0.000114   0.001565  -0.000241   0.006394
    28  H    0.000000  -0.000034   0.000016  -0.000103   0.000228   0.000940
    29  H   -0.000000   0.000017  -0.000033   0.000225  -0.000103   0.000816
    30  H   -0.000000  -0.000000   0.000000  -0.000026   0.000014   0.000151
    31  H    0.000000   0.000000  -0.000000   0.000014  -0.000026  -0.000068
    32  H    0.000000   0.000000   0.000000   0.000000   0.000000   0.000007
              25         26         27         28         29         30
     1  O   -0.000000  -0.000000   0.000000  -0.000000  -0.000000   0.000000
     2  C   -0.000001  -0.000000  -0.000000   0.000000  -0.000000   0.000000
     3  C    0.000003  -0.000000   0.000000   0.000000   0.000000  -0.000000
     4  C    0.000014   0.000002   0.000001   0.000000  -0.000000   0.000000
     5  C   -0.000078  -0.000031   0.000002   0.000000   0.000001  -0.000000
     6  C   -0.003058   0.000083   0.000039   0.000002  -0.000001   0.000001
     7  C   -0.046156  -0.004762  -0.004799  -0.000415  -0.000400  -0.000037
     8  C    0.432941  -0.042091  -0.042635  -0.003857  -0.003786  -0.000211
     9  C   -0.046558   0.423876   0.423823  -0.051024  -0.050954  -0.006846
    10  C   -0.003202  -0.041439  -0.042058   0.428521   0.428761  -0.040769
    11  C   -0.000088  -0.003415  -0.003274  -0.039690  -0.039461   0.414793
    12  O   -0.000000   0.000000  -0.000000  -0.000000   0.000000  -0.000000
    13  H   -0.000000  -0.000000   0.000000   0.000000  -0.000000   0.000000
    14  H   -0.000000   0.000000   0.000000  -0.000000  -0.000000  -0.000000
    15  H    0.000000  -0.000000   0.000000  -0.000000   0.000000  -0.000000
    16  H   -0.000030  -0.000000   0.000000   0.000000  -0.000000   0.000000
    17  H    0.000015   0.000000  -0.000000  -0.000000   0.000000  -0.000000
    18  H   -0.000106  -0.000030   0.000014  -0.000000   0.000000   0.000000
    19  H    0.000252   0.000019  -0.000034   0.000000  -0.000000  -0.000000
    20  H   -0.000582  -0.000119   0.000245  -0.000034   0.000017  -0.000000
    21  H    0.001633   0.000238  -0.000114   0.000016  -0.000033   0.000000
    22  H    0.005933  -0.000205   0.001565  -0.000103   0.000225  -0.000026
    23  H   -0.002949   0.001512  -0.000241   0.000228  -0.000103   0.000014
    24  H   -0.029300  -0.003774   0.006394   0.000940   0.000816   0.000151
    25  H    0.549438   0.006464  -0.003810   0.000810   0.000926  -0.000068
    26  H    0.006464   0.555026  -0.031968   0.007477  -0.005257   0.002307
    27  H   -0.003810  -0.031968   0.557901  -0.005301   0.007517   0.000336
    28  H    0.000810   0.007477  -0.005301   0.570062  -0.034135   0.007623
    29  H    0.000926  -0.005257   0.007517  -0.034135   0.568385  -0.005778
    30  H   -0.000068   0.002307   0.000336   0.007623  -0.005778   0.549142
    31  H    0.000153   0.000345   0.002324  -0.005812   0.007613  -0.031977
    32  H    0.000007  -0.000132  -0.000135  -0.004119  -0.004137  -0.024817
              31         32
     1  O    0.000000   0.000000
     2  C   -0.000000   0.000000
     3  C   -0.000000   0.000000
     4  C   -0.000000  -0.000000
     5  C   -0.000000   0.000000
     6  C    0.000000  -0.000002
     7  C   -0.000036   0.000054
     8  C   -0.000201  -0.001023
     9  C   -0.006964   0.014094
    10  C   -0.040735  -0.054189
    11  C    0.414519   0.424096
    12  O    0.000000   0.000000
    13  H   -0.000000  -0.000000
    14  H   -0.000000   0.000000
    15  H    0.000000  -0.000000
    16  H   -0.000000  -0.000000
    17  H    0.000000  -0.000000
    18  H   -0.000000   0.000000
    19  H    0.000000   0.000000
    20  H    0.000000   0.000000
    21  H   -0.000000   0.000000
    22  H    0.000014   0.000000
    23  H   -0.000026   0.000000
    24  H   -0.000068   0.000007
    25  H    0.000153   0.000007
    26  H    0.000345  -0.000132
    27  H    0.002324  -0.000135
    28  H   -0.005812  -0.004119
    29  H    0.007613  -0.004137
    30  H   -0.031977  -0.024817
    31  H    0.550370  -0.024951
    32  H   -0.024951   0.534200
 Mulliken charges:
               1
     1  O   -0.409103
     2  C    0.343394
     3  C   -0.329107
     4  C   -0.259266
     5  C   -0.307558
     6  C   -0.284137
     7  C   -0.279615
     8  C   -0.277719
     9  C   -0.276703
    10  C   -0.236839
    11  C   -0.427220
    12  O   -0.338477
    13  H    0.334438
    14  H    0.175942
    15  H    0.173826
    16  H    0.145305
    17  H    0.165251
    18  H    0.167370
    19  H    0.135834
    20  H    0.138132
    21  H    0.145650
    22  H    0.143952
    23  H    0.138235
    24  H    0.139706
    25  H    0.137396
    26  H    0.135872
    27  H    0.134209
    28  H    0.128812
    29  H    0.129783
    30  H    0.136162
    31  H    0.135431
    32  H    0.141045
 Sum of Mulliken charges =  -0.00000
 Mulliken charges with hydrogens summed into heavy atoms:
               1
     1  O   -0.074665
     2  C    0.343394
     3  C    0.020660
     4  C    0.051290
     5  C   -0.004354
     6  C   -0.000355
     7  C    0.002572
     8  C   -0.000618
     9  C   -0.006622
    10  C    0.021756
    11  C   -0.014582
    12  O   -0.338477
 Electronic spatial extent (au):  <R**2>=           5639.9763
 Charge=             -0.0000 electrons
 Dipole moment (field-independent basis, Debye):
    X=             -0.5283    Y=              0.8612    Z=             -1.0356  Tot=              1.4468
 Quadrupole moment (field-independent basis, Debye-Ang):
   XX=            -73.1651   YY=            -75.1793   ZZ=            -80.1363
   XY=              0.1541   XZ=              2.6097   YZ=              0.9027
 Traceless Quadrupole moment (field-independent basis, Debye-Ang):
   XX=              2.9951   YY=              0.9809   ZZ=             -3.9761
   XY=              0.1541   XZ=              2.6097   YZ=              0.9027
 Octapole moment (field-independent basis, Debye-Ang**2):
  XXX=            -89.0476  YYY=            -13.8863  ZZZ=             -1.2977  XYY=            -33.0811
  XXY=            -15.3956  XXZ=              3.4510  XZZ=             -1.6261  YZZ=              1.7139
  YYZ=             -3.2933  XYZ=             -8.1055
 Hexadecapole moment (field-independent basis, Debye-Ang**3):
 XXXX=          -6713.3211 YYYY=           -399.7846 ZZZZ=           -228.9745 XXXY=            232.0608
 XXXZ=            -34.9195 YYYX=             80.2425 YYYZ=             -1.0332 ZZZX=              5.3293
 ZZZY=             -2.0252 XXYY=          -1105.1582 XXZZ=          -1238.8298 YYZZ=           -118.4661
 XXYZ=              6.4084 YYXZ=             14.7473 ZZXY=             -3.3178
 N-N= 6.796342906253D+02 E-N=-2.624284736146D+03  KE= 5.405789112522D+02
 Unable to Open any file for archive entry.
 1\1\GINC-NOTCH075\SP\RM062X\def2TZVP\C10H20O2\U6032257\03-Feb-2022\0\\
 # M062X/def2tzvp int=(grid=ultrafine) nmr=giao guess=read geom=check\\
 Ac1.xyz\\0,1\O,0,6.3427918847,-0.0983182137,1.0706420121\C,0,5.1303241
 723,-0.2160739781,0.4740516763\C,0,4.3819280986,-1.4324691876,0.972020
 1929\C,0,3.1427694829,-1.7586379288,0.137853144\C,0,3.4734939734,-2.27
 48863242,-1.2654792232\C,0,2.226771552,-2.5991105806,-2.0915063771\C,0
 ,2.5487540014,-3.1163971976,-3.4957059324\C,0,1.3036773315,-3.43528087
 92,-4.3271309165\C,0,1.6250794584,-3.9521152429,-5.7316168725\C,0,0.38
 01260689,-4.2707093262,-6.5643514518\C,0,0.7120332646,-4.7863490798,-7
 .9660856574\O,0,4.7273101433,0.5896623155,-0.3364646917\H,0,6.73769559
 46,0.7153353397,0.7141176881\H,0,4.1130499161,-1.2281592956,2.01643516
 17\H,0,5.0817458609,-2.2753346726,1.0050075134\H,0,2.5480467428,-2.508
 3914647,0.6735087389\H,0,2.52432861,-0.8579756751,0.0576138769\H,0,4.0
 712219815,-1.5218530896,-1.7917155697\H,0,4.1004023437,-3.1744067025,-
 1.1834899385\H,0,1.6185139837,-3.3447403313,-1.5599470435\H,0,1.602756
 3126,-1.6983321542,-2.1708317609\H,0,3.1581513799,-2.3707571916,-4.024
 8807062\H,0,3.1734021579,-4.017352847,-3.4169873975\H,0,0.6796360277,-
 2.534066522,-4.4058225308\H,0,0.6936310248,-4.1801352217,-3.7968791969
 \H,0,2.2350908662,-3.2074915924,-6.2622426499\H,0,2.2492587878,-4.8535
 911687,-5.6536551739\H,0,-0.2285984286,-5.0146015024,-6.0330464976\H,0
 ,-0.2423708266,-3.3692534769,-6.6415835652\H,0,1.2930333019,-4.0480531
 77,-8.530088943\H,0,1.3070620954,-5.7052417505,-7.9172763436\H,0,-0.19
 40171643,-5.0061118805,-8.5396615644\\Version=ES64L-G16RevC.01\State=1
 -A\HF=-543.5451847\RMSD=2.339e-09\Dipole=0.1430516,-0.3900128,0.389145
 2\Quadrupole=1.2558002,-2.8887839,1.6329837,1.8746841,1.2248701,-0.183
 1359\PG=C01 [X(C10H20O2)]\\@
 The archive entry for this job was punched.


 THE LENGTH OF A MEETING IS PROPORTIONAL TO THE
 SQUARE OF THE PARTICIPANTS.
 Job cpu time:       0 days  0 hours 32 minutes  7.8 seconds.
 Elapsed time:       0 days  0 hours  1 minutes 10.4 seconds.
 File lengths (MBytes):  RWF=    140 Int=      0 D2E=      0 Chk=     24 Scr=      1
 Normal termination of Gaussian 16 at Thu Feb  3 10:49:30 2022.
