 Entering Gaussian System, Link 0=/uufs/chpc.utah.edu/sys/installdir/gaussian16/C01/AVX2/g16/g16
 Input=Ac1_clust-33.com
 Output=Ac1_clust-33.log
 Initial command:
 /uufs/chpc.utah.edu/sys/installdir/gaussian16/C01/AVX2/g16/l1.exe "/scratch/general/lustre/u6032257/3857490/notchpeak.peaks/Gau-14210.inp" -scrdir="/scratch/general/lustre/u6032257/3857490/notchpeak.peaks/"
 Entering Link 1 = /uufs/chpc.utah.edu/sys/installdir/gaussian16/C01/AVX2/g16/l1.exe PID=     14212.
  
 Copyright (c) 1988-2019, Gaussian, Inc.  All Rights Reserved.
  
 This is part of the Gaussian(R) 16 program.  It is based on
 the Gaussian(R) 09 system (copyright 2009, Gaussian, Inc.),
 the Gaussian(R) 03 system (copyright 2003, Gaussian, Inc.),
 the Gaussian(R) 98 system (copyright 1998, Gaussian, Inc.),
 the Gaussian(R) 94 system (copyright 1995, Gaussian, Inc.),
 the Gaussian 92(TM) system (copyright 1992, Gaussian, Inc.),
 the Gaussian 90(TM) system (copyright 1990, Gaussian, Inc.),
 the Gaussian 88(TM) system (copyright 1988, Gaussian, Inc.),
 the Gaussian 86(TM) system (copyright 1986, Carnegie Mellon
 University), and the Gaussian 82(TM) system (copyright 1983,
 Carnegie Mellon University). Gaussian is a federally registered
 trademark of Gaussian, Inc.
  
 This software contains proprietary and confidential information,
 including trade secrets, belonging to Gaussian, Inc.
  
 This software is provided under written license and may be
 used, copied, transmitted, or stored only in accord with that
 written license.
  
 The following legend is applicable only to US Government
 contracts under FAR:
  
                    RESTRICTED RIGHTS LEGEND
  
 Use, reproduction and disclosure by the US Government is
 subject to restrictions as set forth in subparagraphs (a)
 and (c) of the Commercial Computer Software - Restricted
 Rights clause in FAR 52.227-19.
  
 Gaussian, Inc.
 340 Quinnipiac St., Bldg. 40, Wallingford CT 06492
  
  
 ---------------------------------------------------------------
 Warning -- This program may not be used in any manner that
 competes with the business of Gaussian, Inc. or will provide
 assistance to any competitor of Gaussian, Inc.  The licensee
 of this program is prohibited from giving any competitor of
 Gaussian, Inc. access to this program.  By using this program,
 the user acknowledges that Gaussian, Inc. is engaged in the
 business of creating and licensing software in the field of
 computational chemistry and represents and warrants to the
 licensee that it is not a competitor of Gaussian, Inc. and that
 it will not use this program in any manner prohibited above.
 ---------------------------------------------------------------
  

 Cite this work as:
 Gaussian 16, Revision C.01,
 M. J. Frisch, G. W. Trucks, H. B. Schlegel, G. E. Scuseria, 
 M. A. Robb, J. R. Cheeseman, G. Scalmani, V. Barone, 
 G. A. Petersson, H. Nakatsuji, X. Li, M. Caricato, A. V. Marenich, 
 J. Bloino, B. G. Janesko, R. Gomperts, B. Mennucci, H. P. Hratchian, 
 J. V. Ortiz, A. F. Izmaylov, J. L. Sonnenberg, D. Williams-Young, 
 F. Ding, F. Lipparini, F. Egidi, J. Goings, B. Peng, A. Petrone, 
 T. Henderson, D. Ranasinghe, V. G. Zakrzewski, J. Gao, N. Rega, 
 G. Zheng, W. Liang, M. Hada, M. Ehara, K. Toyota, R. Fukuda, 
 J. Hasegawa, M. Ishida, T. Nakajima, Y. Honda, O. Kitao, H. Nakai, 
 T. Vreven, K. Throssell, J. A. Montgomery, Jr., J. E. Peralta, 
 F. Ogliaro, M. J. Bearpark, J. J. Heyd, E. N. Brothers, K. N. Kudin, 
 V. N. Staroverov, T. A. Keith, R. Kobayashi, J. Normand, 
 K. Raghavachari, A. P. Rendell, J. C. Burant, S. S. Iyengar, 
 J. Tomasi, M. Cossi, J. M. Millam, M. Klene, C. Adamo, R. Cammi, 
 J. W. Ochterski, R. L. Martin, K. Morokuma, O. Farkas, 
 J. B. Foresman, and D. J. Fox, Gaussian, Inc., Wallingford CT, 2019.
 
 ******************************************
 Gaussian 16:  ES64L-G16RevC.01  3-Jul-2019
                 3-Feb-2022 
 ******************************************
 %NProcShared=32
 Will use up to   32 processors via shared memory.
 %mem=16GB
 %chk=Ac1_clust-33.chk
 ----------------------------------------------------------------------
 # B3LYP/6-31G(d,p) empiricaldispersion=GD3BJ int=(grid=ultrafine) opt 
 freq=noraman
 ----------------------------------------------------------------------
 1/18=20,19=15,26=4,38=1/1,3;
 2/9=110,12=2,17=6,18=5,40=1/2;
 3/5=1,6=6,7=101,11=2,25=1,30=1,71=1,74=-5,75=-5,124=41/1,2,3;
 4//1;
 5/5=2,38=5/2;
 6/7=2,8=2,9=2,10=2,28=1/1;
 7//1,2,3,16;
 1/18=20,19=15,26=4/3(2);
 2/9=110/2;
 99//99;
 2/9=110/2;
 3/5=1,6=6,7=101,11=2,25=1,30=1,71=1,74=-5,75=-5,124=41/1,2,3;
 4/5=5,16=3,69=1/1;
 5/5=2,38=5/2;
 7//1,2,3,16;
 1/18=20,19=15,26=4/3(-5);
 2/9=110/2;
 6/7=2,8=2,9=2,10=2,19=2,28=1/1;
 99/9=1/99;
 -------
 Ac1.xyz
 -------
 Symbolic Z-matrix:
 Charge =  0 Multiplicity = 1
 O                     5.8071    0.3891   -0.4823 
 C                     5.4957   -0.5914    0.3927 
 C                     4.4894   -1.5851   -0.1772 
 C                     3.0919   -0.9696   -0.4288 
 C                     2.0224   -2.0042   -0.8303 
 C                     2.2821   -2.6835   -2.1888 
 C                     1.148    -3.6427   -2.5987 
 C                     1.415    -4.4167   -3.9049 
 C                     1.4696   -3.5314   -5.165 
 C                     1.6427   -4.348    -6.4571 
 C                     1.6997   -3.4658   -7.7121 
 O                     5.9803   -0.6725    1.5116 
 H                     6.4388    0.9328   -0.0108 
 H                     4.4136   -2.409     0.5326 
 H                     4.9138   -1.9956   -1.0923 
 H                     2.7491   -0.4595    0.4747 
 H                     3.1555   -0.1987   -1.2005 
 H                     1.9367   -2.762    -0.0493 
 H                     1.0525   -1.5044   -0.8641 
 H                     2.4103   -1.9155   -2.9528 
 H                     3.2211   -3.2372   -2.1514 
 H                     0.9889   -4.3655   -1.7964 
 H                     0.211    -3.0899   -2.6881 
 H                     0.6278   -5.1623   -4.0305 
 H                     2.3441   -4.9817   -3.8107 
 H                     0.5567   -2.9368   -5.231 
 H                     2.2917   -2.8193   -5.0812 
 H                     2.5548   -4.9443   -6.3956 
 H                     0.821    -5.0595   -6.5559 
 H                     2.5366   -2.7676   -7.6692 
 H                     1.8223   -4.0718   -8.6104 
 H                     0.785    -2.8835   -7.8301 
 

 GradGradGradGradGradGradGradGradGradGradGradGradGradGradGradGradGradGrad
 Berny optimization.
 Initialization pass.
                           ----------------------------
                           !    Initial Parameters    !
                           ! (Angstroms and Degrees)  !
 --------------------------                            --------------------------
 ! Name  Definition              Value          Derivative Info.                !
 --------------------------------------------------------------------------------
 ! R1    R(1,2)                  1.3505         estimate D2E/DX2                !
 ! R2    R(1,13)                 0.9576         estimate D2E/DX2                !
 ! R3    R(2,3)                  1.5248         estimate D2E/DX2                !
 ! R4    R(2,12)                 1.222          estimate D2E/DX2                !
 ! R5    R(3,4)                  1.5476         estimate D2E/DX2                !
 ! R6    R(3,14)                 1.0901         estimate D2E/DX2                !
 ! R7    R(3,15)                 1.0891         estimate D2E/DX2                !
 ! R8    R(4,5)                  1.5412         estimate D2E/DX2                !
 ! R9    R(4,16)                 1.0927         estimate D2E/DX2                !
 ! R10   R(4,17)                 1.0926         estimate D2E/DX2                !
 ! R11   R(5,6)                  1.5409         estimate D2E/DX2                !
 ! R12   R(5,18)                 1.0916         estimate D2E/DX2                !
 ! R13   R(5,19)                 1.0916         estimate D2E/DX2                !
 ! R14   R(6,7)                  1.5409         estimate D2E/DX2                !
 ! R15   R(6,20)                 1.0909         estimate D2E/DX2                !
 ! R16   R(6,21)                 1.0907         estimate D2E/DX2                !
 ! R17   R(7,8)                  1.5416         estimate D2E/DX2                !
 ! R18   R(7,22)                 1.0915         estimate D2E/DX2                !
 ! R19   R(7,23)                 1.0916         estimate D2E/DX2                !
 ! R20   R(8,9)                  1.541          estimate D2E/DX2                !
 ! R21   R(8,24)                 1.0915         estimate D2E/DX2                !
 ! R22   R(8,25)                 1.0915         estimate D2E/DX2                !
 ! R23   R(9,10)                 1.5383         estimate D2E/DX2                !
 ! R24   R(9,26)                 1.0915         estimate D2E/DX2                !
 ! R25   R(9,27)                 1.0909         estimate D2E/DX2                !
 ! R26   R(10,11)                1.5351         estimate D2E/DX2                !
 ! R27   R(10,28)                1.0915         estimate D2E/DX2                !
 ! R28   R(10,29)                1.0914         estimate D2E/DX2                !
 ! R29   R(11,30)                1.0907         estimate D2E/DX2                !
 ! R30   R(11,31)                1.0905         estimate D2E/DX2                !
 ! R31   R(11,32)                1.0907         estimate D2E/DX2                !
 ! A1    A(2,1,13)             104.2            estimate D2E/DX2                !
 ! A2    A(1,2,3)              112.5296         estimate D2E/DX2                !
 ! A3    A(1,2,12)             123.3641         estimate D2E/DX2                !
 ! A4    A(3,2,12)             124.1035         estimate D2E/DX2                !
 ! A5    A(2,3,4)              113.4238         estimate D2E/DX2                !
 ! A6    A(2,3,14)             107.1623         estimate D2E/DX2                !
 ! A7    A(2,3,15)             107.6094         estimate D2E/DX2                !
 ! A8    A(4,3,14)             110.0991         estimate D2E/DX2                !
 ! A9    A(4,3,15)             111.4198         estimate D2E/DX2                !
 ! A10   A(14,3,15)            106.818          estimate D2E/DX2                !
 ! A11   A(3,4,5)              113.7025         estimate D2E/DX2                !
 ! A12   A(3,4,16)             109.5432         estimate D2E/DX2                !
 ! A13   A(3,4,17)             110.051          estimate D2E/DX2                !
 ! A14   A(5,4,16)             108.1235         estimate D2E/DX2                !
 ! A15   A(5,4,17)             109.2699         estimate D2E/DX2                !
 ! A16   A(16,4,17)            105.8355         estimate D2E/DX2                !
 ! A17   A(4,5,6)              114.1195         estimate D2E/DX2                !
 ! A18   A(4,5,18)             109.5183         estimate D2E/DX2                !
 ! A19   A(4,5,19)             108.4976         estimate D2E/DX2                !
 ! A20   A(6,5,18)             109.7529         estimate D2E/DX2                !
 ! A21   A(6,5,19)             108.9222         estimate D2E/DX2                !
 ! A22   A(18,5,19)            105.6788         estimate D2E/DX2                !
 ! A23   A(5,6,7)              112.6382         estimate D2E/DX2                !
 ! A24   A(5,6,20)             109.0806         estimate D2E/DX2                !
 ! A25   A(5,6,21)             109.7946         estimate D2E/DX2                !
 ! A26   A(7,6,20)             109.7828         estimate D2E/DX2                !
 ! A27   A(7,6,21)             109.0709         estimate D2E/DX2                !
 ! A28   A(20,6,21)            106.2744         estimate D2E/DX2                !
 ! A29   A(6,7,8)              114.2343         estimate D2E/DX2                !
 ! A30   A(6,7,22)             108.9031         estimate D2E/DX2                !
 ! A31   A(6,7,23)             109.7747         estimate D2E/DX2                !
 ! A32   A(8,7,22)             108.3948         estimate D2E/DX2                !
 ! A33   A(8,7,23)             109.4837         estimate D2E/DX2                !
 ! A34   A(22,7,23)            105.6897         estimate D2E/DX2                !
 ! A35   A(7,8,9)              114.2398         estimate D2E/DX2                !
 ! A36   A(7,8,24)             108.3943         estimate D2E/DX2                !
 ! A37   A(7,8,25)             109.524          estimate D2E/DX2                !
 ! A38   A(9,8,24)             108.899          estimate D2E/DX2                !
 ! A39   A(9,8,25)             109.7432         estimate D2E/DX2                !
 ! A40   A(24,8,25)            105.6788         estimate D2E/DX2                !
 ! A41   A(8,9,10)             112.6979         estimate D2E/DX2                !
 ! A42   A(8,9,26)             109.4381         estimate D2E/DX2                !
 ! A43   A(8,9,27)             109.811          estimate D2E/DX2                !
 ! A44   A(10,9,26)            109.4218         estimate D2E/DX2                !
 ! A45   A(10,9,27)            109.0418         estimate D2E/DX2                !
 ! A46   A(26,9,27)            106.2219         estimate D2E/DX2                !
 ! A47   A(9,10,11)            112.6936         estimate D2E/DX2                !
 ! A48   A(9,10,28)            109.6777         estimate D2E/DX2                !
 ! A49   A(9,10,29)            109.7175         estimate D2E/DX2                !
 ! A50   A(11,10,28)           109.2084         estimate D2E/DX2                !
 ! A51   A(11,10,29)           109.1831         estimate D2E/DX2                !
 ! A52   A(28,10,29)           106.1468         estimate D2E/DX2                !
 ! A53   A(10,11,30)           111.3582         estimate D2E/DX2                !
 ! A54   A(10,11,31)           110.9933         estimate D2E/DX2                !
 ! A55   A(10,11,32)           111.3529         estimate D2E/DX2                !
 ! A56   A(30,11,31)           107.5688         estimate D2E/DX2                !
 ! A57   A(30,11,32)           107.8166         estimate D2E/DX2                !
 ! A58   A(31,11,32)           107.5679         estimate D2E/DX2                !
 ! D1    D(13,1,2,3)          -179.7502         estimate D2E/DX2                !
 ! D2    D(13,1,2,12)           -0.3458         estimate D2E/DX2                !
 ! D3    D(1,2,3,4)            -66.4845         estimate D2E/DX2                !
 ! D4    D(1,2,3,14)           171.7963         estimate D2E/DX2                !
 ! D5    D(1,2,3,15)            57.2312         estimate D2E/DX2                !
 ! D6    D(12,2,3,4)           114.1163         estimate D2E/DX2                !
 ! D7    D(12,2,3,14)           -7.6029         estimate D2E/DX2                !
 ! D8    D(12,2,3,15)         -122.168          estimate D2E/DX2                !
 ! D9    D(2,3,4,5)           -172.5095         estimate D2E/DX2                !
 ! D10   D(2,3,4,16)           -51.423          estimate D2E/DX2                !
 ! D11   D(2,3,4,17)            64.5403         estimate D2E/DX2                !
 ! D12   D(14,3,4,5)           -52.4454         estimate D2E/DX2                !
 ! D13   D(14,3,4,16)           68.6411         estimate D2E/DX2                !
 ! D14   D(14,3,4,17)         -175.3956         estimate D2E/DX2                !
 ! D15   D(15,3,4,5)            65.8819         estimate D2E/DX2                !
 ! D16   D(15,3,4,16)         -173.0317         estimate D2E/DX2                !
 ! D17   D(15,3,4,17)          -57.0683         estimate D2E/DX2                !
 ! D18   D(3,4,5,6)            -65.3572         estimate D2E/DX2                !
 ! D19   D(3,4,5,18)            58.1183         estimate D2E/DX2                !
 ! D20   D(3,4,5,19)           173.0117         estimate D2E/DX2                !
 ! D21   D(16,4,5,6)           172.7656         estimate D2E/DX2                !
 ! D22   D(16,4,5,18)          -63.7589         estimate D2E/DX2                !
 ! D23   D(16,4,5,19)           51.1345         estimate D2E/DX2                !
 ! D24   D(17,4,5,6)            58.0201         estimate D2E/DX2                !
 ! D25   D(17,4,5,18)         -178.5044         estimate D2E/DX2                !
 ! D26   D(17,4,5,19)          -63.611          estimate D2E/DX2                !
 ! D27   D(4,5,6,7)           -176.2996         estimate D2E/DX2                !
 ! D28   D(4,5,6,20)           -54.1398         estimate D2E/DX2                !
 ! D29   D(4,5,6,21)            61.9415         estimate D2E/DX2                !
 ! D30   D(18,5,6,7)            60.3518         estimate D2E/DX2                !
 ! D31   D(18,5,6,20)         -177.4884         estimate D2E/DX2                !
 ! D32   D(18,5,6,21)          -61.4071         estimate D2E/DX2                !
 ! D33   D(19,5,6,7)           -54.9031         estimate D2E/DX2                !
 ! D34   D(19,5,6,20)           67.2567         estimate D2E/DX2                !
 ! D35   D(19,5,6,21)         -176.6619         estimate D2E/DX2                !
 ! D36   D(5,6,7,8)           -175.9647         estimate D2E/DX2                !
 ! D37   D(5,6,7,22)           -54.6371         estimate D2E/DX2                !
 ! D38   D(5,6,7,23)            60.632          estimate D2E/DX2                !
 ! D39   D(20,6,7,8)            62.2725         estimate D2E/DX2                !
 ! D40   D(20,6,7,22)         -176.3999         estimate D2E/DX2                !
 ! D41   D(20,6,7,23)          -61.1308         estimate D2E/DX2                !
 ! D42   D(21,6,7,8)           -53.7966         estimate D2E/DX2                !
 ! D43   D(21,6,7,22)           67.5309         estimate D2E/DX2                !
 ! D44   D(21,6,7,23)         -177.2            estimate D2E/DX2                !
 ! D45   D(6,7,8,9)            -66.263          estimate D2E/DX2                !
 ! D46   D(6,7,8,24)           172.1311         estimate D2E/DX2                !
 ! D47   D(6,7,8,25)            57.2911         estimate D2E/DX2                !
 ! D48   D(22,7,8,9)           172.1291         estimate D2E/DX2                !
 ! D49   D(22,7,8,24)           50.5232         estimate D2E/DX2                !
 ! D50   D(22,7,8,25)          -64.3168         estimate D2E/DX2                !
 ! D51   D(23,7,8,9)            57.2972         estimate D2E/DX2                !
 ! D52   D(23,7,8,24)          -64.3087         estimate D2E/DX2                !
 ! D53   D(23,7,8,25)         -179.1487         estimate D2E/DX2                !
 ! D54   D(7,8,9,10)          -176.129          estimate D2E/DX2                !
 ! D55   D(7,8,9,26)           -54.1351         estimate D2E/DX2                !
 ! D56   D(7,8,9,27)            62.0971         estimate D2E/DX2                !
 ! D57   D(24,8,9,10)          -54.8013         estimate D2E/DX2                !
 ! D58   D(24,8,9,26)           67.1925         estimate D2E/DX2                !
 ! D59   D(24,8,9,27)         -176.5753         estimate D2E/DX2                !
 ! D60   D(25,8,9,10)           60.4351         estimate D2E/DX2                !
 ! D61   D(25,8,9,26)         -177.571          estimate D2E/DX2                !
 ! D62   D(25,8,9,27)          -61.3388         estimate D2E/DX2                !
 ! D63   D(8,9,10,11)         -179.8933         estimate D2E/DX2                !
 ! D64   D(8,9,10,28)          -58.0043         estimate D2E/DX2                !
 ! D65   D(8,9,10,29)           58.2215         estimate D2E/DX2                !
 ! D66   D(26,9,10,11)          58.1036         estimate D2E/DX2                !
 ! D67   D(26,9,10,28)         179.9926         estimate D2E/DX2                !
 ! D68   D(26,9,10,29)         -63.7816         estimate D2E/DX2                !
 ! D69   D(27,9,10,11)         -57.6851         estimate D2E/DX2                !
 ! D70   D(27,9,10,28)          64.204          estimate D2E/DX2                !
 ! D71   D(27,9,10,29)        -179.5702         estimate D2E/DX2                !
 ! D72   D(9,10,11,30)          60.2            estimate D2E/DX2                !
 ! D73   D(9,10,11,31)        -179.9842         estimate D2E/DX2                !
 ! D74   D(9,10,11,32)         -60.1731         estimate D2E/DX2                !
 ! D75   D(28,10,11,30)        -61.9539         estimate D2E/DX2                !
 ! D76   D(28,10,11,31)         57.8618         estimate D2E/DX2                !
 ! D77   D(28,10,11,32)        177.6729         estimate D2E/DX2                !
 ! D78   D(29,10,11,30)       -177.6132         estimate D2E/DX2                !
 ! D79   D(29,10,11,31)        -57.7974         estimate D2E/DX2                !
 ! D80   D(29,10,11,32)         62.0136         estimate D2E/DX2                !
 --------------------------------------------------------------------------------
 Trust Radius=3.00D-01 FncErr=1.00D-07 GrdErr=1.00D-06 EigMax=2.50D+02 EigMin=1.00D-04
 Number of steps in this run=    179 maximum allowed number of steps=    192.
 GradGradGradGradGradGradGradGradGradGradGradGradGradGradGradGradGradGrad

                          Input orientation:                          
 ---------------------------------------------------------------------
 Center     Atomic      Atomic             Coordinates (Angstroms)
 Number     Number       Type             X           Y           Z
 ---------------------------------------------------------------------
      1          8           0        5.807100    0.389100   -0.482300
      2          6           0        5.495700   -0.591400    0.392700
      3          6           0        4.489400   -1.585100   -0.177200
      4          6           0        3.091900   -0.969600   -0.428800
      5          6           0        2.022400   -2.004200   -0.830300
      6          6           0        2.282100   -2.683500   -2.188800
      7          6           0        1.148000   -3.642700   -2.598700
      8          6           0        1.415000   -4.416700   -3.904900
      9          6           0        1.469600   -3.531400   -5.165000
     10          6           0        1.642700   -4.348000   -6.457100
     11          6           0        1.699700   -3.465800   -7.712100
     12          8           0        5.980300   -0.672500    1.511600
     13          1           0        6.438800    0.932800   -0.010800
     14          1           0        4.413600   -2.409000    0.532600
     15          1           0        4.913800   -1.995600   -1.092300
     16          1           0        2.749100   -0.459500    0.474700
     17          1           0        3.155500   -0.198700   -1.200500
     18          1           0        1.936700   -2.762000   -0.049300
     19          1           0        1.052500   -1.504400   -0.864100
     20          1           0        2.410300   -1.915500   -2.952800
     21          1           0        3.221100   -3.237200   -2.151400
     22          1           0        0.988900   -4.365500   -1.796400
     23          1           0        0.211000   -3.089900   -2.688100
     24          1           0        0.627800   -5.162300   -4.030500
     25          1           0        2.344100   -4.981700   -3.810700
     26          1           0        0.556700   -2.936800   -5.231000
     27          1           0        2.291700   -2.819300   -5.081200
     28          1           0        2.554800   -4.944300   -6.395600
     29          1           0        0.821000   -5.059500   -6.555900
     30          1           0        2.536600   -2.767600   -7.669200
     31          1           0        1.822300   -4.071800   -8.610400
     32          1           0        0.785000   -2.883500   -7.830100
 ---------------------------------------------------------------------
                    Distance matrix (angstroms):
                    1          2          3          4          5
     1  O    0.000000
     2  C    1.350546   0.000000
     3  C    2.393091   1.524751   0.000000
     4  C    3.036649   2.568297   1.547627   0.000000
     5  C    4.491430   3.944052   2.586170   1.541243   0.000000
     6  C    4.977815   4.622580   3.182010   2.586664   1.540914
     7  C    6.514735   6.096015   4.611110   3.953818   2.564468
     8  C    7.355301   7.053680   5.600504   5.174723   3.955029
     9  C    7.490788   7.465997   6.146985   5.623724   4.628990
    10  C    8.687956   8.710764   7.427951   7.060748   6.107246
    11  C    9.165206   9.399977   8.251920   7.824046   7.042697
    12  O    2.265531   1.222028   2.430569   3.492317   4.787786
    13  H    0.957584   1.837236   3.188678   3.872414   5.366762
    14  H    3.286522   2.119949   1.090125   2.177855   2.781941
    15  H    2.618564   2.124997   1.089052   2.193679   2.903259
    16  H    3.314715   2.750988   2.172693   1.092715   2.148771
    17  H    2.809324   2.858152   2.179114   1.092636   2.163514
    18  H    5.009682   4.192058   2.813846   2.165919   1.091589
    19  H    5.131991   4.706925   3.505799   2.152824   1.091627
    20  H    4.790908   4.739758   3.483644   2.780266   2.159477
    21  H    4.756400   4.318160   2.869753   2.850623   2.168519
    22  H    6.895515   6.272738   4.754570   4.221975   2.752673
    23  H    6.948765   6.607714   5.183990   4.230803   2.812710
    24  H    8.380508   8.009636   6.523514   6.051675   4.707418
    25  H    7.205283   6.846597   5.416782   5.300321   4.225137
    26  H    7.821666   7.843508   6.544778   5.775659   4.731192
    27  H    6.618289   6.722554   5.513833   5.070161   4.336711
    28  H    8.601728   8.583568   7.327715   7.189535   6.316661
    29  H    9.562272   9.492090   8.137348   7.708802   6.600054
    30  H    8.503673   8.859252   7.832100   7.480946   6.900560
    31  H   10.091792  10.327771   9.187816   8.841612   8.052637
    32  H    9.482698   9.749813   8.600890   7.985239   7.162508
                    6          7          8          9         10
     6  C    0.000000
     7  C    1.540865   0.000000
     8  C    2.588599   1.541598   0.000000
     9  C    3.199509   2.588766   1.540970   0.000000
    10  C    4.625773   3.953407   2.563258   1.538285   0.000000
    11  C    5.608745   5.146118   3.934468   2.558313   1.535106
    12  O    5.604798   7.004840   8.012457   8.549661   9.788986
    13  H    5.924480   7.458216   8.307811   8.437287   9.614791
    14  H    3.467659   4.689477   5.719604   6.510727   7.764890
    15  H    2.932808   4.377605   5.100397   5.550503   6.709319
    16  H    3.501214   4.705536   6.051459   6.548275   8.024612
    17  H    2.813147   4.224471   5.304210   5.446688   6.865646
    18  H    2.168623   2.810182   4.227985   5.194280   6.607703
    19  H    2.158014   2.755047   4.226034   4.772886   6.302067
    20  H    1.090851   2.168411   2.855367   2.896529   4.334326
    21  H    1.090735   2.159225   2.779924   3.498012   4.718504
    22  H    2.157653   1.091530   2.151733   3.503464   4.706366
    23  H    2.168851   1.091581   2.165783   2.813189   4.223499
    24  H    3.503287   2.151707   1.091503   2.157673   2.753451
    25  H    2.813561   2.166223   1.091479   2.168467   2.810155
    26  H    3.506586   2.788715   2.164561   1.091463   2.161990
    27  H    2.895602   2.854618   2.168864   1.090852   2.156670
    28  H    4.783592   4.253199   2.789461   2.165253   1.091459
    29  H    5.181868   4.215885   2.791743   2.165727   1.091414
    30  H    5.486951   5.329538   4.259985   2.827171   2.183096
    31  H    6.586026   6.064598   4.735671   3.505312   2.178358
    32  H    5.839998   5.298651   4.260845   2.826873   2.183011
                   11         12         13         14         15
    11  C    0.000000
    12  O   10.545269   0.000000
    13  H   10.055684   2.259405   0.000000
    14  H    8.743978   2.535433   3.945167   0.000000
    15  H    7.504244   3.109391   3.474305   1.749686   0.000000
    16  H    8.784234   3.400174   3.973424   2.564072   3.082372
    17  H    7.429282   3.944549   3.670931   3.077642   2.516381
    18  H    7.698702   4.811769   5.824254   2.568706   3.246281
    19  H    7.152696   5.533464   5.973298   3.750475   3.899101
    20  H    5.055623   5.849856   5.744301   4.050280   3.120158
    21  H    5.769601   5.254373   5.685478   3.051529   2.351276
    22  H    6.025795   7.035282   7.807801   4.580470   4.638645
    23  H    5.253390   7.534330   7.882610   5.338387   5.085312
    24  H    4.193001   8.917535   9.331450   6.537188   6.085294
    25  H    4.234870   7.753582   8.135547   5.455811   4.786423
    26  H    2.782471   8.944560   8.764895   6.955094   6.082682
    27  H    2.773096   7.853632   7.548884   6.015443   4.844091
    28  H    2.156462   9.618011   9.507441   7.608077   6.510354
    29  H    2.156106  10.533219  10.502651   8.377276   7.482608
    30  H    1.090745  10.026744   9.357949   8.421475   7.035814
    31  H    1.090509  11.458581  10.968647   9.647496   8.389863
    32  H    1.090721  10.915449  10.376466   9.128343   7.951937
                   16         17         18         19         20
    16  H    0.000000
    17  H    1.743408   0.000000
    18  H    2.497214   3.062881   0.000000
    19  H    2.400553   2.498125   1.739904   0.000000
    20  H    3.739315   2.563841   3.061237   2.524934   0.000000
    21  H    3.851597   3.184493   2.508849   3.059831   1.745431
    22  H    4.849024   4.734076   2.553800   3.009837   3.059434
    23  H    4.833659   4.386579   3.169988   2.559084   2.507230
    24  H    6.849312   6.247839   4.829556   4.856613   3.857519
    25  H    6.243314   5.508957   4.386476   4.737330   3.184644
    26  H    6.595350   5.522308   5.365163   4.622489   3.109515
    27  H    6.053585   4.761673   5.044732   4.587866   2.315385
    28  H    8.206839   7.061914   6.739437   6.684857   4.587743
    29  H    8.620145   7.599841   6.989931   6.714828   5.039141
    30  H    8.467325   6.987586   7.643480   7.078673   4.794419
    31  H    9.820729   8.466696   8.661472   8.196908   6.083076
    32  H    8.871481   7.535185   7.866513   7.106239   5.231317
                   21         22         23         24         25
    21  H    0.000000
    22  H    2.526223   0.000000
    23  H    3.061118   1.739946   0.000000
    24  H    3.736607   2.399268   2.504117   0.000000
    25  H    2.562359   2.504730   3.064189   1.739717   0.000000
    26  H    4.083283   3.744924   2.570854   2.529645   3.064909
    27  H    3.101960   3.857192   3.182682   3.059768   2.508563
    28  H    4.622919   4.892821   4.762117   3.058521   2.593743
    29  H    5.336748   4.812761   4.383070   2.534865   3.140384
    30  H    5.579891   6.280003   5.506691   4.755864   4.452788
    31  H    6.661222   6.871056   6.215630   4.857109   4.912974
    32  H    6.189291   6.216384   5.178054   4.433351   4.794665
                   26         27         28         29         30
    26  H    0.000000
    27  H    1.745414   0.000000
    28  H    3.062475   2.512468   0.000000
    29  H    2.516162   3.058790   1.745001   0.000000
    30  H    3.145386   2.600076   2.521986   3.071730   0.000000
    31  H    3.782897   3.774168   2.490613   2.489804   1.759835
    32  H    2.609652   3.135398   3.071950   2.521876   1.762789
                   31         32
    31  H    0.000000
    32  H    1.759806   0.000000
 Stoichiometry    C10H20O2
 Framework group  C1[X(C10H20O2)]
 Deg. of freedom    90
 Full point group                 C1      NOp   1
 Largest Abelian subgroup         C1      NOp   1
 Largest concise Abelian subgroup C1      NOp   1
                         Standard orientation:                         
 ---------------------------------------------------------------------
 Center     Atomic      Atomic             Coordinates (Angstroms)
 Number     Number       Type             X           Y           Z
 ---------------------------------------------------------------------
      1          8           0        3.930727    1.824597    0.410342
      2          6           0        4.071885    0.681070   -0.294211
      3          6           0        2.752554   -0.062364   -0.471798
      4          6           0        2.172280   -0.611053    0.853861
      5          6           0        0.939856   -1.516639    0.662875
      6          6           0       -0.293357   -0.789745    0.092589
      7          6           0       -1.530610   -1.703552    0.000790
      8          6           0       -2.758526   -1.042041   -0.655830
      9          6           0       -3.359555    0.122024    0.155531
     10          6           0       -4.636816    0.693636   -0.483364
     11          6           0       -5.234018    1.854972    0.323606
     12          8           0        5.140630    0.297613   -0.745982
     13          1           0        4.815360    2.189492    0.445615
     14          1           0        2.935846   -0.881124   -1.167792
     15          1           0        2.055073    0.616425   -0.960467
     16          1           0        2.939082   -1.186647    1.378010
     17          1           0        1.912708    0.215479    1.519684
     18          1           0        1.202107   -2.358555    0.019472
     19          1           0        0.678150   -1.953546    1.628417
     20          1           0       -0.518616    0.074941    0.718315
     21          1           0       -0.065229   -0.398020   -0.899485
     22          1           0       -1.270540   -2.594195   -0.574150
     23          1           0       -1.799163   -2.062647    0.996018
     24          1           0       -3.525194   -1.805484   -0.799890
     25          1           0       -2.494847   -0.696214   -1.656930
     26          1           0       -3.581372   -0.217873    1.168724
     27          1           0       -2.623785    0.921041    0.256379
     28          1           0       -4.419613    1.035033   -1.497047
     29          1           0       -5.383972   -0.095740   -0.582501
     30          1           0       -4.529479    2.683297    0.408620
     31          1           0       -6.136830    2.238329   -0.153025
     32          1           0       -5.502714    1.540476    1.332847
 ---------------------------------------------------------------------
 Rotational constants (GHZ):           1.6642144           0.2340663           0.2157941
 Standard basis: 6-31G(d,p) (6D, 7F)
 There are   280 symmetry adapted cartesian basis functions of A   symmetry.
 There are   280 symmetry adapted basis functions of A   symmetry.
   280 basis functions,   476 primitive gaussians,   280 cartesian basis functions
    48 alpha electrons       48 beta electrons
       nuclear repulsion energy       685.0408315768 Hartrees.
 NAtoms=   32 NActive=   32 NUniq=   32 SFac= 1.00D+00 NAtFMM=   60 NAOKFM=F Big=F
 Integral buffers will be    131072 words long.
 Raffenetti 2 integral format.
 Two-electron integral symmetry is turned on.
 Nuclear repulsion after empirical dispersion term =      684.9948072880 Hartrees.
 One-electron integrals computed using PRISM.
 NBasis=   280 RedAO= T EigKep=  2.72D-03  NBF=   280
 NBsUse=   280 1.00D-06 EigRej= -1.00D+00 NBFU=   280
 ExpMin= 1.61D-01 ExpMax= 5.48D+03 ExpMxC= 8.25D+02 IAcc=3 IRadAn=         5 AccDes= 0.00D+00
 Harris functional with IExCor=  402 and IRadAn=       5 diagonalized for initial guess.
 HarFok:  IExCor=  402 AccDes= 0.00D+00 IRadAn=         5 IDoV= 1 UseB2=F ITyADJ=14
 ICtDFT=  3500011 ScaDFX=  1.000000  1.000000  1.000000  1.000000
 FoFCou: FMM=F IPFlag=           0 FMFlag=      100000 FMFlg1=           0
         NFxFlg=           0 DoJE=T BraDBF=F KetDBF=T FulRan=T
         wScrn=  0.000000 ICntrl=       500 IOpCl=  0 I1Cent=   200000004 NGrid=           0
         NMat0=    1 NMatS0=      1 NMatT0=    0 NMatD0=    1 NMtDS0=    0 NMtDT0=    0
 Petite list used in FoFCou.
 Requested convergence on RMS density matrix=1.00D-08 within 128 cycles.
 Requested convergence on MAX density matrix=1.00D-06.
 Requested convergence on             energy=1.00D-06.
 No special actions if energy rises.
 Integral accuracy reduced to 1.0D-05 until final iterations.
 Initial convergence to 1.0D-05 achieved.  Increase integral accuracy.
 SCF Done:  E(RB3LYP) =  -543.664878077     A.U. after   13 cycles
            NFock= 13  Conv=0.80D-08     -V/T= 2.0096

 **********************************************************************

            Population analysis using the SCF Density.

 **********************************************************************

 Orbital symmetries:
       Occupied  (A) (A) (A) (A) (A) (A) (A) (A) (A) (A) (A) (A)
                 (A) (A) (A) (A) (A) (A) (A) (A) (A) (A) (A) (A)
                 (A) (A) (A) (A) (A) (A) (A) (A) (A) (A) (A) (A)
                 (A) (A) (A) (A) (A) (A) (A) (A) (A) (A) (A) (A)
       Virtual   (A) (A) (A) (A) (A) (A) (A) (A) (A) (A) (A) (A)
                 (A) (A) (A) (A) (A) (A) (A) (A) (A) (A) (A) (A)
                 (A) (A) (A) (A) (A) (A) (A) (A) (A) (A) (A) (A)
                 (A) (A) (A) (A) (A) (A) (A) (A) (A) (A) (A) (A)
                 (A) (A) (A) (A) (A) (A) (A) (A) (A) (A) (A) (A)
                 (A) (A) (A) (A) (A) (A) (A) (A) (A) (A) (A) (A)
                 (A) (A) (A) (A) (A) (A) (A) (A) (A) (A) (A) (A)
                 (A) (A) (A) (A) (A) (A) (A) (A) (A) (A) (A) (A)
                 (A) (A) (A) (A) (A) (A) (A) (A) (A) (A) (A) (A)
                 (A) (A) (A) (A) (A) (A) (A) (A) (A) (A) (A) (A)
                 (A) (A) (A) (A) (A) (A) (A) (A) (A) (A) (A) (A)
                 (A) (A) (A) (A) (A) (A) (A) (A) (A) (A) (A) (A)
                 (A) (A) (A) (A) (A) (A) (A) (A) (A) (A) (A) (A)
                 (A) (A) (A) (A) (A) (A) (A) (A) (A) (A) (A) (A)
                 (A) (A) (A) (A) (A) (A) (A) (A) (A) (A) (A) (A)
                 (A) (A) (A) (A) (A) (A) (A) (A) (A) (A) (A) (A)
                 (A) (A) (A) (A) (A) (A) (A) (A) (A) (A) (A) (A)
                 (A) (A) (A) (A) (A) (A) (A) (A) (A) (A) (A) (A)
                 (A) (A) (A) (A) (A) (A) (A) (A) (A) (A) (A) (A)
                 (A) (A) (A) (A)
 The electronic state is 1-A.
 Alpha  occ. eigenvalues --  -19.19828 -19.13545 -10.31911 -10.19807 -10.19193
 Alpha  occ. eigenvalues --  -10.18361 -10.17948 -10.17810 -10.17721 -10.17651
 Alpha  occ. eigenvalues --  -10.17525 -10.17035  -1.10658  -1.00957  -0.81485
 Alpha  occ. eigenvalues --   -0.79684  -0.76776  -0.73122  -0.68792  -0.64518
 Alpha  occ. eigenvalues --   -0.60858  -0.58941  -0.58052  -0.56646  -0.48916
 Alpha  occ. eigenvalues --   -0.48177  -0.47513  -0.46517  -0.44855  -0.44144
 Alpha  occ. eigenvalues --   -0.42281  -0.41972  -0.41272  -0.39849  -0.39136
 Alpha  occ. eigenvalues --   -0.38478  -0.37287  -0.36582  -0.35422  -0.34320
 Alpha  occ. eigenvalues --   -0.33477  -0.32970  -0.32613  -0.32071  -0.31457
 Alpha  occ. eigenvalues --   -0.30980  -0.30359  -0.26774
 Alpha virt. eigenvalues --    0.00966   0.07804   0.09028   0.09893   0.11038
 Alpha virt. eigenvalues --    0.11292   0.11806   0.13296   0.13847   0.14581
 Alpha virt. eigenvalues --    0.16235   0.16553   0.16796   0.17422   0.18012
 Alpha virt. eigenvalues --    0.18689   0.18919   0.19461   0.20199   0.21186
 Alpha virt. eigenvalues --    0.21348   0.22124   0.23234   0.24354   0.25055
 Alpha virt. eigenvalues --    0.25790   0.26022   0.26721   0.28404   0.29991
 Alpha virt. eigenvalues --    0.32805   0.35563   0.48219   0.49746   0.50027
 Alpha virt. eigenvalues --    0.51740   0.52406   0.53359   0.53615   0.54618
 Alpha virt. eigenvalues --    0.55615   0.56968   0.58986   0.60370   0.61172
 Alpha virt. eigenvalues --    0.63517   0.64639   0.65070   0.66038   0.66215
 Alpha virt. eigenvalues --    0.67807   0.68651   0.71914   0.73142   0.74517
 Alpha virt. eigenvalues --    0.75670   0.76893   0.77565   0.79482   0.81243
 Alpha virt. eigenvalues --    0.82028   0.84398   0.84610   0.85512   0.86309
 Alpha virt. eigenvalues --    0.86775   0.88154   0.89394   0.90029   0.90764
 Alpha virt. eigenvalues --    0.91647   0.91787   0.92231   0.92688   0.93404
 Alpha virt. eigenvalues --    0.93639   0.93785   0.95230   0.95912   0.96775
 Alpha virt. eigenvalues --    0.97287   0.98101   1.01088   1.03452   1.06304
 Alpha virt. eigenvalues --    1.07088   1.08586   1.09644   1.12807   1.17444
 Alpha virt. eigenvalues --    1.21642   1.27952   1.29864   1.31996   1.34323
 Alpha virt. eigenvalues --    1.37034   1.38384   1.39352   1.43524   1.47994
 Alpha virt. eigenvalues --    1.49795   1.50428   1.51357   1.53951   1.56589
 Alpha virt. eigenvalues --    1.58574   1.62101   1.64490   1.66593   1.68716
 Alpha virt. eigenvalues --    1.69556   1.71008   1.71356   1.71777   1.75742
 Alpha virt. eigenvalues --    1.76148   1.76272   1.79934   1.81275   1.83354
 Alpha virt. eigenvalues --    1.84328   1.84882   1.85901   1.86307   1.87479
 Alpha virt. eigenvalues --    1.88567   1.89884   1.90883   1.91002   1.94363
 Alpha virt. eigenvalues --    2.01851   2.05536   2.06090   2.07386   2.07582
 Alpha virt. eigenvalues --    2.08307   2.10162   2.11426   2.12778   2.14035
 Alpha virt. eigenvalues --    2.14159   2.16034   2.16499   2.17525   2.18307
 Alpha virt. eigenvalues --    2.21490   2.23235   2.24075   2.26591   2.27127
 Alpha virt. eigenvalues --    2.27651   2.29686   2.30963   2.31496   2.32417
 Alpha virt. eigenvalues --    2.34546   2.35719   2.37558   2.38759   2.40501
 Alpha virt. eigenvalues --    2.41754   2.44661   2.46083   2.47643   2.49575
 Alpha virt. eigenvalues --    2.50917   2.54332   2.55030   2.56881   2.60349
 Alpha virt. eigenvalues --    2.60721   2.62451   2.63564   2.65206   2.68117
 Alpha virt. eigenvalues --    2.68766   2.70440   2.73546   2.74452   2.76912
 Alpha virt. eigenvalues --    2.77992   2.78538   2.79327   2.81293   2.83880
 Alpha virt. eigenvalues --    2.85298   2.86137   2.86381   2.87726   2.89972
 Alpha virt. eigenvalues --    2.90544   2.91238   2.91419   2.91739   2.92574
 Alpha virt. eigenvalues --    2.94275   2.94490   2.96920   3.03257   3.11740
 Alpha virt. eigenvalues --    3.19548   3.24223   3.26939   3.29435   3.30442
 Alpha virt. eigenvalues --    3.32586   3.33732   3.33910   3.37584   3.38774
 Alpha virt. eigenvalues --    3.41312   3.44814   3.45821   3.47762   3.49007
 Alpha virt. eigenvalues --    3.52877   3.55549   3.58187   3.59484   3.60524
 Alpha virt. eigenvalues --    3.92009   4.10644   4.24026   4.29420   4.34783
 Alpha virt. eigenvalues --    4.43512   4.47971   4.54335   4.59663   4.67380
 Alpha virt. eigenvalues --    4.72984   4.76993
          Condensed to atoms (all electrons):
               1          2          3          4          5          6
     1  O    8.122121   0.246159  -0.100223   0.003359   0.000056  -0.000006
     2  C    0.246159   4.388947   0.341050  -0.024318   0.002400   0.000177
     3  C   -0.100223   0.341050   5.093027   0.348472  -0.037779  -0.004355
     4  C    0.003359  -0.024318   0.348472   4.915656   0.361705  -0.040382
     5  C    0.000056   0.002400  -0.037779   0.361705   4.913706   0.375547
     6  C   -0.000006   0.000177  -0.004355  -0.040382   0.375547   4.902697
     7  C   -0.000000  -0.000001   0.000101   0.003610  -0.033864   0.378239
     8  C    0.000000  -0.000000   0.000001  -0.000126   0.003470  -0.038565
     9  C    0.000000   0.000000  -0.000000   0.000000   0.000166  -0.005217
    10  C    0.000000   0.000000   0.000000  -0.000000  -0.000001   0.000158
    11  C    0.000000  -0.000000  -0.000000   0.000000  -0.000000   0.000000
    12  O   -0.083691   0.576864  -0.073053  -0.000650  -0.000066  -0.000000
    13  H    0.268232  -0.009548   0.010860  -0.000189   0.000009   0.000000
    14  H    0.003435  -0.032396   0.376028  -0.033810  -0.003653  -0.000853
    15  H    0.002474  -0.024000   0.357793  -0.028321  -0.005734   0.002721
    16  H   -0.000090  -0.001132  -0.044698   0.381222  -0.032474   0.004472
    17  H    0.003925  -0.004501  -0.037698   0.382707  -0.034625  -0.007179
    18  H   -0.000001  -0.000052  -0.007283  -0.037817   0.381470  -0.039501
    19  H    0.000001  -0.000107   0.004651  -0.032700   0.380611  -0.039531
    20  H   -0.000001  -0.000027  -0.000989  -0.002636  -0.040383   0.384387
    21  H    0.000001  -0.000021   0.002924  -0.004688  -0.039309   0.383072
    22  H   -0.000000  -0.000000  -0.000021   0.000121  -0.004464  -0.041002
    23  H   -0.000000   0.000000   0.000004  -0.000029  -0.003944  -0.040003
    24  H   -0.000000   0.000000   0.000000   0.000002  -0.000135   0.004616
    25  H   -0.000000   0.000000  -0.000002  -0.000000   0.000051  -0.007929
    26  H   -0.000000  -0.000000  -0.000000  -0.000000  -0.000025  -0.000841
    27  H    0.000000   0.000000   0.000001   0.000005  -0.000088   0.002388
    28  H   -0.000000   0.000000   0.000000   0.000000  -0.000000  -0.000018
    29  H    0.000000   0.000000   0.000000   0.000000   0.000000   0.000002
    30  H    0.000000  -0.000000  -0.000000  -0.000000   0.000000  -0.000002
    31  H    0.000000   0.000000   0.000000  -0.000000   0.000000   0.000000
    32  H   -0.000000   0.000000   0.000000   0.000000  -0.000000  -0.000000
               7          8          9         10         11         12
     1  O   -0.000000   0.000000   0.000000   0.000000   0.000000  -0.083691
     2  C   -0.000001  -0.000000   0.000000   0.000000  -0.000000   0.576864
     3  C    0.000101   0.000001  -0.000000   0.000000  -0.000000  -0.073053
     4  C    0.003610  -0.000126   0.000000  -0.000000   0.000000  -0.000650
     5  C   -0.033864   0.003470   0.000166  -0.000001  -0.000000  -0.000066
     6  C    0.378239  -0.038565  -0.005217   0.000158   0.000000  -0.000000
     7  C    4.910862   0.361051  -0.038127   0.003603  -0.000137   0.000000
     8  C    0.361051   4.912091   0.378486  -0.034735   0.003683   0.000000
     9  C   -0.038127   0.378486   4.888663   0.382105  -0.042280  -0.000000
    10  C    0.003603  -0.034735   0.382105   4.868179   0.367436   0.000000
    11  C   -0.000137   0.003683  -0.042280   0.367436   4.921389   0.000000
    12  O    0.000000   0.000000  -0.000000   0.000000   0.000000   8.031627
    13  H    0.000000  -0.000000   0.000000  -0.000000  -0.000000   0.011516
    14  H   -0.000024   0.000000  -0.000000   0.000000  -0.000000   0.002214
    15  H   -0.000117   0.000005   0.000001   0.000000  -0.000000   0.002125
    16  H   -0.000134   0.000002   0.000000   0.000000  -0.000000   0.001034
    17  H    0.000041  -0.000000  -0.000002   0.000000  -0.000000   0.000008
    18  H   -0.003798  -0.000015   0.000001   0.000000   0.000000  -0.000002
    19  H   -0.003968   0.000102  -0.000019  -0.000000   0.000000   0.000000
    20  H   -0.038437  -0.003755   0.002449  -0.000103   0.000007   0.000000
    21  H   -0.039441  -0.003037  -0.000854  -0.000024  -0.000000   0.000000
    22  H    0.376567  -0.031418   0.004539  -0.000139   0.000002   0.000000
    23  H    0.381424  -0.037400  -0.007573   0.000048  -0.000001  -0.000000
    24  H   -0.031522   0.376775  -0.040501  -0.004775   0.000074   0.000000
    25  H   -0.037586   0.380903  -0.039571  -0.003754   0.000021  -0.000000
    26  H   -0.003298  -0.040397   0.383019  -0.039727  -0.003245  -0.000000
    27  H   -0.003917  -0.038816   0.383890  -0.039298  -0.003094   0.000000
    28  H    0.000084  -0.003576  -0.039310   0.386505  -0.038561   0.000000
    29  H    0.000010  -0.004029  -0.039262   0.386381  -0.038564  -0.000000
    30  H    0.000002   0.000053  -0.005031  -0.034476   0.387160  -0.000000
    31  H    0.000002  -0.000149   0.004146  -0.026876   0.378506   0.000000
    32  H    0.000002   0.000055  -0.004949  -0.034557   0.387389   0.000000
              13         14         15         16         17         18
     1  O    0.268232   0.003435   0.002474  -0.000090   0.003925  -0.000001
     2  C   -0.009548  -0.032396  -0.024000  -0.001132  -0.004501  -0.000052
     3  C    0.010860   0.376028   0.357793  -0.044698  -0.037698  -0.007283
     4  C   -0.000189  -0.033810  -0.028321   0.381222   0.382707  -0.037817
     5  C    0.000009  -0.003653  -0.005734  -0.032474  -0.034625   0.381470
     6  C    0.000000  -0.000853   0.002721   0.004472  -0.007179  -0.039501
     7  C    0.000000  -0.000024  -0.000117  -0.000134   0.000041  -0.003798
     8  C   -0.000000   0.000000   0.000005   0.000002  -0.000000  -0.000015
     9  C    0.000000  -0.000000   0.000001   0.000000  -0.000002   0.000001
    10  C   -0.000000   0.000000   0.000000   0.000000   0.000000   0.000000
    11  C   -0.000000  -0.000000  -0.000000  -0.000000  -0.000000   0.000000
    12  O    0.011516   0.002214   0.002125   0.001034   0.000008  -0.000002
    13  H    0.401726  -0.000343  -0.000494  -0.000106  -0.000114   0.000000
    14  H   -0.000343   0.587373  -0.033174  -0.003969   0.005239   0.005200
    15  H   -0.000494  -0.033174   0.597406   0.005644  -0.005660  -0.000198
    16  H   -0.000106  -0.003969   0.005644   0.631536  -0.037836  -0.003056
    17  H   -0.000114   0.005239  -0.005660  -0.037836   0.615205   0.005801
    18  H    0.000000   0.005200  -0.000198  -0.003056   0.005801   0.639201
    19  H   -0.000000   0.000078  -0.000000  -0.004293  -0.003353  -0.039457
    20  H   -0.000000   0.000090   0.000439   0.000049   0.005531   0.005995
    21  H   -0.000000   0.000516   0.001754  -0.000050  -0.000237  -0.006080
    22  H   -0.000000   0.000001   0.000010   0.000004   0.000009   0.005153
    23  H    0.000000   0.000001  -0.000000  -0.000004   0.000002  -0.000468
    24  H    0.000000  -0.000000  -0.000000  -0.000000   0.000000  -0.000005
    25  H    0.000000   0.000000  -0.000003   0.000000   0.000000   0.000004
    26  H    0.000000   0.000000  -0.000000  -0.000000   0.000000   0.000001
    27  H    0.000000  -0.000000   0.000000  -0.000000  -0.000003  -0.000001
    28  H    0.000000   0.000000  -0.000000  -0.000000   0.000000   0.000000
    29  H    0.000000  -0.000000  -0.000000  -0.000000  -0.000000  -0.000000
    30  H   -0.000000   0.000000  -0.000000   0.000000  -0.000000  -0.000000
    31  H   -0.000000   0.000000   0.000000   0.000000   0.000000  -0.000000
    32  H   -0.000000  -0.000000  -0.000000  -0.000000  -0.000000  -0.000000
              19         20         21         22         23         24
     1  O    0.000001  -0.000001   0.000001  -0.000000  -0.000000  -0.000000
     2  C   -0.000107  -0.000027  -0.000021  -0.000000   0.000000   0.000000
     3  C    0.004651  -0.000989   0.002924  -0.000021   0.000004   0.000000
     4  C   -0.032700  -0.002636  -0.004688   0.000121  -0.000029   0.000002
     5  C    0.380611  -0.040383  -0.039309  -0.004464  -0.003944  -0.000135
     6  C   -0.039531   0.384387   0.383072  -0.041002  -0.040003   0.004616
     7  C   -0.003968  -0.038437  -0.039441   0.376567   0.381424  -0.031522
     8  C    0.000102  -0.003755  -0.003037  -0.031418  -0.037400   0.376775
     9  C   -0.000019   0.002449  -0.000854   0.004539  -0.007573  -0.040501
    10  C   -0.000000  -0.000103  -0.000024  -0.000139   0.000048  -0.004775
    11  C    0.000000   0.000007  -0.000000   0.000002  -0.000001   0.000074
    12  O    0.000000   0.000000   0.000000   0.000000  -0.000000   0.000000
    13  H   -0.000000  -0.000000  -0.000000  -0.000000   0.000000   0.000000
    14  H    0.000078   0.000090   0.000516   0.000001   0.000001  -0.000000
    15  H   -0.000000   0.000439   0.001754   0.000010  -0.000000  -0.000000
    16  H   -0.004293   0.000049  -0.000050   0.000004  -0.000004  -0.000000
    17  H   -0.003353   0.005531  -0.000237   0.000009   0.000002   0.000000
    18  H   -0.039457   0.005995  -0.006080   0.005153  -0.000468  -0.000005
    19  H    0.638304  -0.005385   0.006041  -0.000576   0.005058   0.000003
    20  H   -0.005385   0.636433  -0.042267   0.006090  -0.006159  -0.000036
    21  H    0.006041  -0.042267   0.643133  -0.005403   0.006068   0.000044
    22  H   -0.000576   0.006090  -0.005403   0.650682  -0.040499  -0.004630
    23  H    0.005058  -0.006159   0.006068  -0.040499   0.645237  -0.003062
    24  H    0.000003  -0.000036   0.000044  -0.004630  -0.003062   0.650258
    25  H    0.000009  -0.000175   0.005757  -0.003037   0.006057  -0.040586
    26  H    0.000000   0.000504   0.000085   0.000051   0.005587  -0.005405
    27  H    0.000011   0.002108   0.000495  -0.000039  -0.000189   0.006146
    28  H   -0.000000   0.000011   0.000000   0.000004   0.000008  -0.000573
    29  H    0.000000  -0.000001   0.000001  -0.000005   0.000003   0.005485
    30  H    0.000000  -0.000003   0.000000  -0.000000   0.000000   0.000008
    31  H   -0.000000  -0.000000  -0.000000  -0.000000   0.000000   0.000001
    32  H    0.000000   0.000001  -0.000000   0.000000  -0.000001   0.000001
              25         26         27         28         29         30
     1  O   -0.000000  -0.000000   0.000000  -0.000000   0.000000   0.000000
     2  C    0.000000  -0.000000   0.000000   0.000000   0.000000  -0.000000
     3  C   -0.000002  -0.000000   0.000001   0.000000   0.000000  -0.000000
     4  C   -0.000000  -0.000000   0.000005   0.000000   0.000000  -0.000000
     5  C    0.000051  -0.000025  -0.000088  -0.000000   0.000000   0.000000
     6  C   -0.007929  -0.000841   0.002388  -0.000018   0.000002  -0.000002
     7  C   -0.037586  -0.003298  -0.003917   0.000084   0.000010   0.000002
     8  C    0.380903  -0.040397  -0.038816  -0.003576  -0.004029   0.000053
     9  C   -0.039571   0.383019   0.383890  -0.039310  -0.039262  -0.005031
    10  C   -0.003754  -0.039727  -0.039298   0.386505   0.386381  -0.034476
    11  C    0.000021  -0.003245  -0.003094  -0.038561  -0.038564   0.387160
    12  O   -0.000000  -0.000000   0.000000   0.000000  -0.000000  -0.000000
    13  H    0.000000   0.000000   0.000000   0.000000   0.000000  -0.000000
    14  H    0.000000   0.000000  -0.000000   0.000000  -0.000000   0.000000
    15  H   -0.000003  -0.000000   0.000000  -0.000000  -0.000000  -0.000000
    16  H    0.000000  -0.000000  -0.000000  -0.000000  -0.000000   0.000000
    17  H    0.000000   0.000000  -0.000003   0.000000  -0.000000  -0.000000
    18  H    0.000004   0.000001  -0.000001   0.000000  -0.000000  -0.000000
    19  H    0.000009   0.000000   0.000011  -0.000000   0.000000   0.000000
    20  H   -0.000175   0.000504   0.002108   0.000011  -0.000001  -0.000003
    21  H    0.005757   0.000085   0.000495   0.000000   0.000001   0.000000
    22  H   -0.003037   0.000051  -0.000039   0.000004  -0.000005  -0.000000
    23  H    0.006057   0.005587  -0.000189   0.000008   0.000003   0.000000
    24  H   -0.040586  -0.005405   0.006146  -0.000573   0.005485   0.000008
    25  H    0.646941   0.006136  -0.006214   0.004786  -0.000523   0.000001
    26  H    0.006136   0.647554  -0.042615   0.006121  -0.006049  -0.000485
    27  H   -0.006214  -0.042615   0.642559  -0.006093   0.006077   0.004958
    28  H    0.004786   0.006121  -0.006093   0.641796  -0.041182  -0.005030
    29  H   -0.000523  -0.006049   0.006077  -0.041182   0.641586   0.005499
    30  H    0.000001  -0.000485   0.004958  -0.005030   0.005499   0.611609
    31  H    0.000002  -0.000022  -0.000018  -0.003117  -0.003060  -0.032455
    32  H    0.000006   0.004791  -0.000508   0.005496  -0.005010  -0.033818
              31         32
     1  O    0.000000  -0.000000
     2  C    0.000000   0.000000
     3  C    0.000000   0.000000
     4  C   -0.000000   0.000000
     5  C    0.000000  -0.000000
     6  C    0.000000  -0.000000
     7  C    0.000002   0.000002
     8  C   -0.000149   0.000055
     9  C    0.004146  -0.004949
    10  C   -0.026876  -0.034557
    11  C    0.378506   0.387389
    12  O    0.000000   0.000000
    13  H   -0.000000  -0.000000
    14  H    0.000000  -0.000000
    15  H    0.000000  -0.000000
    16  H    0.000000  -0.000000
    17  H    0.000000  -0.000000
    18  H   -0.000000  -0.000000
    19  H   -0.000000   0.000000
    20  H   -0.000000   0.000001
    21  H   -0.000000  -0.000000
    22  H   -0.000000   0.000000
    23  H    0.000000  -0.000001
    24  H    0.000001   0.000001
    25  H    0.000002   0.000006
    26  H   -0.000022   0.004791
    27  H   -0.000018  -0.000508
    28  H   -0.003117   0.005496
    29  H   -0.003060  -0.005010
    30  H   -0.032455  -0.033818
    31  H    0.616265  -0.032539
    32  H   -0.032539   0.611493
 Mulliken charges:
               1
     1  O   -0.465751
     2  C    0.540507
     3  C   -0.228813
     4  C   -0.191193
     5  C   -0.182647
     6  C   -0.173092
     7  C   -0.181228
     8  C   -0.180657
     9  C   -0.164769
    10  C   -0.175949
    11  C   -0.319786
    12  O   -0.467926
    13  H    0.318453
    14  H    0.128049
    15  H    0.127328
    16  H    0.103880
    17  H    0.112742
    18  H    0.094908
    19  H    0.094520
    20  H    0.096265
    21  H    0.091517
    22  H    0.088001
    23  H    0.089837
    24  H    0.087816
    25  H    0.088706
    26  H    0.088261
    27  H    0.092257
    28  H    0.092649
    29  H    0.092641
    30  H    0.102011
    31  H    0.099314
    32  H    0.102149
 Sum of Mulliken charges =  -0.00000
 Mulliken charges with hydrogens summed into heavy atoms:
               1
     1  O   -0.147298
     2  C    0.540507
     3  C    0.026564
     4  C    0.025428
     5  C    0.006781
     6  C    0.014690
     7  C   -0.003390
     8  C   -0.004135
     9  C    0.015748
    10  C    0.009341
    11  C   -0.016311
    12  O   -0.467926
 Electronic spatial extent (au):  <R**2>=           5005.5746
 Charge=             -0.0000 electrons
 Dipole moment (field-independent basis, Debye):
    X=             -1.6361    Y=              0.4866    Z=              0.8089  Tot=              1.8889
 Quadrupole moment (field-independent basis, Debye-Ang):
   XX=            -88.0780   YY=            -73.7262   ZZ=            -76.3203
   XY=              5.9070   XZ=              5.9548   YZ=             -0.3513
 Traceless Quadrupole moment (field-independent basis, Debye-Ang):
   XX=             -8.7032   YY=              5.6486   ZZ=              3.0545
   XY=              5.9070   XZ=              5.9548   YZ=             -0.3513
 Octapole moment (field-independent basis, Debye-Ang**2):
  XXX=            -36.5138  YYY=             15.2950  ZZZ=              0.1241  XYY=             32.5254
  XXY=             37.3226  XXZ=             37.2983  XZZ=             10.1567  YZZ=              2.5458
  YYZ=             -0.6229  XYZ=              3.5936
 Hexadecapole moment (field-independent basis, Debye-Ang**3):
 XXXX=          -5941.4483 YYYY=           -741.3937 ZZZZ=           -263.6861 XXXY=            272.9836
 XXXZ=            220.3146 YYYX=             91.5816 YYYZ=              6.6647 ZZZX=             -5.9688
 ZZZY=             -0.3935 XXYY=           -936.2034 XXZZ=           -978.4505 YYZZ=           -168.5414
 XXYZ=             12.6593 YYXZ=              7.2793 ZZXY=             14.3256
 N-N= 6.849948072880D+02 E-N=-2.633153122661D+03  KE= 5.385026786443D+02
 Calling FoFJK, ICntrl=      2127 FMM=F ISym2X=0 I1Cent= 0 IOpClX= 0 NMat=1 NMatS=1 NMatT=0.
 ***** Axes restored to original set *****
 -------------------------------------------------------------------
 Center     Atomic                   Forces (Hartrees/Bohr)
 Number     Number              X              Y              Z
 -------------------------------------------------------------------
      1        8          -0.007691430   -0.006860185   -0.003486180
      2        6          -0.004782730   -0.017276575    0.013893678
      3        6          -0.000554606    0.006365693    0.003661163
      4        6          -0.000914541   -0.003325088   -0.001694917
      5        6           0.006967960    0.001055698   -0.006285998
      6        6          -0.008390570   -0.001191550    0.005331440
      7        6           0.008353086   -0.001142770   -0.003322862
      8        6          -0.003527141    0.009035112    0.000175051
      9        6           0.002209829   -0.011136432    0.001147773
     10        6          -0.000584909    0.009448034   -0.000700591
     11        6           0.000137275   -0.004456765    0.002628315
     12        8          -0.004084551    0.006493023   -0.016277809
     13        1           0.010567381    0.011468203    0.005068459
     14        1           0.000036264    0.000179070    0.002866806
     15        1          -0.000478614    0.000351671   -0.005556739
     16        1           0.001570972    0.000389699    0.003382861
     17        1           0.002050479    0.001081239   -0.002055785
     18        1           0.000617343   -0.003589745    0.002731998
     19        1          -0.002917388    0.002457774   -0.000678741
     20        1           0.000462094    0.003309156   -0.002485136
     21        1           0.003551297   -0.002874435   -0.000047217
     22        1           0.000151470   -0.002416557    0.003658036
     23        1          -0.003137252    0.003253224   -0.001023434
     24        1          -0.003332649   -0.002402494   -0.001227248
     25        1           0.004541439   -0.001247611    0.000223746
     26        1          -0.004154340    0.002113000   -0.000157206
     27        1           0.003262840    0.002671291   -0.000022762
     28        1           0.003462627   -0.002021046    0.001247923
     29        1          -0.003356330   -0.002499282    0.000704859
     30        1           0.002218465    0.002195842    0.000679177
     31        1           0.000328223   -0.001305897   -0.002637520
     32        1          -0.002581992    0.001878707    0.000258860
 -------------------------------------------------------------------
 Cartesian Forces:  Max     0.017276575 RMS     0.004819727

 GradGradGradGradGradGradGradGradGradGradGradGradGradGradGradGradGradGrad
 Berny optimization.
 FormGI is forming the generalized inverse of G from B-inverse, IUseBI=4.
 Internal  Forces:  Max     0.016954781 RMS     0.002735169
 Search for a local minimum.
 Step number   1 out of a maximum of  179
 All quantities printed in internal units (Hartrees-Bohrs-Radians)
 Mixed Optimization -- RFO/linear search
 Second derivative matrix not updated -- first step.
 ITU=  0
     Eigenvalues ---    0.00230   0.00230   0.00230   0.00230   0.00230
     Eigenvalues ---    0.00230   0.00260   0.00302   0.00439   0.00910
     Eigenvalues ---    0.02346   0.03246   0.03247   0.03256   0.03299
     Eigenvalues ---    0.03412   0.03417   0.03443   0.03885   0.04687
     Eigenvalues ---    0.04687   0.04688   0.04696   0.04728   0.04735
     Eigenvalues ---    0.04759   0.05164   0.05410   0.05464   0.08280
     Eigenvalues ---    0.08299   0.08319   0.08472   0.08545   0.08563
     Eigenvalues ---    0.08565   0.09551   0.12180   0.12192   0.12202
     Eigenvalues ---    0.12319   0.12374   0.12387   0.12388   0.12897
     Eigenvalues ---    0.16000   0.16000   0.16000   0.16000   0.21891
     Eigenvalues ---    0.21894   0.21894   0.21902   0.21906   0.21909
     Eigenvalues ---    0.21909   0.21954   0.24999   0.25000   0.27854
     Eigenvalues ---    0.28378   0.28409   0.28433   0.28438   0.28442
     Eigenvalues ---    0.28671   0.28957   0.29914   0.34501   0.34510
     Eigenvalues ---    0.34625   0.34630   0.34631   0.34636   0.34640
     Eigenvalues ---    0.34642   0.34644   0.34645   0.34650   0.34714
     Eigenvalues ---    0.34715   0.34727   0.34728   0.34729   0.34754
     Eigenvalues ---    0.34798   0.34922   0.54905   0.55996   0.94490
 RFO step:  Lambda=-4.00925604D-03 EMin= 2.30000000D-03
 Linear search not attempted -- first point.
 Iteration  1 RMS(Cart)=  0.05195885 RMS(Int)=  0.00079535
 Iteration  2 RMS(Cart)=  0.00126977 RMS(Int)=  0.00020145
 Iteration  3 RMS(Cart)=  0.00000168 RMS(Int)=  0.00020145
 Iteration  4 RMS(Cart)=  0.00000000 RMS(Int)=  0.00020145
 Variable       Old X    -DE/DX   Delta X   Delta X   Delta X     New X
                                 (Linear)    (Quad)   (Total)
    R1        2.55216   0.00298   0.00000   0.00539   0.00539   2.55756
    R2        1.80957   0.01598   0.00000   0.02833   0.02833   1.83790
    R3        2.88136  -0.00828   0.00000  -0.02731  -0.02731   2.85405
    R4        2.30930  -0.01695   0.00000  -0.01787  -0.01787   2.29143
    R5        2.92459  -0.00657   0.00000  -0.02326  -0.02326   2.90133
    R6        2.06004   0.00173   0.00000   0.00491   0.00491   2.06495
    R7        2.05801   0.00435   0.00000   0.01232   0.01232   2.07033
    R8        2.91253  -0.00379   0.00000  -0.01314  -0.01314   2.89939
    R9        2.06493   0.00249   0.00000   0.00712   0.00712   2.07206
   R10        2.06478   0.00233   0.00000   0.00668   0.00668   2.07146
   R11        2.91190  -0.00450   0.00000  -0.01562  -0.01562   2.89629
   R12        2.06280   0.00440   0.00000   0.01256   0.01256   2.07536
   R13        2.06288   0.00374   0.00000   0.01067   0.01067   2.07355
   R14        2.91181  -0.00460   0.00000  -0.01595  -0.01595   2.89586
   R15        2.06141   0.00412   0.00000   0.01174   0.01174   2.07315
   R16        2.06119   0.00452   0.00000   0.01285   0.01285   2.07404
   R17        2.91320  -0.00335   0.00000  -0.01163  -0.01163   2.90157
   R18        2.06269   0.00427   0.00000   0.01218   0.01218   2.07487
   R19        2.06279   0.00442   0.00000   0.01263   0.01263   2.07542
   R20        2.91201  -0.00432   0.00000  -0.01498  -0.01498   2.89703
   R21        2.06264   0.00419   0.00000   0.01194   0.01194   2.07459
   R22        2.06260   0.00453   0.00000   0.01293   0.01293   2.07553
   R23        2.90694  -0.00360   0.00000  -0.01238  -0.01238   2.89456
   R24        2.06257   0.00464   0.00000   0.01323   0.01323   2.07579
   R25        2.06141   0.00420   0.00000   0.01196   0.01196   2.07337
   R26        2.90093  -0.00172   0.00000  -0.00586  -0.00586   2.89507
   R27        2.06256   0.00407   0.00000   0.01161   0.01161   2.07416
   R28        2.06247   0.00409   0.00000   0.01167   0.01167   2.07415
   R29        2.06121   0.00313   0.00000   0.00892   0.00892   2.07013
   R30        2.06076   0.00293   0.00000   0.00835   0.00835   2.06911
   R31        2.06116   0.00314   0.00000   0.00894   0.00894   2.07011
    A1        1.81863   0.00664   0.00000   0.04051   0.04051   1.85914
    A2        1.96401  -0.00102   0.00000  -0.00378  -0.00477   1.95924
    A3        2.15311  -0.00640   0.00000  -0.02492  -0.02586   2.12725
    A4        2.16601   0.00743   0.00000   0.02948   0.02843   2.19445
    A5        1.97962  -0.00261   0.00000  -0.01728  -0.01746   1.96216
    A6        1.87033  -0.00012   0.00000  -0.00129  -0.00125   1.86909
    A7        1.87814   0.00227   0.00000   0.00735   0.00690   1.88504
    A8        1.92159   0.00166   0.00000   0.01268   0.01276   1.93435
    A9        1.94464  -0.00212   0.00000  -0.02376  -0.02385   1.92079
   A10        1.86433   0.00121   0.00000   0.02553   0.02560   1.88993
   A11        1.98448  -0.00222   0.00000  -0.01356  -0.01356   1.97092
   A12        1.91189  -0.00105   0.00000  -0.01382  -0.01371   1.89818
   A13        1.92075  -0.00043   0.00000  -0.01326  -0.01326   1.90749
   A14        1.88711   0.00226   0.00000   0.02049   0.02034   1.90745
   A15        1.90712   0.00127   0.00000   0.00802   0.00776   1.91488
   A16        1.84718   0.00039   0.00000   0.01476   0.01447   1.86165
   A17        1.99176   0.00050   0.00000   0.00012   0.00011   1.99188
   A18        1.91146  -0.00003   0.00000  -0.00201  -0.00203   1.90943
   A19        1.89364  -0.00047   0.00000  -0.00205  -0.00205   1.89159
   A20        1.91555  -0.00071   0.00000  -0.00744  -0.00745   1.90810
   A21        1.90105   0.00008   0.00000   0.00214   0.00215   1.90320
   A22        1.84444   0.00064   0.00000   0.01017   0.01018   1.85462
   A23        1.96591   0.00003   0.00000  -0.00044  -0.00044   1.96546
   A24        1.90382  -0.00052   0.00000  -0.00383  -0.00383   1.89999
   A25        1.91628   0.00049   0.00000   0.00351   0.00351   1.91978
   A26        1.91607   0.00047   0.00000   0.00382   0.00382   1.91990
   A27        1.90365  -0.00061   0.00000  -0.00547  -0.00546   1.89818
   A28        1.85484   0.00015   0.00000   0.00263   0.00264   1.85748
   A29        1.99377   0.00001   0.00000  -0.00199  -0.00203   1.99173
   A30        1.90072  -0.00043   0.00000  -0.00097  -0.00097   1.89975
   A31        1.91593  -0.00060   0.00000  -0.01107  -0.01112   1.90481
   A32        1.89185   0.00066   0.00000   0.01038   0.01038   1.90222
   A33        1.91085  -0.00006   0.00000  -0.00422  -0.00429   1.90656
   A34        1.84463   0.00049   0.00000   0.00912   0.00912   1.85376
   A35        1.99386   0.00046   0.00000   0.00021   0.00017   1.99403
   A36        1.89184   0.00042   0.00000   0.00844   0.00844   1.90028
   A37        1.91156  -0.00030   0.00000  -0.00557  -0.00562   1.90594
   A38        1.90065  -0.00050   0.00000  -0.00088  -0.00089   1.89976
   A39        1.91538  -0.00062   0.00000  -0.01012  -0.01016   1.90522
   A40        1.84444   0.00056   0.00000   0.00896   0.00897   1.85341
   A41        1.96695   0.00121   0.00000   0.00532   0.00532   1.97226
   A42        1.91006  -0.00065   0.00000  -0.00480  -0.00480   1.90526
   A43        1.91656  -0.00004   0.00000   0.00241   0.00241   1.91897
   A44        1.90977  -0.00029   0.00000  -0.00238  -0.00237   1.90740
   A45        1.90314  -0.00063   0.00000  -0.00268  -0.00269   1.90045
   A46        1.85392   0.00034   0.00000   0.00194   0.00194   1.85586
   A47        1.96687   0.00109   0.00000   0.00486   0.00487   1.97175
   A48        1.91424  -0.00095   0.00000  -0.00864  -0.00866   1.90557
   A49        1.91493  -0.00102   0.00000  -0.00904  -0.00906   1.90587
   A50        1.90605   0.00021   0.00000   0.00498   0.00499   1.91104
   A51        1.90560   0.00031   0.00000   0.00598   0.00599   1.91160
   A52        1.85261   0.00032   0.00000   0.00179   0.00170   1.85432
   A53        1.94357  -0.00063   0.00000  -0.00503  -0.00505   1.93852
   A54        1.93720   0.00093   0.00000   0.00808   0.00809   1.94529
   A55        1.94347  -0.00067   0.00000  -0.00529  -0.00531   1.93816
   A56        1.87743   0.00010   0.00000   0.00293   0.00294   1.88037
   A57        1.88175   0.00017   0.00000  -0.00342  -0.00347   1.87828
   A58        1.87741   0.00012   0.00000   0.00295   0.00296   1.88037
    D1       -3.13723  -0.00084   0.00000  -0.05039  -0.04927   3.09669
    D2       -0.00604   0.00029   0.00000   0.03034   0.02921   0.02318
    D3       -1.16037   0.00172   0.00000   0.07184   0.07223  -1.08814
    D4        2.99841   0.00136   0.00000   0.06767   0.06802   3.06643
    D5        0.99887  -0.00108   0.00000   0.03523   0.03551   1.03438
    D6        1.99170   0.00068   0.00000  -0.00920  -0.00948   1.98222
    D7       -0.13270   0.00032   0.00000  -0.01337  -0.01369  -0.14639
    D8       -2.13223  -0.00212   0.00000  -0.04581  -0.04621  -2.17844
    D9       -3.01086  -0.00038   0.00000  -0.03518  -0.03502  -3.04588
   D10       -0.89750   0.00026   0.00000  -0.02808  -0.02790  -0.92540
   D11        1.12644  -0.00012   0.00000  -0.02584  -0.02573   1.10071
   D12       -0.91534  -0.00111   0.00000  -0.03944  -0.03941  -0.95476
   D13        1.19801  -0.00047   0.00000  -0.03234  -0.03230   1.16571
   D14       -3.06123  -0.00085   0.00000  -0.03010  -0.03013  -3.09136
   D15        1.14986   0.00013   0.00000  -0.01443  -0.01457   1.13529
   D16       -3.01997   0.00077   0.00000  -0.00732  -0.00745  -3.02743
   D17       -0.99603   0.00039   0.00000  -0.00508  -0.00528  -1.00131
   D18       -1.14070   0.00032   0.00000   0.02119   0.02117  -1.11953
   D19        1.01436  -0.00027   0.00000   0.00997   0.00995   1.02430
   D20        3.01962   0.00022   0.00000   0.01985   0.01983   3.03946
   D21        3.01533   0.00149   0.00000   0.03298   0.03310   3.04843
   D22       -1.11280   0.00090   0.00000   0.02176   0.02188  -1.09092
   D23        0.89246   0.00139   0.00000   0.03164   0.03176   0.92423
   D24        1.01264  -0.00085   0.00000   0.00039   0.00029   1.01293
   D25       -3.11549  -0.00144   0.00000  -0.01083  -0.01093  -3.12642
   D26       -1.11022  -0.00095   0.00000  -0.00094  -0.00105  -1.11127
   D27       -3.07701  -0.00023   0.00000  -0.00579  -0.00578  -3.08279
   D28       -0.94492   0.00002   0.00000  -0.00393  -0.00393  -0.94884
   D29        1.08108   0.00018   0.00000  -0.00099  -0.00098   1.08010
   D30        1.05334  -0.00001   0.00000   0.00251   0.00250   1.05583
   D31       -3.09776   0.00024   0.00000   0.00436   0.00435  -3.09340
   D32       -1.07176   0.00040   0.00000   0.00731   0.00730  -1.06446
   D33       -0.95824  -0.00044   0.00000  -0.00676  -0.00676  -0.96500
   D34        1.17385  -0.00019   0.00000  -0.00491  -0.00491   1.16894
   D35       -3.08333  -0.00003   0.00000  -0.00196  -0.00196  -3.08529
   D36       -3.07116  -0.00055   0.00000  -0.01190  -0.01188  -3.08304
   D37       -0.95360  -0.00001   0.00000  -0.00059  -0.00060  -0.95419
   D38        1.05823  -0.00000   0.00000   0.00370   0.00367   1.06190
   D39        1.08686  -0.00024   0.00000  -0.00942  -0.00940   1.07746
   D40       -3.07876   0.00030   0.00000   0.00188   0.00188  -3.07688
   D41       -1.06693   0.00031   0.00000   0.00617   0.00615  -1.06078
   D42       -0.93893  -0.00033   0.00000  -0.01161  -0.01159  -0.95052
   D43        1.17864   0.00020   0.00000  -0.00031  -0.00030   1.17833
   D44       -3.09272   0.00021   0.00000   0.00398   0.00397  -3.08875
   D45       -1.15651   0.00057   0.00000   0.02897   0.02897  -1.12754
   D46        3.00425   0.00059   0.00000   0.02377   0.02376   3.02801
   D47        0.99992  -0.00015   0.00000   0.01150   0.01150   1.01142
   D48        3.00422   0.00064   0.00000   0.02394   0.02394   3.02816
   D49        0.88180   0.00066   0.00000   0.01873   0.01873   0.90052
   D50       -1.12254  -0.00008   0.00000   0.00647   0.00647  -1.11607
   D51        1.00003  -0.00026   0.00000   0.00971   0.00971   1.00974
   D52       -1.12240  -0.00024   0.00000   0.00451   0.00451  -1.11789
   D53       -3.12673  -0.00098   0.00000  -0.00776  -0.00775  -3.13448
   D54       -3.07403  -0.00037   0.00000  -0.01078  -0.01076  -3.08479
   D55       -0.94484  -0.00038   0.00000  -0.01365  -0.01363  -0.95847
   D56        1.08380  -0.00036   0.00000  -0.01270  -0.01269   1.07111
   D57       -0.95646   0.00012   0.00000  -0.00041  -0.00041  -0.95687
   D58        1.17273   0.00011   0.00000  -0.00328  -0.00328   1.16945
   D59       -3.08182   0.00013   0.00000  -0.00233  -0.00234  -3.08416
   D60        1.05479   0.00017   0.00000   0.00426   0.00426   1.05905
   D61       -3.09920   0.00016   0.00000   0.00139   0.00138  -3.09782
   D62       -1.07056   0.00019   0.00000   0.00234   0.00232  -1.06824
   D63       -3.13973  -0.00014   0.00000  -0.00165  -0.00165  -3.14138
   D64       -1.01237   0.00019   0.00000   0.00186   0.00183  -1.01053
   D65        1.01616  -0.00055   0.00000  -0.00616  -0.00613   1.01002
   D66        1.01410   0.00007   0.00000   0.00259   0.00259   1.01669
   D67        3.14146   0.00040   0.00000   0.00609   0.00607  -3.13565
   D68       -1.11320  -0.00034   0.00000  -0.00192  -0.00190  -1.11509
   D69       -1.00679   0.00017   0.00000   0.00308   0.00308  -1.00372
   D70        1.12057   0.00051   0.00000   0.00659   0.00656   1.12713
   D71       -3.13409  -0.00024   0.00000  -0.00143  -0.00140  -3.13550
   D72        1.05069  -0.00032   0.00000  -0.00561  -0.00559   1.04510
   D73       -3.14132   0.00001   0.00000   0.00017   0.00017  -3.14115
   D74       -1.05022   0.00034   0.00000   0.00579   0.00577  -1.04445
   D75       -1.08130  -0.00000   0.00000  -0.00140  -0.00139  -1.08269
   D76        1.00988   0.00034   0.00000   0.00437   0.00437   1.01425
   D77        3.10098   0.00066   0.00000   0.00999   0.00998   3.11096
   D78       -3.09994  -0.00067   0.00000  -0.00960  -0.00959  -3.10953
   D79       -1.00876  -0.00034   0.00000  -0.00383  -0.00383  -1.01259
   D80        1.08234  -0.00001   0.00000   0.00179   0.00177   1.08412
         Item               Value     Threshold  Converged?
 Maximum Force            0.016955     0.000450     NO 
 RMS     Force            0.002735     0.000300     NO 
 Maximum Displacement     0.235611     0.001800     NO 
 RMS     Displacement     0.052142     0.001200     NO 
 Predicted change in Energy=-2.095348D-03
 GradGradGradGradGradGradGradGradGradGradGradGradGradGradGradGradGradGrad

                          Input orientation:                          
 ---------------------------------------------------------------------
 Center     Atomic      Atomic             Coordinates (Angstroms)
 Number     Number       Type             X           Y           Z
 ---------------------------------------------------------------------
      1          8           0        5.712931    0.368239   -0.566414
      2          6           0        5.485228   -0.638667    0.308792
      3          6           0        4.469338   -1.628609   -0.209848
      4          6           0        3.091059   -0.990348   -0.433842
      5          6           0        2.017240   -2.011308   -0.832086
      6          6           0        2.272959   -2.696285   -2.179094
      7          6           0        1.140086   -3.646624   -2.581319
      8          6           0        1.397903   -4.413263   -3.886453
      9          6           0        1.486292   -3.524004   -5.132094
     10          6           0        1.664576   -4.323158   -6.426614
     11          6           0        1.753119   -3.433839   -7.670925
     12          8           0        6.001919   -0.663096    1.405498
     13          1           0        6.341592    0.972380   -0.135480
     14          1           0        4.408266   -2.438731    0.520918
     15          1           0        4.849167   -2.042182   -1.150571
     16          1           0        2.783719   -0.482356    0.487985
     17          1           0        3.171237   -0.217405   -1.206968
     18          1           0        1.930298   -2.774354   -0.047024
     19          1           0        1.048412   -1.497545   -0.869865
     20          1           0        2.407739   -1.926135   -2.948675
     21          1           0        3.211911   -3.263203   -2.139575
     22          1           0        0.977047   -4.367784   -1.769594
     23          1           0        0.207051   -3.075026   -2.675666
     24          1           0        0.595098   -5.147916   -4.031391
     25          1           0        2.327259   -4.990395   -3.788843
     26          1           0        0.575786   -2.913840   -5.204886
     27          1           0        2.322027   -2.820323   -5.031149
     28          1           0        2.571394   -4.936741   -6.349649
     29          1           0        0.827541   -5.024685   -6.535880
     30          1           0        2.601712   -2.744433   -7.602675
     31          1           0        1.879680   -4.029587   -8.580831
     32          1           0        0.845616   -2.831878   -7.789680
 ---------------------------------------------------------------------
                    Distance matrix (angstroms):
                    1          2          3          4          5
     1  O    0.000000
     2  C    1.353401   0.000000
     3  C    2.379300   1.510300   0.000000
     4  C    2.955934   2.531250   1.535319   0.000000
     5  C    4.403517   3.900344   2.558597   1.534289   0.000000
     6  C    4.881133   4.554343   3.137187   2.573988   1.532650
     7  C    6.410139   6.023354   4.558527   3.933669   2.550191
     8  C    7.246027   6.968062   5.541249   5.148170   3.934734
     9  C    7.338902   7.343017   6.059669   5.573891   4.589143
[...]
 Alpha virt. eigenvalues --    4.20603   4.26311   4.28245   4.29257   4.31219
 Alpha virt. eigenvalues --    4.35387   4.38583   4.40363   4.44217   4.46278
 Alpha virt. eigenvalues --    4.48616   4.50787   4.52479   4.53689   4.53827
 Alpha virt. eigenvalues --    4.56282   4.57126   4.59569   4.61881   4.62551
 Alpha virt. eigenvalues --    4.64048   4.65602   4.66247   4.68286   4.72969
 Alpha virt. eigenvalues --    4.76053   4.78885   4.81044   4.83145   4.89672
 Alpha virt. eigenvalues --    5.01811   5.13764   5.16314   5.17743   5.20558
 Alpha virt. eigenvalues --    5.22697   5.38959   5.40455   5.50866   5.59683
 Alpha virt. eigenvalues --    5.73555   5.85030   5.86742   6.15796   6.19259
 Alpha virt. eigenvalues --    6.32364   6.33841   6.45046   6.48089   6.64580
 Alpha virt. eigenvalues --    6.68905   6.73927   6.81216   6.88709   7.07125
 Alpha virt. eigenvalues --    7.08105   7.27751  22.40662  22.48105  22.48493
 Alpha virt. eigenvalues --   22.50176  22.57799  22.59380  22.61032  22.61294
 Alpha virt. eigenvalues --   22.62557  23.27970  43.91427  43.98221
          Condensed to atoms (all electrons):
               1          2          3          4          5          6
     1  O    7.971843   0.360506  -0.133375   0.004112  -0.000911   0.000165
     2  C    0.360506   4.438742   0.281945  -0.010791  -0.003979   0.001883
     3  C   -0.133375   0.281945   5.368170   0.154794  -0.028643   0.017119
     4  C    0.004112  -0.010791   0.154794   5.262597   0.226338  -0.046884
     5  C   -0.000911  -0.003979  -0.028643   0.226338   5.240043   0.167897
     6  C    0.000165   0.001883   0.017119  -0.046884   0.167897   5.428163
     7  C   -0.000005  -0.000147   0.000315   0.007080  -0.025255   0.182774
     8  C    0.000000  -0.000000   0.000084  -0.001264   0.008640  -0.051482
     9  C   -0.000000   0.000003   0.000059   0.000041  -0.000303   0.019343
    10  C   -0.000000   0.000000   0.000002  -0.000001  -0.000003  -0.000236
    11  C    0.000000   0.000000   0.000000   0.000000  -0.000007   0.000058
    12  O   -0.093635   0.682782  -0.098025   0.001436  -0.001554   0.000142
    13  H    0.288369  -0.025212   0.018806  -0.000734   0.000160  -0.000024
    14  H    0.004738  -0.036151   0.413225  -0.034671   0.001511  -0.002828
    15  H    0.005380  -0.009579   0.389235  -0.040438  -0.017077   0.007190
    16  H   -0.000433   0.002130  -0.045600   0.430892  -0.051571   0.011052
    17  H    0.005167  -0.004531  -0.053739   0.436393  -0.031487  -0.012134
    18  H   -0.000032   0.000049  -0.011021  -0.030113   0.445446  -0.071093
    19  H    0.000025  -0.000198   0.009236  -0.050992   0.435407  -0.039486
    20  H   -0.000023   0.000065  -0.005415   0.010560  -0.047973   0.424529
    21  H   -0.000048  -0.000012   0.003889  -0.011940  -0.039464   0.419731
    22  H    0.000000   0.000009   0.000032   0.000561  -0.006274  -0.039713
    23  H    0.000000  -0.000000  -0.000101  -0.000442  -0.004000  -0.071110
    24  H   -0.000000   0.000000   0.000006   0.000010  -0.000380   0.011445
    25  H    0.000000  -0.000001  -0.000065   0.000073  -0.000176  -0.013358
    26  H    0.000000  -0.000000  -0.000006   0.000031  -0.000089  -0.004636
    27  H   -0.000000   0.000002   0.000069  -0.000138   0.000834   0.004233
    28  H   -0.000000  -0.000000  -0.000000   0.000001  -0.000005   0.000063
    29  H    0.000000  -0.000000   0.000000  -0.000000   0.000006  -0.000098
    30  H    0.000000  -0.000000  -0.000000  -0.000000   0.000001  -0.000050
    31  H   -0.000000  -0.000000  -0.000000   0.000000   0.000000   0.000001
    32  H   -0.000000   0.000000   0.000000   0.000000  -0.000000   0.000027
               7          8          9         10         11         12
     1  O   -0.000005   0.000000  -0.000000  -0.000000   0.000000  -0.093635
     2  C   -0.000147  -0.000000   0.000003   0.000000   0.000000   0.682782
     3  C    0.000315   0.000084   0.000059   0.000002   0.000000  -0.098025
     4  C    0.007080  -0.001264   0.000041  -0.000001   0.000000   0.001436
     5  C   -0.025255   0.008640  -0.000303  -0.000003  -0.000007  -0.001554
     6  C    0.182774  -0.051482   0.019343  -0.000236   0.000058   0.000142
     7  C    5.194287   0.255407  -0.053253   0.008938  -0.001158  -0.000002
     8  C    0.255407   5.191679   0.205200  -0.039327   0.012114   0.000000
     9  C   -0.053253   0.205200   5.318468   0.241493  -0.059023   0.000000
    10  C    0.008938  -0.039327   0.241493   5.116655   0.271823   0.000000
    11  C   -0.001158   0.012114  -0.059023   0.271823   5.035873   0.000000
    12  O   -0.000002   0.000000   0.000000   0.000000   0.000000   7.821525
    13  H    0.000001  -0.000000   0.000000  -0.000000  -0.000000   0.006611
    14  H   -0.000202   0.000026  -0.000004   0.000000  -0.000000   0.006913
    15  H    0.000074  -0.000013   0.000040   0.000002   0.000000   0.002623
    16  H   -0.000462   0.000014   0.000004   0.000000  -0.000000   0.002266
    17  H   -0.000140   0.000051  -0.000048  -0.000000  -0.000000   0.000184
    18  H   -0.003794  -0.000436  -0.000120   0.000002  -0.000000   0.000008
    19  H   -0.004138   0.000378   0.000076   0.000000   0.000000   0.000005
    20  H   -0.040048  -0.009637   0.001375   0.000663  -0.000029  -0.000003
    21  H   -0.044198   0.007682  -0.004251  -0.000061   0.000014  -0.000020
    22  H    0.435730  -0.051504   0.010447  -0.000322   0.000025   0.000000
    23  H    0.447412  -0.031955  -0.011479  -0.000262   0.000018  -0.000000
    24  H   -0.053063   0.439068  -0.043156  -0.004889   0.000002   0.000000
    25  H   -0.031575   0.439906  -0.064980  -0.003094  -0.000388  -0.000000
    26  H    0.007820  -0.048583   0.416808  -0.039726  -0.004556  -0.000000
    27  H   -0.011906  -0.040580   0.423634  -0.037727  -0.003017   0.000000
    28  H   -0.000004  -0.004254  -0.047754   0.425965  -0.039793  -0.000000
    29  H   -0.000364  -0.005272  -0.053876   0.433074  -0.038734  -0.000000
    30  H    0.000025  -0.000244  -0.007312  -0.040478   0.415108  -0.000000
    31  H    0.000038  -0.000804   0.013658  -0.052236   0.422521   0.000000
    32  H   -0.000060  -0.000264  -0.005701  -0.041777   0.414484   0.000000
              13         14         15         16         17         18
     1  O    0.288369   0.004738   0.005380  -0.000433   0.005167  -0.000032
     2  C   -0.025212  -0.036151  -0.009579   0.002130  -0.004531   0.000049
     3  C    0.018806   0.413225   0.389235  -0.045600  -0.053739  -0.011021
     4  C   -0.000734  -0.034671  -0.040438   0.430892   0.436393  -0.030113
     5  C    0.000160   0.001511  -0.017077  -0.051571  -0.031487   0.445446
     6  C   -0.000024  -0.002828   0.007190   0.011052  -0.012134  -0.071093
     7  C    0.000001  -0.000202   0.000074  -0.000462  -0.000140  -0.003794
     8  C   -0.000000   0.000026  -0.000013   0.000014   0.000051  -0.000436
     9  C    0.000000  -0.000004   0.000040   0.000004  -0.000048  -0.000120
    10  C   -0.000000   0.000000   0.000002   0.000000  -0.000000   0.000002
    11  C   -0.000000  -0.000000   0.000000  -0.000000  -0.000000  -0.000000
    12  O    0.006611   0.006913   0.002623   0.002266   0.000184   0.000008
    13  H    0.377820  -0.000693  -0.000784  -0.000270  -0.000288   0.000002
    14  H   -0.000693   0.498318  -0.017587  -0.000357   0.004383   0.000768
    15  H   -0.000784  -0.017587   0.517056   0.005339   0.000238   0.001563
    16  H   -0.000270  -0.000357   0.005339   0.515900  -0.015760  -0.001702
    17  H   -0.000288   0.004383   0.000238  -0.015760   0.496595   0.004948
    18  H    0.000002   0.000768   0.001563  -0.001702   0.004948   0.523116
    19  H   -0.000003   0.000349  -0.000490  -0.007710  -0.002119  -0.020408
    20  H    0.000002   0.000118   0.000747   0.000313   0.000768   0.006672
    21  H    0.000007   0.000664  -0.007153  -0.000687   0.001503  -0.001963
    22  H   -0.000000   0.000000   0.000048   0.000012  -0.000037   0.001762
    23  H    0.000000   0.000009  -0.000033  -0.000046   0.000147   0.000917
    24  H    0.000000  -0.000001   0.000000  -0.000000  -0.000000  -0.000057
    25  H   -0.000000   0.000005   0.000009  -0.000001   0.000003   0.000153
    26  H    0.000000   0.000000  -0.000002  -0.000001   0.000004   0.000015
    27  H   -0.000000  -0.000001   0.000030   0.000002   0.000018  -0.000049
    28  H    0.000000   0.000000  -0.000000  -0.000000  -0.000000   0.000000
    29  H    0.000000   0.000000  -0.000000   0.000000   0.000000  -0.000000
    30  H    0.000000   0.000000  -0.000000   0.000000   0.000000   0.000000
    31  H   -0.000000  -0.000000   0.000000   0.000000  -0.000000   0.000000
    32  H    0.000000  -0.000000   0.000000  -0.000000  -0.000000  -0.000000
              19         20         21         22         23         24
     1  O    0.000025  -0.000023  -0.000048   0.000000   0.000000  -0.000000
     2  C   -0.000198   0.000065  -0.000012   0.000009  -0.000000   0.000000
     3  C    0.009236  -0.005415   0.003889   0.000032  -0.000101   0.000006
     4  C   -0.050992   0.010560  -0.011940   0.000561  -0.000442   0.000010
     5  C    0.435407  -0.047973  -0.039464  -0.006274  -0.004000  -0.000380
     6  C   -0.039486   0.424529   0.419731  -0.039713  -0.071110   0.011445
     7  C   -0.004138  -0.040048  -0.044198   0.435730   0.447412  -0.053063
     8  C    0.000378  -0.009637   0.007682  -0.051504  -0.031955   0.439068
     9  C    0.000076   0.001375  -0.004251   0.010447  -0.011479  -0.043156
    10  C    0.000000   0.000663  -0.000061  -0.000322  -0.000262  -0.004889
    11  C    0.000000  -0.000029   0.000014   0.000025   0.000018   0.000002
    12  O    0.000005  -0.000003  -0.000020   0.000000  -0.000000   0.000000
    13  H   -0.000003   0.000002   0.000007  -0.000000   0.000000   0.000000
    14  H    0.000349   0.000118   0.000664   0.000000   0.000009  -0.000001
    15  H   -0.000490   0.000747  -0.007153   0.000048  -0.000033   0.000000
    16  H   -0.007710   0.000313  -0.000687   0.000012  -0.000046  -0.000000
    17  H   -0.002119   0.000768   0.001503  -0.000037   0.000147  -0.000000
    18  H   -0.020408   0.006672  -0.001963   0.001762   0.000917  -0.000057
    19  H    0.527423  -0.002557   0.005165   0.000641   0.001589   0.000011
    20  H   -0.002557   0.537309  -0.030161   0.005101  -0.002091  -0.000618
    21  H    0.005165  -0.030161   0.549076  -0.002755   0.006825   0.000347
    22  H    0.000641   0.005101  -0.002755   0.534145  -0.021917  -0.007661
    23  H    0.001589  -0.002091   0.006825  -0.021917   0.529202  -0.001770
    24  H    0.000011  -0.000618   0.000347  -0.007661  -0.001770   0.533653
    25  H   -0.000031   0.001785   0.001465  -0.001868   0.005807  -0.021935
    26  H   -0.000010   0.001639   0.000150   0.000376   0.000945  -0.002557
    27  H    0.000028  -0.007958   0.000987  -0.000590   0.001814   0.005487
    28  H    0.000000   0.000080  -0.000024   0.000024  -0.000048   0.000487
    29  H   -0.000000  -0.000053   0.000014  -0.000056   0.000160   0.002144
    30  H   -0.000000   0.000005   0.000004  -0.000000   0.000006  -0.000044
    31  H   -0.000000   0.000001  -0.000000  -0.000000  -0.000001  -0.000000
    32  H    0.000000   0.000010  -0.000001   0.000000  -0.000013   0.000118
              25         26         27         28         29         30
     1  O    0.000000   0.000000  -0.000000  -0.000000   0.000000   0.000000
     2  C   -0.000001  -0.000000   0.000002  -0.000000  -0.000000  -0.000000
     3  C   -0.000065  -0.000006   0.000069  -0.000000   0.000000  -0.000000
     4  C    0.000073   0.000031  -0.000138   0.000001  -0.000000  -0.000000
     5  C   -0.000176  -0.000089   0.000834  -0.000005   0.000006   0.000001
     6  C   -0.013358  -0.004636   0.004233   0.000063  -0.000098  -0.000050
     7  C   -0.031575   0.007820  -0.011906  -0.000004  -0.000364   0.000025
     8  C    0.439906  -0.048583  -0.040580  -0.004254  -0.005272  -0.000244
     9  C   -0.064980   0.416808   0.423634  -0.047754  -0.053876  -0.007312
    10  C   -0.003094  -0.039726  -0.037727   0.425965   0.433074  -0.040478
    11  C   -0.000388  -0.004556  -0.003017  -0.039793  -0.038734   0.415108
    12  O   -0.000000  -0.000000   0.000000  -0.000000  -0.000000  -0.000000
    13  H   -0.000000   0.000000  -0.000000   0.000000   0.000000   0.000000
    14  H    0.000005   0.000000  -0.000001   0.000000   0.000000   0.000000
    15  H    0.000009  -0.000002   0.000030  -0.000000  -0.000000  -0.000000
    16  H   -0.000001  -0.000001   0.000002  -0.000000   0.000000   0.000000
    17  H    0.000003   0.000004   0.000018  -0.000000   0.000000   0.000000
    18  H    0.000153   0.000015  -0.000049   0.000000  -0.000000   0.000000
    19  H   -0.000031  -0.000010   0.000028   0.000000  -0.000000  -0.000000
    20  H    0.001785   0.001639  -0.007958   0.000080  -0.000053   0.000005
    21  H    0.001465   0.000150   0.000987  -0.000024   0.000014   0.000004
    22  H   -0.001868   0.000376  -0.000590   0.000024  -0.000056  -0.000000
    23  H    0.005807   0.000945   0.001814  -0.000048   0.000160   0.000006
    24  H   -0.021935  -0.002557   0.005487   0.000487   0.002144  -0.000044
    25  H    0.534515   0.006673  -0.002043   0.001493   0.000738   0.000133
    26  H    0.006673   0.556990  -0.032902   0.007614  -0.005831   0.000328
    27  H   -0.002043  -0.032902   0.555957  -0.006294   0.007899   0.002690
    28  H    0.001493   0.007614  -0.006294   0.569001  -0.034067  -0.005690
    29  H    0.000738  -0.005831   0.007899  -0.034067   0.566031   0.007443
    30  H    0.000133   0.000328   0.002690  -0.005690   0.007443   0.548752
    31  H    0.000004  -0.000136  -0.000109  -0.004191  -0.003994  -0.024411
    32  H   -0.000049   0.002508   0.000001   0.007638  -0.005745  -0.031874
              31         32
     1  O   -0.000000  -0.000000
     2  C   -0.000000   0.000000
     3  C   -0.000000   0.000000
     4  C    0.000000   0.000000
     5  C    0.000000  -0.000000
     6  C    0.000001   0.000027
     7  C    0.000038  -0.000060
     8  C   -0.000804  -0.000264
     9  C    0.013658  -0.005701
    10  C   -0.052236  -0.041777
    11  C    0.422521   0.414484
    12  O    0.000000   0.000000
    13  H   -0.000000   0.000000
    14  H   -0.000000  -0.000000
    15  H    0.000000   0.000000
    16  H    0.000000  -0.000000
    17  H   -0.000000  -0.000000
    18  H    0.000000  -0.000000
    19  H   -0.000000   0.000000
    20  H    0.000001   0.000010
    21  H   -0.000000  -0.000001
    22  H   -0.000000   0.000000
    23  H   -0.000001  -0.000013
    24  H   -0.000000   0.000118
    25  H    0.000004  -0.000049
    26  H   -0.000136   0.002508
    27  H   -0.000109   0.000001
    28  H   -0.004191   0.007638
    29  H   -0.003994  -0.005745
    30  H   -0.024411  -0.031874
    31  H    0.532195  -0.024607
    32  H   -0.024607   0.549613
 Mulliken charges:
               1
     1  O   -0.411842
     2  C    0.322484
     3  C   -0.280995
     4  C   -0.306508
     5  C   -0.267129
     6  C   -0.342682
     7  C   -0.270126
     8  C   -0.274632
     9  C   -0.299387
    10  C   -0.238478
    11  C   -0.425335
    12  O   -0.331256
    13  H    0.336231
    14  H    0.161468
    15  H    0.163585
    16  H    0.156675
    17  H    0.169881
    18  H    0.155366
    19  H    0.147810
    20  H    0.154825
    21  H    0.145215
    22  H    0.143785
    23  H    0.150417
    24  H    0.143353
    25  H    0.146803
    26  H    0.137133
    27  H    0.139630
    28  H    0.129758
    29  H    0.130582
    30  H    0.135608
    31  H    0.142072
    32  H    0.135692
 Sum of Mulliken charges =  -0.00000
 Mulliken charges with hydrogens summed into heavy atoms:
               1
     1  O   -0.075612
     2  C    0.322484
     3  C    0.044057
     4  C    0.020048
     5  C    0.036047
     6  C   -0.042642
     7  C    0.024076
     8  C    0.015525
     9  C   -0.022624
    10  C    0.021861
    11  C   -0.011963
    12  O   -0.331256
 Electronic spatial extent (au):  <R**2>=           4886.7943
 Charge=              0.0000 electrons
 Dipole moment (field-independent basis, Debye):
    X=             -1.9411    Y=              0.1730    Z=              0.8383  Tot=              2.1215
 Quadrupole moment (field-independent basis, Debye-Ang):
   XX=            -91.4924   YY=            -74.9389   ZZ=            -77.7596
   XY=              4.5134   XZ=              6.3347   YZ=              0.0470
 Traceless Quadrupole moment (field-independent basis, Debye-Ang):
   XX=            -10.0955   YY=              6.4581   ZZ=              3.6374
   XY=              4.5134   XZ=              6.3347   YZ=              0.0470
 Octapole moment (field-independent basis, Debye-Ang**2):
  XXX=            -55.6017  YYY=             16.0712  ZZZ=              0.8321  XYY=             33.0553
  XXY=             28.0622  XXZ=             40.1257  XZZ=              9.6561  YZZ=              2.1982
  YYZ=              0.0473  XYZ=              6.9754
 Hexadecapole moment (field-independent basis, Debye-Ang**3):
 XXXX=          -5968.0896 YYYY=           -792.4554 ZZZZ=           -270.5069 XXXY=            217.1419
 XXXZ=            232.6746 YYYX=             99.1482 YYYZ=             10.1078 ZZZX=             -4.1454
 ZZZY=             -0.8871 XXYY=           -935.5014 XXZZ=           -971.7737 YYZZ=           -177.8063
 XXYZ=             23.1142 YYXZ=             14.8524 ZZXY=             14.2332
 N-N= 6.890468412447D+02 E-N=-2.642818457947D+03  KE= 5.405764457936D+02
 Unable to Open any file for archive entry.
 1\1\GINC-NOTCH075\SP\RM062X\def2TZVP\C10H20O2\U6032257\03-Feb-2022\0\\
 # M062X/def2tzvp int=(grid=ultrafine) nmr=giao guess=read geom=check\\
 Ac1.xyz\\0,1\O,0,5.6858809743,0.3694567406,-0.6350727885\C,0,5.4803323
 211,-0.6109173436,0.2836744144\C,0,4.4737104739,-1.624551076,-0.201212
 1981\C,0,3.0763957709,-1.0089962829,-0.4037953036\C,0,2.015305196,-2.0
 387428909,-0.8098829338\C,0,2.2636812117,-2.703689083,-2.1676159009\C,
 0,1.1250067329,-3.6412955628,-2.5834723546\C,0,1.3792773774,-4.4063067
 907,-3.8886014705\C,0,1.4993511862,-3.5187434846,-5.1316676967\C,0,1.6
 631377611,-4.3176953084,-6.4278169229\C,0,1.7881457748,-3.4298410139,-
 7.6674712178\O,0,6.0472516522,-0.6213562972,1.3537014106\H,0,6.3268990
 235,0.9792837082,-0.2327185483\H,0,4.4398692673,-2.4285314603,0.537864
 4694\H,0,4.8382305656,-2.0404034315,-1.1464887815\H,0,2.7680622867,-0.
 5221499587,0.529059055\H,0,3.1414675563,-0.2215711813,-1.1628864339\H,
 0,1.9406327092,-2.8122788507,-0.0331331425\H,0,1.0387015723,-1.5381686
 353,-0.8341984959\H,0,2.4035709477,-1.9226965384,-2.9259333259\H,0,3.2
 003814431,-3.2763332447,-2.141865763\H,0,0.9508492674,-4.3639928043,-1
 .775291536\H,0,0.1962697148,-3.061164148,-2.67720155\H,0,0.5623319558,
 -5.1232342513,-4.0442562476\H,0,2.2937340252,-5.0072291023,-3.78397560
 35\H,0,0.6073080754,-2.8804878011,-5.2085966406\H,0,2.3521808458,-2.83
 60671616,-5.0247424667\H,0,2.5494763774,-4.9609259795,-6.3448882976\H,
 0,0.8070065287,-4.9955459269,-6.5446104871\H,0,2.6564190465,-2.7657618
 395,-7.5908033239\H,0,1.9032064977,-4.0247424817,-8.5790122945\H,0,0.9
 011258611,-2.7984205179,-7.7909876234\\Version=ES64L-G16RevC.01\State=
 1-A\HF=-543.5419908\RMSD=2.406e-09\Dipole=-0.491715,-0.0233399,-0.6740
 269\Quadrupole=1.1333771,5.6259249,-6.759302,0.8353658,-6.0030569,-0.8
 646294\PG=C01 [X(C10H20O2)]\\@
 The archive entry for this job was punched.


 CHINESE FORTUNE COOKIE OF JAN 1 1967 SAY....
 ALL THINGS ARE DIFFICULT BEFORE THEY ARE EASY.
 WE LEARN SO LITTLE AND FORGET SO MUCH.
 YOU WILL OVERCOME OBSTACLES TO ACHIEVE SUCCESS.
 AH SO.
 Job cpu time:       0 days  0 hours 34 minutes 11.1 seconds.
 Elapsed time:       0 days  0 hours  1 minutes 14.7 seconds.
 File lengths (MBytes):  RWF=    140 Int=      0 D2E=      0 Chk=     24 Scr=      1
 Normal termination of Gaussian 16 at Thu Feb  3 10:02:46 2022.
