 Entering Gaussian System, Link 0=/uufs/chpc.utah.edu/sys/installdir/gaussian16/C01/AVX2/g16/g16
 Input=Ac1_clust-22.com
 Output=Ac1_clust-22.log
 Initial command:
 /uufs/chpc.utah.edu/sys/installdir/gaussian16/C01/AVX2/g16/l1.exe "/scratch/general/lustre/u6032257/3857478/notchpeak.peaks/Gau-226746.inp" -scrdir="/scratch/general/lustre/u6032257/3857478/notchpeak.peaks/"
 Entering Link 1 = /uufs/chpc.utah.edu/sys/installdir/gaussian16/C01/AVX2/g16/l1.exe PID=    226748.
  
 Copyright (c) 1988-2019, Gaussian, Inc.  All Rights Reserved.
  
 This is part of the Gaussian(R) 16 program.  It is based on
 the Gaussian(R) 09 system (copyright 2009, Gaussian, Inc.),
 the Gaussian(R) 03 system (copyright 2003, Gaussian, Inc.),
 the Gaussian(R) 98 system (copyright 1998, Gaussian, Inc.),
 the Gaussian(R) 94 system (copyright 1995, Gaussian, Inc.),
 the Gaussian 92(TM) system (copyright 1992, Gaussian, Inc.),
 the Gaussian 90(TM) system (copyright 1990, Gaussian, Inc.),
 the Gaussian 88(TM) system (copyright 1988, Gaussian, Inc.),
 the Gaussian 86(TM) system (copyright 1986, Carnegie Mellon
 University), and the Gaussian 82(TM) system (copyright 1983,
 Carnegie Mellon University). Gaussian is a federally registered
 trademark of Gaussian, Inc.
  
 This software contains proprietary and confidential information,
 including trade secrets, belonging to Gaussian, Inc.
  
 This software is provided under written license and may be
 used, copied, transmitted, or stored only in accord with that
 written license.
  
 The following legend is applicable only to US Government
 contracts under FAR:
  
                    RESTRICTED RIGHTS LEGEND
  
 Use, reproduction and disclosure by the US Government is
 subject to restrictions as set forth in subparagraphs (a)
 and (c) of the Commercial Computer Software - Restricted
 Rights clause in FAR 52.227-19.
  
 Gaussian, Inc.
 340 Quinnipiac St., Bldg. 40, Wallingford CT 06492
  
  
 ---------------------------------------------------------------
 Warning -- This program may not be used in any manner that
 competes with the business of Gaussian, Inc. or will provide
 assistance to any competitor of Gaussian, Inc.  The licensee
 of this program is prohibited from giving any competitor of
 Gaussian, Inc. access to this program.  By using this program,
 the user acknowledges that Gaussian, Inc. is engaged in the
 business of creating and licensing software in the field of
 computational chemistry and represents and warrants to the
 licensee that it is not a competitor of Gaussian, Inc. and that
 it will not use this program in any manner prohibited above.
 ---------------------------------------------------------------
  

 Cite this work as:
 Gaussian 16, Revision C.01,
 M. J. Frisch, G. W. Trucks, H. B. Schlegel, G. E. Scuseria, 
 M. A. Robb, J. R. Cheeseman, G. Scalmani, V. Barone, 
 G. A. Petersson, H. Nakatsuji, X. Li, M. Caricato, A. V. Marenich, 
 J. Bloino, B. G. Janesko, R. Gomperts, B. Mennucci, H. P. Hratchian, 
 J. V. Ortiz, A. F. Izmaylov, J. L. Sonnenberg, D. Williams-Young, 
 F. Ding, F. Lipparini, F. Egidi, J. Goings, B. Peng, A. Petrone, 
 T. Henderson, D. Ranasinghe, V. G. Zakrzewski, J. Gao, N. Rega, 
 G. Zheng, W. Liang, M. Hada, M. Ehara, K. Toyota, R. Fukuda, 
 J. Hasegawa, M. Ishida, T. Nakajima, Y. Honda, O. Kitao, H. Nakai, 
 T. Vreven, K. Throssell, J. A. Montgomery, Jr., J. E. Peralta, 
 F. Ogliaro, M. J. Bearpark, J. J. Heyd, E. N. Brothers, K. N. Kudin, 
 V. N. Staroverov, T. A. Keith, R. Kobayashi, J. Normand, 
 K. Raghavachari, A. P. Rendell, J. C. Burant, S. S. Iyengar, 
 J. Tomasi, M. Cossi, J. M. Millam, M. Klene, C. Adamo, R. Cammi, 
 J. W. Ochterski, R. L. Martin, K. Morokuma, O. Farkas, 
 J. B. Foresman, and D. J. Fox, Gaussian, Inc., Wallingford CT, 2019.
 
 ******************************************
 Gaussian 16:  ES64L-G16RevC.01  3-Jul-2019
                 3-Feb-2022 
 ******************************************
 %NProcShared=32
 Will use up to   32 processors via shared memory.
 %mem=16GB
 %chk=Ac1_clust-22.chk
 ----------------------------------------------------------------------
 # B3LYP/6-31G(d,p) empiricaldispersion=GD3BJ int=(grid=ultrafine) opt 
 freq=noraman
 ----------------------------------------------------------------------
 1/18=20,19=15,26=4,38=1/1,3;
 2/9=110,12=2,17=6,18=5,40=1/2;
 3/5=1,6=6,7=101,11=2,25=1,30=1,71=1,74=-5,75=-5,124=41/1,2,3;
 4//1;
 5/5=2,38=5/2;
 6/7=2,8=2,9=2,10=2,28=1/1;
 7//1,2,3,16;
 1/18=20,19=15,26=4/3(2);
 2/9=110/2;
 99//99;
 2/9=110/2;
 3/5=1,6=6,7=101,11=2,25=1,30=1,71=1,74=-5,75=-5,124=41/1,2,3;
 4/5=5,16=3,69=1/1;
 5/5=2,38=5/2;
 7//1,2,3,16;
 1/18=20,19=15,26=4/3(-5);
 2/9=110/2;
 6/7=2,8=2,9=2,10=2,19=2,28=1/1;
 99/9=1/99;
 -------
 Ac1.xyz
 -------
 Symbolic Z-matrix:
 Charge =  0 Multiplicity = 1
 O                     6.0304    0.0861   -0.9804 
 C                     5.2516   -0.4973   -0.0451 
 C                     3.9939   -1.1103   -0.658 
 C                     3.0394   -1.7718    0.3654 
 C                     1.6609   -2.1719   -0.2026 
 C                     1.6852   -3.2479   -1.3109 
 C                     1.7364   -2.6822   -2.7442 
 C                     1.7605   -3.7853   -3.8169 
 C                     1.8052   -3.223    -5.2486 
 C                     1.8297   -4.3258   -6.3207 
 C                     1.8744   -3.7631   -7.7482 
 O                     5.5394   -0.5229    1.1435 
 H                     6.7758    0.4267   -0.4849 
 H                     4.321    -1.8434   -1.3938 
 H                     3.4753   -0.3129   -1.1895 
 H                     3.5205   -2.6503    0.8012 
 H                     2.8706   -1.0882    1.2012 
 H                     1.0661   -2.5557    0.6284 
 H                     1.124    -1.2855   -0.5453 
 H                     2.5159   -3.9361   -1.1446 
 H                     0.7836   -3.8567   -1.2205 
 H                     0.8699   -2.0389   -2.9079 
 H                     2.6092   -2.043    -2.8707 
 H                     0.8806   -4.4214   -3.7042 
 H                     2.6254   -4.4309   -3.6536 
 H                     0.9406   -2.577    -5.4124 
 H                     2.6853   -2.5873   -5.362 
 H                     2.6942   -4.9732   -6.1628 
 H                     0.9499   -4.9629   -6.2134 
 H                     1.0023   -3.1424   -7.958 
 H                     2.7644   -3.1529   -7.907 
 H                     1.8909   -4.5671   -8.4848 
 

 GradGradGradGradGradGradGradGradGradGradGradGradGradGradGradGradGradGrad
 Berny optimization.
 Initialization pass.
                           ----------------------------
                           !    Initial Parameters    !
                           ! (Angstroms and Degrees)  !
 --------------------------                            --------------------------
 ! Name  Definition              Value          Derivative Info.                !
 --------------------------------------------------------------------------------
 ! R1    R(1,2)                  1.3497         estimate D2E/DX2                !
 ! R2    R(1,13)                 0.9577         estimate D2E/DX2                !
 ! R3    R(2,3)                  1.5275         estimate D2E/DX2                !
 ! R4    R(2,12)                 1.2232         estimate D2E/DX2                !
 ! R5    R(3,4)                  1.5479         estimate D2E/DX2                !
 ! R6    R(3,14)                 1.089          estimate D2E/DX2                !
 ! R7    R(3,15)                 1.0896         estimate D2E/DX2                !
 ! R8    R(4,5)                  1.5437         estimate D2E/DX2                !
 ! R9    R(4,16)                 1.0923         estimate D2E/DX2                !
 ! R10   R(4,17)                 1.0929         estimate D2E/DX2                !
 ! R11   R(5,6)                  1.5449         estimate D2E/DX2                !
 ! R12   R(5,18)                 1.0916         estimate D2E/DX2                !
 ! R13   R(5,19)                 1.0915         estimate D2E/DX2                !
 ! R14   R(6,7)                  1.5417         estimate D2E/DX2                !
 ! R15   R(6,20)                 1.0915         estimate D2E/DX2                !
 ! R16   R(6,21)                 1.0916         estimate D2E/DX2                !
 ! R17   R(7,8)                  1.5389         estimate D2E/DX2                !
 ! R18   R(7,22)                 1.0915         estimate D2E/DX2                !
 ! R19   R(7,23)                 1.0892         estimate D2E/DX2                !
 ! R20   R(8,9)                  1.5388         estimate D2E/DX2                !
 ! R21   R(8,24)                 1.0916         estimate D2E/DX2                !
 ! R22   R(8,25)                 1.0916         estimate D2E/DX2                !
 ! R23   R(9,10)                 1.5382         estimate D2E/DX2                !
 ! R24   R(9,26)                 1.0916         estimate D2E/DX2                !
 ! R25   R(9,27)                 1.0916         estimate D2E/DX2                !
 ! R26   R(10,11)                1.5351         estimate D2E/DX2                !
 ! R27   R(10,28)                1.0915         estimate D2E/DX2                !
 ! R28   R(10,29)                1.0915         estimate D2E/DX2                !
 ! R29   R(11,30)                1.0908         estimate D2E/DX2                !
 ! R30   R(11,31)                1.0907         estimate D2E/DX2                !
 ! R31   R(11,32)                1.0905         estimate D2E/DX2                !
 ! A1    A(2,1,13)             104.1408         estimate D2E/DX2                !
 ! A2    A(1,2,3)              111.7476         estimate D2E/DX2                !
 ! A3    A(1,2,12)             123.1373         estimate D2E/DX2                !
 ! A4    A(3,2,12)             125.115          estimate D2E/DX2                !
 ! A5    A(2,3,4)              114.4529         estimate D2E/DX2                !
 ! A6    A(2,3,14)             107.0953         estimate D2E/DX2                !
 ! A7    A(2,3,15)             107.0926         estimate D2E/DX2                !
 ! A8    A(4,3,14)             110.1368         estimate D2E/DX2                !
 ! A9    A(4,3,15)             109.9838         estimate D2E/DX2                !
 ! A10   A(14,3,15)            107.8205         estimate D2E/DX2                !
 ! A11   A(3,4,5)              114.7177         estimate D2E/DX2                !
 ! A12   A(3,4,16)             109.6265         estimate D2E/DX2                !
 ! A13   A(3,4,17)             109.4853         estimate D2E/DX2                !
 ! A14   A(5,4,16)             109.3697         estimate D2E/DX2                !
 ! A15   A(5,4,17)             107.7939         estimate D2E/DX2                !
 ! A16   A(16,4,17)            105.425          estimate D2E/DX2                !
 ! A17   A(4,5,6)              115.4954         estimate D2E/DX2                !
 ! A18   A(4,5,18)             107.3131         estimate D2E/DX2                !
 ! A19   A(4,5,19)             110.1387         estimate D2E/DX2                !
 ! A20   A(6,5,18)             108.0479         estimate D2E/DX2                !
 ! A21   A(6,5,19)             110.3713         estimate D2E/DX2                !
 ! A22   A(18,5,19)            104.8629         estimate D2E/DX2                !
 ! A23   A(5,6,7)              114.3242         estimate D2E/DX2                !
 ! A24   A(5,6,20)             109.9875         estimate D2E/DX2                !
 ! A25   A(5,6,21)             108.4227         estimate D2E/DX2                !
 ! A26   A(7,6,20)             110.3479         estimate D2E/DX2                !
 ! A27   A(7,6,21)             108.0015         estimate D2E/DX2                !
 ! A28   A(20,6,21)            105.327          estimate D2E/DX2                !
 ! A29   A(6,7,8)              112.6774         estimate D2E/DX2                !
 ! A30   A(6,7,22)             109.2267         estimate D2E/DX2                !
 ! A31   A(6,7,23)             110.4818         estimate D2E/DX2                !
 ! A32   A(8,7,22)             109.2903         estimate D2E/DX2                !
 ! A33   A(8,7,23)             109.0968         estimate D2E/DX2                !
 ! A34   A(22,7,23)            105.8331         estimate D2E/DX2                !
 ! A35   A(7,8,9)              112.7723         estimate D2E/DX2                !
 ! A36   A(7,8,24)             109.4586         estimate D2E/DX2                !
 ! A37   A(7,8,25)             109.3956         estimate D2E/DX2                !
 ! A38   A(9,8,24)             109.4152         estimate D2E/DX2                !
 ! A39   A(9,8,25)             109.4079         estimate D2E/DX2                !
 ! A40   A(24,8,25)            106.1764         estimate D2E/DX2                !
 ! A41   A(8,9,10)             112.7644         estimate D2E/DX2                !
 ! A42   A(8,9,26)             109.4411         estimate D2E/DX2                !
 ! A43   A(8,9,27)             109.4436         estimate D2E/DX2                !
 ! A44   A(10,9,26)            109.4078         estimate D2E/DX2                !
 ! A45   A(10,9,27)            109.4064         estimate D2E/DX2                !
 ! A46   A(26,9,27)            106.1623         estimate D2E/DX2                !
 ! A47   A(9,10,11)            112.6933         estimate D2E/DX2                !
 ! A48   A(9,10,28)            109.6949         estimate D2E/DX2                !
 ! A49   A(9,10,29)            109.7002         estimate D2E/DX2                !
 ! A50   A(11,10,28)           109.2008         estimate D2E/DX2                !
 ! A51   A(11,10,29)           109.1984         estimate D2E/DX2                !
 ! A52   A(28,10,29)           106.1392         estimate D2E/DX2                !
 ! A53   A(10,11,30)           111.3564         estimate D2E/DX2                !
 ! A54   A(10,11,31)           111.3601         estimate D2E/DX2                !
 ! A55   A(10,11,32)           110.9965         estimate D2E/DX2                !
 ! A56   A(30,11,31)           107.8202         estimate D2E/DX2                !
 ! A57   A(30,11,32)           107.56           estimate D2E/DX2                !
 ! A58   A(31,11,32)           107.5639         estimate D2E/DX2                !
 ! D1    D(13,1,2,3)          -179.8825         estimate D2E/DX2                !
 ! D2    D(13,1,2,12)           -0.0451         estimate D2E/DX2                !
 ! D3    D(1,2,3,4)           -178.7897         estimate D2E/DX2                !
 ! D4    D(1,2,3,14)            58.8312         estimate D2E/DX2                !
 ! D5    D(1,2,3,15)           -56.6079         estimate D2E/DX2                !
 ! D6    D(12,2,3,4)             1.3767         estimate D2E/DX2                !
 ! D7    D(12,2,3,14)         -121.0024         estimate D2E/DX2                !
 ! D8    D(12,2,3,15)          123.5585         estimate D2E/DX2                !
 ! D9    D(2,3,4,5)            169.8007         estimate D2E/DX2                !
 ! D10   D(2,3,4,16)           -66.7095         estimate D2E/DX2                !
 ! D11   D(2,3,4,17)            48.4865         estimate D2E/DX2                !
 ! D12   D(14,3,4,5)           -69.4894         estimate D2E/DX2                !
 ! D13   D(14,3,4,16)           54.0005         estimate D2E/DX2                !
 ! D14   D(14,3,4,17)          169.1964         estimate D2E/DX2                !
 ! D15   D(15,3,4,5)            49.2082         estimate D2E/DX2                !
 ! D16   D(15,3,4,16)          172.6981         estimate D2E/DX2                !
 ! D17   D(15,3,4,17)          -72.106          estimate D2E/DX2                !
 ! D18   D(3,4,5,6)             63.4608         estimate D2E/DX2                !
 ! D19   D(3,4,5,18)          -175.9968         estimate D2E/DX2                !
 ! D20   D(3,4,5,19)           -62.3882         estimate D2E/DX2                !
 ! D21   D(16,4,5,6)           -60.1661         estimate D2E/DX2                !
 ! D22   D(16,4,5,18)           60.3763         estimate D2E/DX2                !
 ! D23   D(16,4,5,19)          173.9849         estimate D2E/DX2                !
 ! D24   D(17,4,5,6)          -174.3039         estimate D2E/DX2                !
 ! D25   D(17,4,5,18)          -53.7615         estimate D2E/DX2                !
 ! D26   D(17,4,5,19)           59.8471         estimate D2E/DX2                !
 ! D27   D(4,5,6,7)            -92.7886         estimate D2E/DX2                !
 ! D28   D(4,5,6,20)            31.9941         estimate D2E/DX2                !
 ! D29   D(4,5,6,21)           146.6783         estimate D2E/DX2                !
 ! D30   D(18,5,6,7)           147.0692         estimate D2E/DX2                !
 ! D31   D(18,5,6,20)          -88.1482         estimate D2E/DX2                !
 ! D32   D(18,5,6,21)           26.5361         estimate D2E/DX2                !
 ! D33   D(19,5,6,7)            32.9413         estimate D2E/DX2                !
 ! D34   D(19,5,6,20)          157.724          estimate D2E/DX2                !
 ! D35   D(19,5,6,21)          -87.5918         estimate D2E/DX2                !
 ! D36   D(5,6,7,8)            179.9515         estimate D2E/DX2                !
 ! D37   D(5,6,7,22)           -58.3863         estimate D2E/DX2                !
 ! D38   D(5,6,7,23)            57.6361         estimate D2E/DX2                !
 ! D39   D(20,6,7,8)            55.3601         estimate D2E/DX2                !
 ! D40   D(20,6,7,22)          177.0223         estimate D2E/DX2                !
 ! D41   D(20,6,7,23)          -66.9553         estimate D2E/DX2                !
 ! D42   D(21,6,7,8)           -59.2815         estimate D2E/DX2                !
 ! D43   D(21,6,7,22)           62.3807         estimate D2E/DX2                !
 ! D44   D(21,6,7,23)          178.4031         estimate D2E/DX2                !
 ! D45   D(6,7,8,9)            179.741          estimate D2E/DX2                !
 ! D46   D(6,7,8,24)            57.6905         estimate D2E/DX2                !
 ! D47   D(6,7,8,25)           -58.2628         estimate D2E/DX2                !
 ! D48   D(22,7,8,9)            58.1149         estimate D2E/DX2                !
 ! D49   D(22,7,8,24)          -63.9357         estimate D2E/DX2                !
 ! D50   D(22,7,8,25)         -179.889          estimate D2E/DX2                !
 ! D51   D(23,7,8,9)           -57.1674         estimate D2E/DX2                !
 ! D52   D(23,7,8,24)         -179.2179         estimate D2E/DX2                !
 ! D53   D(23,7,8,25)           64.8288         estimate D2E/DX2                !
 ! D54   D(7,8,9,10)           179.9832         estimate D2E/DX2                !
 ! D55   D(7,8,9,26)           -57.9935         estimate D2E/DX2                !
 ! D56   D(7,8,9,27)            57.96           estimate D2E/DX2                !
 ! D57   D(24,8,9,10)          -57.9417         estimate D2E/DX2                !
 ! D58   D(24,8,9,26)           64.0815         estimate D2E/DX2                !
 ! D59   D(24,8,9,27)         -179.9649         estimate D2E/DX2                !
 ! D60   D(25,8,9,10)           57.994          estimate D2E/DX2                !
 ! D61   D(25,8,9,26)         -179.9828         estimate D2E/DX2                !
 ! D62   D(25,8,9,27)          -64.0292         estimate D2E/DX2                !
 ! D63   D(8,9,10,11)         -179.9952         estimate D2E/DX2                !
 ! D64   D(8,9,10,28)          -58.1038         estimate D2E/DX2                !
 ! D65   D(8,9,10,29)           58.1127         estimate D2E/DX2                !
 ! D66   D(26,9,10,11)          57.9628         estimate D2E/DX2                !
 ! D67   D(26,9,10,28)         179.8542         estimate D2E/DX2                !
 ! D68   D(26,9,10,29)         -63.9293         estimate D2E/DX2                !
 ! D69   D(27,9,10,11)         -57.951          estimate D2E/DX2                !
 ! D70   D(27,9,10,28)          63.9404         estimate D2E/DX2                !
 ! D71   D(27,9,10,29)        -179.8431         estimate D2E/DX2                !
 ! D72   D(9,10,11,30)         -60.1912         estimate D2E/DX2                !
 ! D73   D(9,10,11,31)          60.1903         estimate D2E/DX2                !
 ! D74   D(9,10,11,32)        -179.9968         estimate D2E/DX2                !
 ! D75   D(28,10,11,30)        177.6385         estimate D2E/DX2                !
 ! D76   D(28,10,11,31)        -61.98           estimate D2E/DX2                !
 ! D77   D(28,10,11,32)         57.833          estimate D2E/DX2                !
 ! D78   D(29,10,11,30)         61.9841         estimate D2E/DX2                !
 ! D79   D(29,10,11,31)       -177.6344         estimate D2E/DX2                !
 ! D80   D(29,10,11,32)        -57.8215         estimate D2E/DX2                !
 --------------------------------------------------------------------------------
 Trust Radius=3.00D-01 FncErr=1.00D-07 GrdErr=1.00D-06 EigMax=2.50D+02 EigMin=1.00D-04
 Number of steps in this run=    179 maximum allowed number of steps=    192.
 GradGradGradGradGradGradGradGradGradGradGradGradGradGradGradGradGradGrad

                          Input orientation:                          
 ---------------------------------------------------------------------
 Center     Atomic      Atomic             Coordinates (Angstroms)
 Number     Number       Type             X           Y           Z
 ---------------------------------------------------------------------
      1          8           0        6.030400    0.086100   -0.980400
      2          6           0        5.251600   -0.497300   -0.045100
      3          6           0        3.993900   -1.110300   -0.658000
      4          6           0        3.039400   -1.771800    0.365400
      5          6           0        1.660900   -2.171900   -0.202600
      6          6           0        1.685200   -3.247900   -1.310900
      7          6           0        1.736400   -2.682200   -2.744200
      8          6           0        1.760500   -3.785300   -3.816900
      9          6           0        1.805200   -3.223000   -5.248600
     10          6           0        1.829700   -4.325800   -6.320700
     11          6           0        1.874400   -3.763100   -7.748200
     12          8           0        5.539400   -0.522900    1.143500
     13          1           0        6.775800    0.426700   -0.484900
     14          1           0        4.321000   -1.843400   -1.393800
     15          1           0        3.475300   -0.312900   -1.189500
     16          1           0        3.520500   -2.650300    0.801200
     17          1           0        2.870600   -1.088200    1.201200
     18          1           0        1.066100   -2.555700    0.628400
     19          1           0        1.124000   -1.285500   -0.545300
     20          1           0        2.515900   -3.936100   -1.144600
     21          1           0        0.783600   -3.856700   -1.220500
     22          1           0        0.869900   -2.038900   -2.907900
     23          1           0        2.609200   -2.043000   -2.870700
     24          1           0        0.880600   -4.421400   -3.704200
     25          1           0        2.625400   -4.430900   -3.653600
     26          1           0        0.940600   -2.577000   -5.412400
     27          1           0        2.685300   -2.587300   -5.362000
     28          1           0        2.694200   -4.973200   -6.162800
     29          1           0        0.949900   -4.962900   -6.213400
     30          1           0        1.002300   -3.142400   -7.958000
     31          1           0        2.764400   -3.152900   -7.907000
     32          1           0        1.890900   -4.567100   -8.484800
 ---------------------------------------------------------------------
                    Distance matrix (angstroms):
                    1          2          3          4          5
     1  O    0.000000
     2  C    1.349693   0.000000
     3  C    2.383830   1.527490   0.000000
     4  C    3.769489   2.585863   1.547902   0.000000
     5  C    4.979565   3.965125   2.603320   1.543686   0.000000
     6  C    5.486852   4.678382   3.213364   2.612032   1.544893
     7  C    5.404897   4.941210   3.452449   3.492313   2.593422
     8  C    6.423824   6.101246   4.703440   4.814707   3.959311
     9  C    6.857112   6.810545   5.507043   5.928425   5.156331
    10  C    8.101206   8.108635   6.862170   7.258803   6.488369
    11  C    8.825633   9.022676   7.861333   8.435224   7.714504
    12  O    2.263385   1.223215   2.445202   2.900895   4.424246
    13  H    0.957679   1.835861   3.182970   4.417816   5.744094
    14  H    2.610731   2.120612   1.088959   2.177707   2.933087
    15  H    2.594506   2.121060   1.089626   2.176261   2.778831
    16  H    4.118444   2.889349   2.173700   1.092310   2.166701
    17  H    4.015308   2.751652   2.172307   1.092870   2.146726
    18  H    5.849070   4.712645   3.509419   2.139528   1.091627
    19  H    5.113058   4.231848   2.877451   2.175918   1.091517
    20  H    5.343853   4.529713   3.225897   2.690418   2.175038
    21  H    6.567513   5.712281   4.262059   3.456952   2.155070
    22  H    5.904375   5.456322   3.960268   3.936060   2.821705
    23  H    4.450945   4.165991   2.771888   3.275815   2.834545
    24  H    7.365941   6.920492   5.471321   5.314362   4.234421
    25  H    6.256462   5.949068   4.676836   4.836793   4.235887
    26  H    7.255397   7.191508   5.837651   6.199700   5.274936
    27  H    6.126596   6.262860   5.101135   5.795993   5.276491
    28  H    7.973959   8.000014   6.849382   7.279115   6.666256
    29  H    8.870635   8.746092   7.414238   7.604587   6.665202
    30  H    9.186507   9.363071   8.146723   8.677978   7.843587
    31  H    8.314786   8.663016   7.630982   8.391404   7.844607
    32  H    9.752115   9.954201   8.810838   9.351941   8.624658
                    6          7          8          9         10
     6  C    0.000000
     7  C    1.541748   0.000000
     8  C    2.564080   1.538862   0.000000
     9  C    3.939607   2.563048   1.538813   0.000000
    10  C    5.126485   3.937192   2.562410   1.538235   0.000000
    11  C    6.460655   5.121270   3.933012   2.558221   1.535052
    12  O    5.320203   5.851461   7.037678   7.879958   9.161780
    13  H    6.332391   6.337606   7.348224   7.792305   9.005927
    14  H    2.987798   3.034357   4.024742   4.805417   6.053365
    15  H    3.439974   3.324823   4.679886   5.266328   6.718674
    16  H    2.861192   3.969117   5.070766   6.314295   7.509165
    17  H    3.518540   4.403797   5.804136   6.876945   8.254969
    18  H    2.150188   3.440892   4.664204   5.960762   7.211541
    19  H    2.179932   2.675998   4.166233   5.132151   6.564806
    20  H    1.091484   2.176834   2.781107   4.225686   5.235909
    21  H    1.091647   2.146844   2.775018   4.203669   5.227468
    22  H    2.162592   1.091538   2.160871   2.784916   4.218807
    23  H    2.176818   1.089201   2.156663   2.773666   4.209667
    24  H    2.784308   2.163056   1.091581   2.162457   2.784960
    25  H    2.787778   2.162240   1.091567   2.162354   2.785248
    26  H    4.222184   2.786334   2.162833   1.091641   2.161899
    27  H    4.224690   2.786089   2.162821   1.091581   2.161837
    28  H    5.247445   4.225268   2.790367   2.165475   1.091522
    29  H    5.245607   4.225580   2.790524   2.165555   1.091539
    30  H    6.682920   5.285300   4.258744   2.827011   2.183066
    31  H    6.684477   5.285153   4.258716   2.827025   2.183050
    32  H    7.297085   6.044105   4.734713   3.505273   2.178371
                   11         12         13         14         15
    11  C    0.000000
    12  O   10.148569   0.000000
    13  H    9.712552   2.254354   0.000000
    14  H    7.074567   3.109037   3.464895   0.000000
    15  H    7.581775   3.122098   3.454963   1.760505   0.000000
    16  H    8.777255   2.952788   4.660361   2.471824   3.070565
    17  H    9.393576   2.728624   4.515356   3.067248   2.584995
    18  H    8.501682   4.940447   6.537188   3.897568   3.760207
    19  H    7.653977   4.788461   5.905770   3.354402   2.624796
    20  H    6.636941   5.101655   6.133186   2.774866   3.748339
    21  H    6.618872   6.270594   7.402370   4.073894   4.450250
    22  H    5.235493   6.365244   6.843228   3.773700   3.566523
    23  H    5.223857   5.197170   5.399261   2.269655   2.563164
    24  H    4.216033   7.771931   8.283800   4.880613   5.471376
    25  H    4.216125   6.839300   7.131813   3.831046   4.873607
    26  H    2.781147   8.267292   8.206828   5.302303   5.420677
    27  H    2.781010   7.397916   7.042904   4.356089   4.817339
    28  H    2.156364   9.015673   8.834983   5.931736   6.860191
    29  H    2.156347   9.741719   9.787983   6.657638   7.296555
    30  H    1.090799  10.501636  10.095494   7.469263   7.741731
    31  H    1.090716   9.824921   9.164739   6.823457   7.327741
    32  H    1.090536  11.062155  10.620673   7.975350   8.592435
                   16         17         18         19         20
    16  H    0.000000
    17  H    1.738541   0.000000
    18  H    2.462293   2.395386   0.000000
    19  H    3.069031   2.477862   1.730414   0.000000
    20  H    2.539417   3.706632   2.674127   3.053232   0.000000
    21  H    3.610165   4.229042   2.278341   2.680081   1.735779
    22  H    4.599664   4.668119   3.579245   2.492801   3.068861
    23  H    3.831727   4.190506   3.858461   2.861313   2.563582
    24  H    5.514027   6.255659   4.720876   4.457775   3.075918
    25  H    4.880265   5.899394   4.927810   4.670040   2.559668
    26  H    6.728305   7.048484   6.042141   5.038876   4.747930
    27  H    6.219852   6.734778   6.205457   5.228091   4.431074
    28  H    7.387553   8.327835   7.390224   6.900795   5.127348
    29  H    7.820532   8.583629   7.253850   6.758768   5.403648
    30  H    9.127271   9.570853   8.606657   7.642710   7.024483
    31  H    8.755401   9.339891   8.723183   7.769989   6.812137
    32  H    9.620786  10.338334   9.368908   8.625120   7.393735
                   21         22         23         24         25
    21  H    0.000000
    22  H    2.481766   0.000000
    23  H    3.057038   1.739703   0.000000
    24  H    2.548933   2.512074   3.056070   0.000000
    25  H    3.105142   3.059332   2.513018   1.745559   0.000000
    26  H    4.385693   2.562630   3.087008   2.514629   3.060862
    27  H    4.730736   3.101456   2.551202   3.060909   2.514176
    28  H    5.415099   4.746847   4.408086   3.104568   2.568055
    29  H    5.116677   4.413899   4.738432   2.567900   3.105302
    30  H    6.778788   5.170953   5.447149   4.443587   4.777295
    31  H    7.009150   5.460872   5.159485   4.777167   4.443424
    32  H    7.382468   6.207741   6.197189   4.888361   4.888613
                   26         27         28         29         30
    26  H    0.000000
    27  H    1.745458   0.000000
    28  H    3.062677   2.516720   0.000000
    29  H    2.516785   3.062674   1.745064   0.000000
    30  H    2.608364   3.143221   3.071986   2.522022   0.000000
    31  H    3.143396   2.608292   2.522034   3.071936   1.762869
    32  H    3.781958   3.781872   2.490360   2.490260   1.759801
                   31         32
    31  H    0.000000
    32  H    1.759777   0.000000
 Stoichiometry    C10H20O2
 Framework group  C1[X(C10H20O2)]
 Deg. of freedom    90
 Full point group                 C1      NOp   1
 Largest Abelian subgroup         C1      NOp   1
 Largest concise Abelian subgroup C1      NOp   1
                         Standard orientation:                         
 ---------------------------------------------------------------------
 Center     Atomic      Atomic             Coordinates (Angstroms)
 Number     Number       Type             X           Y           Z
 ---------------------------------------------------------------------
      1          8           0       -3.304051   -2.428509    0.163095
      2          6           0       -3.540128   -1.119377   -0.065187
      3          6           0       -2.294840   -0.268899    0.178056
      4          6           0       -2.503867    1.249606   -0.037467
      5          6           0       -1.334055    2.136405    0.440125
      6          6           0        0.006508    1.922777   -0.297405
      7          6           0        0.946505    0.903194    0.376274
      8          6           0        2.268541    0.718936   -0.389469
      9          6           0        3.211118   -0.293603    0.284517
     10          6           0        4.532381   -0.477954   -0.481280
     11          6           0        5.471318   -1.488384    0.192376
     12          8           0       -4.626803   -0.688834   -0.425776
     13          1           0       -4.142519   -2.853033   -0.021025
     14          1           0       -1.518833   -0.639075   -0.490236
     15          1           0       -1.972159   -0.458839    1.201328
     16          1           0       -2.700061    1.446671   -1.093788
     17          1           0       -3.404685    1.572154    0.490600
     18          1           0       -1.635798    3.175962    0.298975
     19          1           0       -1.196341    2.028663    1.517546
     20          1           0       -0.179498    1.639624   -1.334981
     21          1           0        0.528428    2.880201   -0.348705
     22          1           0        1.162377    1.231545    1.394626
     23          1           0        0.453533   -0.063150    0.473827
     24          1           0        2.774473    1.682082   -0.478521
     25          1           0        2.054549    0.392437   -1.408844
     26          1           0        3.425247    0.032251    1.304148
     27          1           0        2.705848   -1.257129    0.373240
     28          1           0        4.323740   -0.806382   -1.501095
     29          1           0        5.043148    0.482587   -0.570365
     30          1           0        5.736638   -1.172162    1.202055
     31          1           0        5.010024   -2.474312    0.261766
     32          1           0        6.397834   -1.597560   -0.372351
 ---------------------------------------------------------------------
 Rotational constants (GHZ):           1.3650790           0.2683082           0.2309726
 Standard basis: 6-31G(d,p) (6D, 7F)
 There are   280 symmetry adapted cartesian basis functions of A   symmetry.
 There are   280 symmetry adapted basis functions of A   symmetry.
   280 basis functions,   476 primitive gaussians,   280 cartesian basis functions
    48 alpha electrons       48 beta electrons
       nuclear repulsion energy       691.7171699129 Hartrees.
 NAtoms=   32 NActive=   32 NUniq=   32 SFac= 1.00D+00 NAtFMM=   60 NAOKFM=F Big=F
 Integral buffers will be    131072 words long.
 Raffenetti 2 integral format.
 Two-electron integral symmetry is turned on.
 Nuclear repulsion after empirical dispersion term =      691.6707907346 Hartrees.
 One-electron integrals computed using PRISM.
 NBasis=   280 RedAO= T EigKep=  2.77D-03  NBF=   280
 NBsUse=   280 1.00D-06 EigRej= -1.00D+00 NBFU=   280
 ExpMin= 1.61D-01 ExpMax= 5.48D+03 ExpMxC= 8.25D+02 IAcc=3 IRadAn=         5 AccDes= 0.00D+00
 Harris functional with IExCor=  402 and IRadAn=       5 diagonalized for initial guess.
 HarFok:  IExCor=  402 AccDes= 0.00D+00 IRadAn=         5 IDoV= 1 UseB2=F ITyADJ=14
 ICtDFT=  3500011 ScaDFX=  1.000000  1.000000  1.000000  1.000000
 FoFCou: FMM=F IPFlag=           0 FMFlag=      100000 FMFlg1=           0
         NFxFlg=           0 DoJE=T BraDBF=F KetDBF=T FulRan=T
         wScrn=  0.000000 ICntrl=       500 IOpCl=  0 I1Cent=   200000004 NGrid=           0
         NMat0=    1 NMatS0=      1 NMatT0=    0 NMatD0=    1 NMtDS0=    0 NMtDT0=    0
 Petite list used in FoFCou.
 Requested convergence on RMS density matrix=1.00D-08 within 128 cycles.
 Requested convergence on MAX density matrix=1.00D-06.
 Requested convergence on             energy=1.00D-06.
 No special actions if energy rises.
 Integral accuracy reduced to 1.0D-05 until final iterations.
 Initial convergence to 1.0D-05 achieved.  Increase integral accuracy.
 SCF Done:  E(RB3LYP) =  -543.663651699     A.U. after   13 cycles
            NFock= 13  Conv=0.53D-08     -V/T= 2.0096

 **********************************************************************

            Population analysis using the SCF Density.

 **********************************************************************

 Orbital symmetries:
       Occupied  (A) (A) (A) (A) (A) (A) (A) (A) (A) (A) (A) (A)
                 (A) (A) (A) (A) (A) (A) (A) (A) (A) (A) (A) (A)
                 (A) (A) (A) (A) (A) (A) (A) (A) (A) (A) (A) (A)
                 (A) (A) (A) (A) (A) (A) (A) (A) (A) (A) (A) (A)
       Virtual   (A) (A) (A) (A) (A) (A) (A) (A) (A) (A) (A) (A)
                 (A) (A) (A) (A) (A) (A) (A) (A) (A) (A) (A) (A)
                 (A) (A) (A) (A) (A) (A) (A) (A) (A) (A) (A) (A)
                 (A) (A) (A) (A) (A) (A) (A) (A) (A) (A) (A) (A)
                 (A) (A) (A) (A) (A) (A) (A) (A) (A) (A) (A) (A)
                 (A) (A) (A) (A) (A) (A) (A) (A) (A) (A) (A) (A)
                 (A) (A) (A) (A) (A) (A) (A) (A) (A) (A) (A) (A)
                 (A) (A) (A) (A) (A) (A) (A) (A) (A) (A) (A) (A)
                 (A) (A) (A) (A) (A) (A) (A) (A) (A) (A) (A) (A)
                 (A) (A) (A) (A) (A) (A) (A) (A) (A) (A) (A) (A)
                 (A) (A) (A) (A) (A) (A) (A) (A) (A) (A) (A) (A)
                 (A) (A) (A) (A) (A) (A) (A) (A) (A) (A) (A) (A)
                 (A) (A) (A) (A) (A) (A) (A) (A) (A) (A) (A) (A)
                 (A) (A) (A) (A) (A) (A) (A) (A) (A) (A) (A) (A)
                 (A) (A) (A) (A) (A) (A) (A) (A) (A) (A) (A) (A)
                 (A) (A) (A) (A) (A) (A) (A) (A) (A) (A) (A) (A)
                 (A) (A) (A) (A) (A) (A) (A) (A) (A) (A) (A) (A)
                 (A) (A) (A) (A) (A) (A) (A) (A) (A) (A) (A) (A)
                 (A) (A) (A) (A) (A) (A) (A) (A) (A) (A) (A) (A)
                 (A) (A) (A) (A)
 The electronic state is 1-A.
 Alpha  occ. eigenvalues --  -19.19833 -19.13776 -10.32093 -10.20003 -10.18386
 Alpha  occ. eigenvalues --  -10.18030 -10.17791 -10.17664 -10.17647 -10.17538
 Alpha  occ. eigenvalues --  -10.17487 -10.16980  -1.10770  -1.01056  -0.81205
 Alpha  occ. eigenvalues --   -0.79465  -0.76609  -0.73224  -0.69001  -0.64500
 Alpha  occ. eigenvalues --   -0.60792  -0.58073  -0.57659  -0.56254  -0.49367
 Alpha  occ. eigenvalues --   -0.48173  -0.47865  -0.47374  -0.44666  -0.43686
 Alpha  occ. eigenvalues --   -0.42729  -0.41933  -0.40848  -0.39710  -0.39007
 Alpha  occ. eigenvalues --   -0.38012  -0.36997  -0.36379  -0.34648  -0.33930
 Alpha  occ. eigenvalues --   -0.33579  -0.32831  -0.32418  -0.32144  -0.31756
 Alpha  occ. eigenvalues --   -0.31378  -0.29473  -0.27215
 Alpha virt. eigenvalues --    0.01037   0.07897   0.08744   0.09562   0.10965
 Alpha virt. eigenvalues --    0.11472   0.11736   0.13709   0.14238   0.14970
 Alpha virt. eigenvalues --    0.15505   0.16834   0.17118   0.17743   0.18885
 Alpha virt. eigenvalues --    0.18999   0.19434   0.19945   0.20101   0.20696
 Alpha virt. eigenvalues --    0.21080   0.21709   0.23043   0.23334   0.24154
 Alpha virt. eigenvalues --    0.24648   0.28015   0.28116   0.29695   0.30100
 Alpha virt. eigenvalues --    0.33833   0.36446   0.48649   0.49207   0.50613
 Alpha virt. eigenvalues --    0.52440   0.52837   0.54496   0.54736   0.55243
 Alpha virt. eigenvalues --    0.55778   0.56463   0.59529   0.60197   0.61041
 Alpha virt. eigenvalues --    0.62683   0.65274   0.65850   0.66844   0.68388
 Alpha virt. eigenvalues --    0.68659   0.68968   0.71175   0.73160   0.73563
 Alpha virt. eigenvalues --    0.75195   0.77033   0.78782   0.79367   0.80245
 Alpha virt. eigenvalues --    0.82955   0.83560   0.84583   0.85831   0.86587
 Alpha virt. eigenvalues --    0.86871   0.88032   0.88155   0.90036   0.90424
 Alpha virt. eigenvalues --    0.91562   0.91738   0.92299   0.93041   0.94016
 Alpha virt. eigenvalues --    0.94410   0.94625   0.94741   0.95617   0.96453
 Alpha virt. eigenvalues --    0.97227   0.98271   0.98743   1.01223   1.03229
 Alpha virt. eigenvalues --    1.06364   1.07550   1.09923   1.12277   1.17168
 Alpha virt. eigenvalues --    1.24759   1.27588   1.29076   1.30221   1.34415
 Alpha virt. eigenvalues --    1.38278   1.40573   1.42395   1.44230   1.48390
 Alpha virt. eigenvalues --    1.51314   1.53306   1.54914   1.55879   1.57041
 Alpha virt. eigenvalues --    1.58495   1.61508   1.63685   1.65151   1.66458
 Alpha virt. eigenvalues --    1.68908   1.70438   1.71101   1.72630   1.72756
 Alpha virt. eigenvalues --    1.74435   1.77663   1.81039   1.82809   1.84867
 Alpha virt. eigenvalues --    1.86369   1.86998   1.87464   1.87920   1.88323
 Alpha virt. eigenvalues --    1.89508   1.91206   1.92146   1.93391   1.96016
 Alpha virt. eigenvalues --    1.97292   1.99300   2.05427   2.05585   2.07519
 Alpha virt. eigenvalues --    2.08856   2.10447   2.10822   2.11196   2.13952
 Alpha virt. eigenvalues --    2.14279   2.15624   2.17089   2.19817   2.20933
 Alpha virt. eigenvalues --    2.21913   2.23273   2.24946   2.26095   2.27106
 Alpha virt. eigenvalues --    2.28542   2.29692   2.30599   2.31173   2.32795
 Alpha virt. eigenvalues --    2.33066   2.36980   2.38890   2.39663   2.42469
 Alpha virt. eigenvalues --    2.45006   2.45775   2.46379   2.47599   2.50312
 Alpha virt. eigenvalues --    2.51325   2.52475   2.54056   2.55932   2.58270
 Alpha virt. eigenvalues --    2.61227   2.63236   2.64993   2.65545   2.67843
 Alpha virt. eigenvalues --    2.68699   2.71386   2.72272   2.74179   2.74611
 Alpha virt. eigenvalues --    2.76225   2.76581   2.81542   2.82101   2.83261
 Alpha virt. eigenvalues --    2.84976   2.86350   2.88410   2.88871   2.89955
 Alpha virt. eigenvalues --    2.90866   2.91133   2.91672   2.92016   2.93461
 Alpha virt. eigenvalues --    2.94542   2.95571   2.96768   3.01791   3.16892
 Alpha virt. eigenvalues --    3.19806   3.24561   3.26653   3.29884   3.31259
 Alpha virt. eigenvalues --    3.31893   3.33115   3.34976   3.36920   3.38931
 Alpha virt. eigenvalues --    3.42011   3.43262   3.45674   3.46990   3.49234
 Alpha virt. eigenvalues --    3.52834   3.54976   3.58078   3.59849   3.60751
 Alpha virt. eigenvalues --    3.93589   4.13790   4.23428   4.27147   4.35122
 Alpha virt. eigenvalues --    4.40946   4.47472   4.55615   4.59561   4.67033
 Alpha virt. eigenvalues --    4.73494   4.77728
          Condensed to atoms (all electrons):
               1          2          3          4          5          6
     1  O    8.115911   0.258982  -0.096868   0.002560  -0.000027  -0.000000
     2  C    0.258982   4.386225   0.318801  -0.028094   0.003865  -0.000052
     3  C   -0.096868   0.318801   5.144394   0.346327  -0.038747  -0.002644
     4  C    0.002560  -0.028094   0.346327   4.889636   0.362156  -0.036757
     5  C   -0.000027   0.003865  -0.038747   0.362156   4.945777   0.352966
     6  C   -0.000000  -0.000052  -0.002644  -0.036757   0.352966   4.922687
     7  C    0.000001   0.000067  -0.000846  -0.001410  -0.034154   0.373840
     8  C   -0.000000  -0.000001  -0.000063  -0.000021   0.003555  -0.035575
     9  C   -0.000000  -0.000000   0.000000   0.000001  -0.000120   0.003419
    10  C    0.000000  -0.000000  -0.000000   0.000000   0.000001  -0.000121
    11  C    0.000000   0.000000   0.000000  -0.000000  -0.000000   0.000001
    12  O   -0.080238   0.570981  -0.087280   0.005309   0.000377  -0.000004
    13  H    0.267872  -0.009425   0.011367  -0.000316   0.000002   0.000000
    14  H    0.002663  -0.025623   0.369812  -0.032346  -0.002685   0.003438
    15  H    0.002253  -0.026202   0.369681  -0.037117  -0.002522  -0.001138
    16  H    0.000012  -0.002758  -0.037504   0.386540  -0.036991  -0.007181
    17  H    0.000123  -0.003989  -0.040771   0.386110  -0.034729   0.004619
    18  H    0.000000  -0.000096   0.004767  -0.032977   0.374809  -0.032126
    19  H   -0.000001  -0.000036  -0.007356  -0.036196   0.381526  -0.043701
    20  H    0.000000  -0.000073  -0.000836  -0.007017  -0.043404   0.384321
    21  H   -0.000000   0.000002   0.000042   0.003830  -0.032082   0.379500
    22  H    0.000000  -0.000005  -0.000019  -0.000042  -0.005144  -0.037015
    23  H   -0.000012   0.000133   0.001248  -0.000047  -0.001380  -0.043233
    24  H   -0.000000   0.000000  -0.000000  -0.000002   0.000036  -0.003465
    25  H    0.000000  -0.000000   0.000008  -0.000003   0.000036  -0.003774
    26  H   -0.000000   0.000000   0.000000   0.000000   0.000001   0.000061
    27  H    0.000000  -0.000000  -0.000005  -0.000000   0.000002   0.000061
    28  H   -0.000000   0.000000   0.000000  -0.000000   0.000000   0.000002
    29  H    0.000000  -0.000000  -0.000000  -0.000000   0.000000   0.000002
    30  H   -0.000000   0.000000  -0.000000  -0.000000   0.000000   0.000000
    31  H   -0.000000  -0.000000   0.000000  -0.000000   0.000000   0.000000
    32  H    0.000000  -0.000000  -0.000000   0.000000   0.000000  -0.000000
               7          8          9         10         11         12
     1  O    0.000001  -0.000000  -0.000000   0.000000   0.000000  -0.080238
     2  C    0.000067  -0.000001  -0.000000  -0.000000   0.000000   0.570981
     3  C   -0.000846  -0.000063   0.000000  -0.000000   0.000000  -0.087280
     4  C   -0.001410  -0.000021   0.000001   0.000000  -0.000000   0.005309
     5  C   -0.034154   0.003555  -0.000120   0.000001  -0.000000   0.000377
     6  C    0.373840  -0.035575   0.003419  -0.000121   0.000001  -0.000004
     7  C    4.913148   0.367051  -0.033943   0.003448  -0.000129  -0.000001
     8  C    0.367051   4.904840   0.370607  -0.034527   0.003640   0.000000
     9  C   -0.033943   0.370607   4.895110   0.378361  -0.041500   0.000000
    10  C    0.003448  -0.034527   0.378361   4.872583   0.366030  -0.000000
    11  C   -0.000129   0.003640  -0.041500   0.366030   4.921274  -0.000000
    12  O   -0.000001   0.000000   0.000000  -0.000000  -0.000000   8.040727
    13  H    0.000000  -0.000000  -0.000000   0.000000   0.000000   0.011456
    14  H   -0.002218   0.000129  -0.000010   0.000000  -0.000000   0.000977
    15  H   -0.000373   0.000010   0.000000   0.000000  -0.000000   0.001284
    16  H   -0.000107   0.000008  -0.000000   0.000000  -0.000000   0.002016
    17  H   -0.000102   0.000002  -0.000000   0.000000  -0.000000   0.004711
    18  H    0.003980  -0.000158   0.000002  -0.000000   0.000000  -0.000000
    19  H   -0.008319   0.000213  -0.000002   0.000000  -0.000000   0.000001
    20  H   -0.040464  -0.003347   0.000060   0.000001   0.000000   0.000000
    21  H   -0.038660  -0.004804   0.000044   0.000001   0.000000   0.000000
    22  H    0.381510  -0.037791  -0.003874   0.000040   0.000002   0.000000
    23  H    0.383682  -0.038272  -0.003726   0.000056   0.000001   0.000001
    24  H   -0.039384   0.383267  -0.038781  -0.003792   0.000046  -0.000000
    25  H   -0.039389   0.382864  -0.038951  -0.003910   0.000048   0.000000
    26  H   -0.003786  -0.038859   0.382944  -0.039805  -0.003219  -0.000000
    27  H   -0.004201  -0.038524   0.382790  -0.039682  -0.003229  -0.000000
    28  H    0.000052  -0.003943  -0.039115   0.386458  -0.038506  -0.000000
    29  H    0.000047  -0.003921  -0.039094   0.386514  -0.038498   0.000000
    30  H    0.000001   0.000055  -0.004956  -0.034529   0.387356  -0.000000
    31  H    0.000001   0.000054  -0.004950  -0.034527   0.387392   0.000000
    32  H    0.000001  -0.000147   0.004084  -0.026831   0.378466  -0.000000
              13         14         15         16         17         18
     1  O    0.267872   0.002663   0.002253   0.000012   0.000123   0.000000
     2  C   -0.009425  -0.025623  -0.026202  -0.002758  -0.003989  -0.000096
     3  C    0.011367   0.369812   0.369681  -0.037504  -0.040771   0.004767
     4  C   -0.000316  -0.032346  -0.037117   0.386540   0.386110  -0.032977
     5  C    0.000002  -0.002685  -0.002522  -0.036991  -0.034729   0.374809
     6  C    0.000000   0.003438  -0.001138  -0.007181   0.004619  -0.032126
     7  C    0.000000  -0.002218  -0.000373  -0.000107  -0.000102   0.003980
     8  C   -0.000000   0.000129   0.000010   0.000008   0.000002  -0.000158
     9  C   -0.000000  -0.000010   0.000000  -0.000000  -0.000000   0.000002
    10  C    0.000000   0.000000   0.000000   0.000000   0.000000  -0.000000
    11  C    0.000000  -0.000000  -0.000000  -0.000000  -0.000000   0.000000
    12  O    0.011456   0.000977   0.001284   0.002016   0.004711  -0.000000
    13  H    0.401024  -0.000366  -0.000365   0.000000  -0.000013  -0.000000
    14  H   -0.000366   0.575285  -0.030200  -0.006087   0.005190  -0.000058
    15  H   -0.000365  -0.030200   0.582131   0.005260  -0.003047  -0.000013
    16  H    0.000000  -0.006087   0.005260   0.618288  -0.034764  -0.004291
    17  H   -0.000013   0.005190  -0.003047  -0.034764   0.613117  -0.004138
    18  H   -0.000000  -0.000058  -0.000013  -0.004291  -0.004138   0.643869
    19  H    0.000000  -0.000115   0.004990   0.005709  -0.003549  -0.038977
    20  H   -0.000000   0.001084   0.000214   0.004899   0.000171   0.001146
    21  H    0.000000  -0.000075  -0.000007   0.000118  -0.000215  -0.009524
    22  H   -0.000000   0.000038   0.000162   0.000008   0.000012   0.000124
    23  H    0.000000   0.001872   0.001659   0.000110  -0.000055  -0.000043
    24  H    0.000000  -0.000003  -0.000000   0.000000  -0.000000  -0.000002
    25  H   -0.000000   0.000073   0.000001  -0.000003   0.000000   0.000002
    26  H    0.000000   0.000000   0.000000  -0.000000  -0.000000   0.000000
    27  H    0.000000  -0.000002  -0.000001   0.000000   0.000000   0.000000
    28  H    0.000000  -0.000000   0.000000  -0.000000  -0.000000   0.000000
    29  H   -0.000000   0.000000   0.000000  -0.000000   0.000000   0.000000
    30  H    0.000000  -0.000000  -0.000000   0.000000  -0.000000   0.000000
    31  H   -0.000000   0.000000   0.000000  -0.000000   0.000000   0.000000
    32  H    0.000000   0.000000   0.000000  -0.000000   0.000000  -0.000000
              19         20         21         22         23         24
     1  O   -0.000001   0.000000  -0.000000   0.000000  -0.000012  -0.000000
     2  C   -0.000036  -0.000073   0.000002  -0.000005   0.000133   0.000000
     3  C   -0.007356  -0.000836   0.000042  -0.000019   0.001248  -0.000000
     4  C   -0.036196  -0.007017   0.003830  -0.000042  -0.000047  -0.000002
     5  C    0.381526  -0.043404  -0.032082  -0.005144  -0.001380   0.000036
     6  C   -0.043701   0.384321   0.379500  -0.037015  -0.043233  -0.003465
     7  C   -0.008319  -0.040464  -0.038660   0.381510   0.383682  -0.039384
     8  C    0.000213  -0.003347  -0.004804  -0.037791  -0.038272   0.383267
     9  C   -0.000002   0.000060   0.000044  -0.003874  -0.003726  -0.038781
    10  C    0.000000   0.000001   0.000001   0.000040   0.000056  -0.003792
    11  C   -0.000000   0.000000   0.000000   0.000002   0.000001   0.000046
    12  O    0.000001   0.000000   0.000000   0.000000   0.000001  -0.000000
    13  H    0.000000  -0.000000   0.000000  -0.000000   0.000000   0.000000
    14  H   -0.000115   0.001084  -0.000075   0.000038   0.001872  -0.000003
    15  H    0.004990   0.000214  -0.000007   0.000162   0.001659  -0.000000
    16  H    0.005709   0.004899   0.000118   0.000008   0.000110   0.000000
    17  H   -0.003549   0.000171  -0.000215   0.000012  -0.000055  -0.000000
    18  H   -0.038977   0.001146  -0.009524   0.000124  -0.000043  -0.000002
    19  H    0.643079   0.005518   0.001034   0.005176   0.000321   0.000007
    20  H    0.005518   0.643303  -0.040043   0.005921  -0.005337  -0.000578
    21  H    0.001034  -0.040043   0.644656  -0.006569   0.006238   0.005297
    22  H    0.005176   0.005921  -0.006569   0.644255  -0.041996  -0.006158
    23  H    0.000321  -0.005337   0.006238  -0.041996   0.643359   0.006079
    24  H    0.000007  -0.000578   0.005297  -0.006158   0.006079   0.644992
    25  H    0.000010   0.005043  -0.000593   0.006094  -0.006030  -0.041956
    26  H   -0.000001   0.000006   0.000003   0.004982  -0.000617  -0.005966
    27  H    0.000001   0.000003   0.000006  -0.000555   0.005184   0.006090
    28  H   -0.000000  -0.000002   0.000001   0.000006   0.000002  -0.000548
    29  H    0.000000   0.000001  -0.000002   0.000004   0.000007   0.004987
    30  H   -0.000000  -0.000000   0.000000  -0.000001   0.000001   0.000001
    31  H   -0.000000   0.000000  -0.000000   0.000000  -0.000002   0.000007
    32  H    0.000000   0.000000   0.000000   0.000000   0.000000   0.000002
              25         26         27         28         29         30
     1  O    0.000000  -0.000000   0.000000  -0.000000   0.000000  -0.000000
     2  C   -0.000000   0.000000  -0.000000   0.000000  -0.000000   0.000000
     3  C    0.000008   0.000000  -0.000005   0.000000  -0.000000  -0.000000
     4  C   -0.000003   0.000000  -0.000000  -0.000000  -0.000000  -0.000000
     5  C    0.000036   0.000001   0.000002   0.000000   0.000000   0.000000
     6  C   -0.003774   0.000061   0.000061   0.000002   0.000002   0.000000
     7  C   -0.039389  -0.003786  -0.004201   0.000052   0.000047   0.000001
     8  C    0.382864  -0.038859  -0.038524  -0.003943  -0.003921   0.000055
     9  C   -0.038951   0.382944   0.382790  -0.039115  -0.039094  -0.004956
    10  C   -0.003910  -0.039805  -0.039682   0.386458   0.386514  -0.034529
    11  C    0.000048  -0.003219  -0.003229  -0.038506  -0.038498   0.387356
    12  O    0.000000  -0.000000  -0.000000  -0.000000   0.000000  -0.000000
    13  H   -0.000000   0.000000   0.000000   0.000000  -0.000000   0.000000
    14  H    0.000073   0.000000  -0.000002  -0.000000   0.000000  -0.000000
    15  H    0.000001   0.000000  -0.000001   0.000000   0.000000  -0.000000
    16  H   -0.000003  -0.000000   0.000000  -0.000000  -0.000000   0.000000
    17  H    0.000000  -0.000000   0.000000  -0.000000   0.000000  -0.000000
    18  H    0.000002   0.000000   0.000000   0.000000   0.000000   0.000000
    19  H    0.000010  -0.000001   0.000001  -0.000000   0.000000  -0.000000
    20  H    0.005043   0.000006   0.000003  -0.000002   0.000001  -0.000000
    21  H   -0.000593   0.000003   0.000006   0.000001  -0.000002   0.000000
    22  H    0.006094   0.004982  -0.000555   0.000006   0.000004  -0.000001
    23  H   -0.006030  -0.000617   0.005184   0.000002   0.000007   0.000001
    24  H   -0.041956  -0.005966   0.006090  -0.000548   0.004987   0.000001
    25  H    0.647204   0.006122  -0.005969   0.005012  -0.000552   0.000007
    26  H    0.006122   0.647245  -0.042249   0.006118  -0.006036   0.004809
    27  H   -0.005969  -0.042249   0.647046  -0.006027   0.006114  -0.000483
    28  H    0.005012   0.006118  -0.006027   0.642213  -0.041299   0.005498
    29  H   -0.000552  -0.006036   0.006114  -0.041299   0.641995  -0.005032
    30  H    0.000007   0.004809  -0.000483   0.005498  -0.005032   0.611630
    31  H    0.000001  -0.000483   0.004813  -0.005033   0.005496  -0.033803
    32  H    0.000002  -0.000021  -0.000021  -0.003104  -0.003104  -0.032545
              31         32
     1  O   -0.000000   0.000000
     2  C   -0.000000  -0.000000
     3  C    0.000000  -0.000000
     4  C   -0.000000   0.000000
     5  C    0.000000   0.000000
     6  C    0.000000  -0.000000
     7  C    0.000001   0.000001
     8  C    0.000054  -0.000147
     9  C   -0.004950   0.004084
    10  C   -0.034527  -0.026831
    11  C    0.387392   0.378466
    12  O    0.000000  -0.000000
    13  H   -0.000000   0.000000
    14  H    0.000000   0.000000
    15  H    0.000000   0.000000
    16  H   -0.000000  -0.000000
    17  H    0.000000   0.000000
    18  H    0.000000  -0.000000
    19  H   -0.000000   0.000000
    20  H    0.000000   0.000000
    21  H   -0.000000   0.000000
    22  H    0.000000   0.000000
    23  H   -0.000002   0.000000
    24  H    0.000007   0.000002
    25  H    0.000001   0.000002
    26  H   -0.000483  -0.000021
    27  H    0.004813  -0.000021
    28  H   -0.005033  -0.003104
    29  H    0.005496  -0.003104
    30  H   -0.033803  -0.032545
    31  H    0.611452  -0.032538
    32  H   -0.032538   0.616887
 Mulliken charges:
               1
     1  O   -0.473233
     2  C    0.557299
     3  C   -0.253508
     4  C   -0.170123
     5  C   -0.193125
     6  C   -0.178129
     7  C   -0.179344
     8  C   -0.176343
     9  C   -0.168399
    10  C   -0.175771
    11  C   -0.319176
    12  O   -0.470319
    13  H    0.318763
    14  H    0.139228
    15  H    0.133339
    16  H    0.106717
    17  H    0.111317
    18  H    0.093703
    19  H    0.090669
    20  H    0.089409
    21  H    0.091801
    22  H    0.090838
    23  H    0.090798
    24  H    0.089826
    25  H    0.088604
    26  H    0.088750
    27  H    0.088838
    28  H    0.092216
    29  H    0.092372
    30  H    0.101993
    31  H    0.102120
    32  H    0.098870
 Sum of Mulliken charges =  -0.00000
 Mulliken charges with hydrogens summed into heavy atoms:
               1
     1  O   -0.154470
     2  C    0.557299
     3  C    0.019059
     4  C    0.047911
     5  C   -0.008753
     6  C    0.003081
     7  C    0.002292
     8  C    0.002086
     9  C    0.009189
    10  C    0.008816
    11  C   -0.016192
    12  O   -0.470319
 Electronic spatial extent (au):  <R**2>=           4669.9139
 Charge=              0.0000 electrons
 Dipole moment (field-independent basis, Debye):
    X=              1.3914    Y=             -0.4558    Z=              0.4138  Tot=              1.5215
 Quadrupole moment (field-independent basis, Debye-Ang):
   XX=            -86.9805   YY=            -72.1517   ZZ=            -75.7867
   XY=              5.4436   XZ=             -2.7343   YZ=              0.9948
 Traceless Quadrupole moment (field-independent basis, Debye-Ang):
   XX=             -8.6742   YY=              6.1546   ZZ=              2.5196
   XY=              5.4436   XZ=             -2.7343   YZ=              0.9948
 Octapole moment (field-independent basis, Debye-Ang**2):
  XXX=             26.7478  YYY=            -24.2522  ZZZ=             -0.4456  XYY=            -37.4553
  XXY=            -29.7464  XXZ=             14.0593  XZZ=            -12.0074  YZZ=             -4.4972
  YYZ=             -3.1106  XYZ=              0.2677
 Hexadecapole moment (field-independent basis, Debye-Ang**3):
 XXXX=          -5317.8882 YYYY=           -920.1234 ZZZZ=           -189.3948 XXXY=            210.5533
 XXXZ=            -81.6062 YYYX=            136.7048 YYYZ=              6.7792 ZZZX=              6.9417
 ZZZY=              1.7556 XXYY=           -856.5962 XXZZ=           -854.9818 YYZZ=           -198.4968
 XXYZ=              7.6617 YYXZ=              8.1903 ZZXY=             16.6721
 N-N= 6.916707907346D+02 E-N=-2.646584380234D+03  KE= 5.384972182666D+02
 Calling FoFJK, ICntrl=      2127 FMM=F ISym2X=0 I1Cent= 0 IOpClX= 0 NMat=1 NMatS=1 NMatT=0.
 ***** Axes restored to original set *****
 -------------------------------------------------------------------
 Center     Atomic                   Forces (Hartrees/Bohr)
 Number     Number              X              Y              Z
 -------------------------------------------------------------------
      1        8          -0.008877362   -0.004341567   -0.004055290
      2        6          -0.012438584   -0.010911962    0.018561646
      3        6          -0.000624763   -0.001867176    0.013519883
      4        6          -0.000264420    0.005537252   -0.003773246
      5        6           0.007428575   -0.006025820    0.000733551
      6        6          -0.003865594    0.009787073   -0.003656256
      7        6           0.001047400   -0.011373440    0.002039342
      8        6           0.000123105    0.011162080   -0.002184132
      9        6          -0.000197453   -0.011523453    0.002750180
     10        6           0.000133611    0.009264068   -0.003226121
     11        6          -0.000163922   -0.003804056    0.003466268
     12        8          -0.001189226    0.002566843   -0.018918640
     13        1           0.013851363    0.006974963    0.005056310
     14        1           0.000783716   -0.000326162   -0.005351976
     15        1          -0.001090279    0.002133664   -0.004851027
     16        1           0.001981320   -0.001871253   -0.000355431
     17        1           0.002351054    0.002561206    0.000403493
     18        1          -0.000138440   -0.000807763    0.003779335
     19        1          -0.000612291    0.003619285   -0.003532039
     20        1           0.004483830   -0.001516200    0.000302289
     21        1          -0.003197868   -0.002102547   -0.000886391
     22        1          -0.003796004    0.002128571    0.000078239
     23        1           0.004097364    0.002345693   -0.000411867
     24        1          -0.003688529   -0.002349615    0.000508263
     25        1           0.003715622   -0.002402684    0.000579221
     26        1          -0.003692594    0.002328579   -0.000705294
     27        1           0.003805939    0.002317865   -0.000504567
     28        1           0.003343260   -0.001928498    0.001552754
     29        1          -0.003434037   -0.001872033    0.001364593
     30        1          -0.002358496    0.002093731   -0.000060589
     31        1           0.002425499    0.002094770    0.000070332
     32        1           0.000058205   -0.001891416   -0.002292833
 -------------------------------------------------------------------
 Cartesian Forces:  Max     0.018918640 RMS     0.005284118

 GradGradGradGradGradGradGradGradGradGradGradGradGradGradGradGradGradGrad
 Berny optimization.
 FormGI is forming the generalized inverse of G from B-inverse, IUseBI=4.
 Internal  Forces:  Max     0.018717205 RMS     0.002941479
 Search for a local minimum.
 Step number   1 out of a maximum of  179
 All quantities printed in internal units (Hartrees-Bohrs-Radians)
 Mixed Optimization -- RFO/linear search
 Second derivative matrix not updated -- first step.
 ITU=  0
     Eigenvalues ---    0.00230   0.00230   0.00230   0.00230   0.00252
     Eigenvalues ---    0.00253   0.00260   0.00302   0.00402   0.00874
     Eigenvalues ---    0.02357   0.03085   0.03196   0.03212   0.03398
     Eigenvalues ---    0.03415   0.03418   0.03443   0.03826   0.04666
     Eigenvalues ---    0.04668   0.04688   0.04722   0.04739   0.04742
     Eigenvalues ---    0.04759   0.05190   0.05409   0.05464   0.08310
     Eigenvalues ---    0.08316   0.08318   0.08320   0.08593   0.08654
     Eigenvalues ---    0.08804   0.09636   0.12200   0.12203   0.12204
     Eigenvalues ---    0.12204   0.12416   0.12449   0.12573   0.12970
     Eigenvalues ---    0.16000   0.16000   0.16000   0.16000   0.21877
     Eigenvalues ---    0.21890   0.21893   0.21894   0.21898   0.21908
     Eigenvalues ---    0.21909   0.22020   0.25000   0.25000   0.27830
     Eigenvalues ---    0.28090   0.28195   0.28365   0.28620   0.28624
     Eigenvalues ---    0.28676   0.28962   0.29656   0.34483   0.34547
     Eigenvalues ---    0.34623   0.34624   0.34625   0.34631   0.34631
     Eigenvalues ---    0.34632   0.34635   0.34636   0.34637   0.34638
     Eigenvalues ---    0.34642   0.34720   0.34730   0.34751   0.34856
     Eigenvalues ---    0.34905   0.34933   0.55087   0.55976   0.93973
 RFO step:  Lambda=-4.54630959D-03 EMin= 2.30000000D-03
 Linear search not attempted -- first point.
 Iteration  1 RMS(Cart)=  0.05128701 RMS(Int)=  0.00057472
 Iteration  2 RMS(Cart)=  0.00089282 RMS(Int)=  0.00006400
 Iteration  3 RMS(Cart)=  0.00000076 RMS(Int)=  0.00006400
 Variable       Old X    -DE/DX   Delta X   Delta X   Delta X     New X
                                 (Linear)    (Quad)   (Total)
    R1        2.55055   0.00332   0.00000   0.00597   0.00597   2.55652
    R2        1.80975   0.01588   0.00000   0.02814   0.02814   1.83789
    R3        2.88654  -0.00916   0.00000  -0.03042  -0.03042   2.85612
    R4        2.31154  -0.01872   0.00000  -0.01982  -0.01982   2.29172
    R5        2.92511  -0.01099   0.00000  -0.03886  -0.03886   2.88625
    R6        2.05783   0.00407   0.00000   0.01150   0.01150   2.06934
    R7        2.05909   0.00445   0.00000   0.01259   0.01259   2.07169
    R8        2.91714  -0.00472   0.00000  -0.01648  -0.01648   2.90066
    R9        2.06417   0.00224   0.00000   0.00639   0.00639   2.07055
   R10        2.06522   0.00155   0.00000   0.00443   0.00443   2.06965
   R11        2.91943  -0.00106   0.00000  -0.00373  -0.00373   2.91570
   R12        2.06288   0.00324   0.00000   0.00923   0.00923   2.07210
   R13        2.06267   0.00435   0.00000   0.01240   0.01240   2.07506
   R14        2.91348  -0.00402   0.00000  -0.01395  -0.01395   2.89953
   R15        2.06261   0.00441   0.00000   0.01258   0.01258   2.07518
   R16        2.06291   0.00374   0.00000   0.01066   0.01066   2.07358
   R17        2.90803  -0.00342   0.00000  -0.01175  -0.01175   2.89628
   R18        2.06271   0.00426   0.00000   0.01213   0.01213   2.07484
   R19        2.05829   0.00471   0.00000   0.01331   0.01331   2.07161
   R20        2.90793  -0.00332   0.00000  -0.01142  -0.01142   2.89651
   R21        2.06279   0.00440   0.00000   0.01253   0.01253   2.07532
   R22        2.06276   0.00445   0.00000   0.01269   0.01269   2.07545
   R23        2.90684  -0.00344   0.00000  -0.01182  -0.01182   2.89502
   R24        2.06290   0.00441   0.00000   0.01257   0.01257   2.07547
   R25        2.06279   0.00447   0.00000   0.01274   0.01274   2.07553
   R26        2.90083  -0.00166   0.00000  -0.00563  -0.00563   2.89520
   R27        2.06268   0.00402   0.00000   0.01145   0.01145   2.07412
   R28        2.06271   0.00400   0.00000   0.01139   0.01139   2.07410
   R29        2.06131   0.00309   0.00000   0.00878   0.00878   2.07009
   R30        2.06115   0.00314   0.00000   0.00893   0.00893   2.07008
   R31        2.06081   0.00294   0.00000   0.00836   0.00836   2.06918
    A1        1.81760   0.00677   0.00000   0.04112   0.04112   1.85872
    A2        1.95036   0.00037   0.00000   0.00145   0.00145   1.95181
    A3        2.14915  -0.00474   0.00000  -0.01863  -0.01863   2.13052
    A4        2.18367   0.00437   0.00000   0.01719   0.01718   2.20085
    A5        1.99758  -0.00823   0.00000  -0.03386  -0.03368   1.96390
    A6        1.86917   0.00196   0.00000   0.00449   0.00467   1.87384
    A7        1.86912   0.00265   0.00000   0.01211   0.01231   1.88142
    A8        1.92225   0.00367   0.00000   0.02152   0.02147   1.94371
    A9        1.91958   0.00316   0.00000   0.01978   0.01980   1.93938
   A10        1.88182  -0.00313   0.00000  -0.02503  -0.02519   1.85663
   A11        2.00220  -0.00232   0.00000  -0.01293  -0.01296   1.98924
   A12        1.91334   0.00009   0.00000  -0.01195  -0.01205   1.90129
   A13        1.91088  -0.00147   0.00000  -0.01367  -0.01354   1.89733
   A14        1.90886   0.00065   0.00000   0.00042   0.00015   1.90901
   A15        1.88136   0.00318   0.00000   0.03073   0.03067   1.91203
   A16        1.84001   0.00011   0.00000   0.00995   0.00971   1.84973
   A17        2.01578   0.00056   0.00000  -0.00149  -0.00168   2.01410
   A18        1.87297  -0.00131   0.00000  -0.00301  -0.00305   1.86992
   A19        1.92228  -0.00023   0.00000  -0.01253  -0.01278   1.90950
   A20        1.88579   0.00145   0.00000   0.02127   0.02132   1.90711
   A21        1.92634  -0.00137   0.00000  -0.01851  -0.01868   1.90766
   A22        1.83020   0.00101   0.00000   0.01780   0.01792   1.84813
   A23        1.99533   0.00208   0.00000   0.00778   0.00767   2.00301
   A24        1.91964  -0.00111   0.00000  -0.01311  -0.01313   1.90651
   A25        1.89233   0.00043   0.00000   0.01450   0.01445   1.90679
   A26        1.92593  -0.00124   0.00000  -0.01678  -0.01683   1.90910
   A27        1.88498  -0.00105   0.00000   0.00024   0.00009   1.88507
   A28        1.83830   0.00083   0.00000   0.00851   0.00858   1.84688
   A29        1.96659   0.00158   0.00000   0.00647   0.00647   1.97306
   A30        1.90636  -0.00106   0.00000  -0.00843  -0.00843   1.89793
   A31        1.92827  -0.00043   0.00000  -0.00167  -0.00168   1.92660
   A32        1.90748  -0.00013   0.00000   0.00033   0.00034   1.90782
   A33        1.90410  -0.00059   0.00000  -0.00141  -0.00141   1.90269
   A34        1.84714   0.00057   0.00000   0.00461   0.00461   1.85174
   A35        1.96825   0.00181   0.00000   0.00830   0.00831   1.97656
   A36        1.91041  -0.00065   0.00000  -0.00309  -0.00309   1.90732
   A37        1.90931  -0.00055   0.00000  -0.00232  -0.00232   1.90700
   A38        1.90965  -0.00052   0.00000  -0.00192  -0.00192   1.90774
   A39        1.90953  -0.00061   0.00000  -0.00266  -0.00266   1.90687
   A40        1.85313   0.00043   0.00000   0.00125   0.00125   1.85437
   A41        1.96811   0.00210   0.00000   0.00960   0.00960   1.97771
   A42        1.91011  -0.00062   0.00000  -0.00224  -0.00224   1.90787
   A43        1.91015  -0.00061   0.00000  -0.00224  -0.00223   1.90792
   A44        1.90953  -0.00073   0.00000  -0.00357  -0.00357   1.90596
   A45        1.90950  -0.00074   0.00000  -0.00366  -0.00366   1.90584
   A46        1.85288   0.00050   0.00000   0.00162   0.00161   1.85449
   A47        1.96687   0.00129   0.00000   0.00574   0.00575   1.97262
   A48        1.91454  -0.00104   0.00000  -0.00905  -0.00908   1.90546
   A49        1.91463  -0.00105   0.00000  -0.00910  -0.00913   1.90550
   A50        1.90591   0.00019   0.00000   0.00511   0.00513   1.91104
   A51        1.90587   0.00020   0.00000   0.00522   0.00524   1.91111
   A52        1.85248   0.00037   0.00000   0.00196   0.00188   1.85436
   A53        1.94354  -0.00066   0.00000  -0.00526  -0.00528   1.93826
   A54        1.94360  -0.00067   0.00000  -0.00529  -0.00531   1.93829
   A55        1.93725   0.00096   0.00000   0.00830   0.00831   1.94556
   A56        1.88182   0.00018   0.00000  -0.00345  -0.00350   1.87832
   A57        1.87728   0.00011   0.00000   0.00297   0.00298   1.88026
   A58        1.87734   0.00011   0.00000   0.00295   0.00295   1.88030
    D1       -3.13954  -0.00005   0.00000  -0.00373  -0.00366   3.13999
    D2       -0.00079   0.00006   0.00000   0.00394   0.00387   0.00309
    D3       -3.12047   0.00003   0.00000  -0.00520  -0.00514  -3.12561
    D4        1.02680  -0.00072   0.00000  -0.01390  -0.01392   1.01288
    D5       -0.98799   0.00064   0.00000   0.00690   0.00692  -0.98108
    D6        0.02403  -0.00007   0.00000  -0.01299  -0.01297   0.01106
    D7       -2.11189  -0.00082   0.00000  -0.02168  -0.02174  -2.13363
    D8        2.15650   0.00054   0.00000  -0.00089  -0.00091   2.15559
    D9        2.96358   0.00109   0.00000   0.04236   0.04234   3.00592
   D10       -1.16430   0.00032   0.00000   0.02404   0.02409  -1.14021
   D11        0.84625  -0.00032   0.00000   0.02165   0.02166   0.86790
   D12       -1.21282   0.00064   0.00000   0.04069   0.04055  -1.17227
   D13        0.94249  -0.00013   0.00000   0.02237   0.02230   0.96478
   D14        2.95304  -0.00077   0.00000   0.01997   0.01986   2.97289
   D15        0.85885   0.00100   0.00000   0.03535   0.03541   0.89425
   D16        3.01415   0.00022   0.00000   0.01703   0.01716   3.03131
   D17       -1.25849  -0.00042   0.00000   0.01463   0.01472  -1.24377
   D18        1.10760  -0.00095   0.00000  -0.02720  -0.02712   1.08048
   D19       -3.07172   0.00030   0.00000  -0.00313  -0.00310  -3.07482
   D20       -1.08888   0.00067   0.00000   0.00994   0.00995  -1.07893
   D21       -1.05010   0.00011   0.00000  -0.00234  -0.00224  -1.05234
   D22        1.05376   0.00136   0.00000   0.02173   0.02178   1.07555
   D23        3.03661   0.00174   0.00000   0.03479   0.03482   3.07143
   D24       -3.04218  -0.00203   0.00000  -0.03052  -0.03058  -3.07276
   D25       -0.93832  -0.00078   0.00000  -0.00645  -0.00656  -0.94488
   D26        1.04453  -0.00041   0.00000   0.00661   0.00648   1.05101
   D27       -1.61947   0.00087   0.00000   0.05474   0.05474  -1.56473
   D28        0.55840  -0.00010   0.00000   0.02773   0.02772   0.58612
   D29        2.56002   0.00054   0.00000   0.03889   0.03880   2.59882
   D30        2.56684   0.00112   0.00000   0.04383   0.04381   2.61066
   D31       -1.53848   0.00015   0.00000   0.01682   0.01680  -1.52168
   D32        0.46314   0.00078   0.00000   0.02798   0.02788   0.49102
   D33        0.57493  -0.00016   0.00000   0.02061   0.02072   0.59565
   D34        2.75280  -0.00113   0.00000  -0.00640  -0.00630   2.74650
   D35       -1.52877  -0.00050   0.00000   0.00476   0.00478  -1.52398
   D36        3.14075  -0.00069   0.00000  -0.01302  -0.01300   3.12774
   D37       -1.01903  -0.00056   0.00000  -0.01424  -0.01424  -1.03327
   D38        1.00594  -0.00073   0.00000  -0.01455  -0.01453   0.99141
   D39        0.96622   0.00020   0.00000   0.01207   0.01206   0.97828
   D40        3.08962   0.00033   0.00000   0.01085   0.01083   3.10045
   D41       -1.16859   0.00016   0.00000   0.01054   0.01053  -1.15806
   D42       -1.03466   0.00045   0.00000   0.01066   0.01066  -1.02399
   D43        1.08875   0.00058   0.00000   0.00944   0.00943   1.09818
   D44        3.11372   0.00041   0.00000   0.00913   0.00913   3.12285
   D45        3.13707  -0.00017   0.00000  -0.00578  -0.00578   3.13129
   D46        1.00689  -0.00028   0.00000  -0.00676  -0.00675   1.00014
   D47       -1.01688  -0.00011   0.00000  -0.00521  -0.00521  -1.02209
   D48        1.01430   0.00022   0.00000   0.00040   0.00040   1.01469
   D49       -1.11589   0.00011   0.00000  -0.00057  -0.00057  -1.11646
   D50       -3.13965   0.00027   0.00000   0.00097   0.00097  -3.13869
   D51       -0.99776  -0.00007   0.00000  -0.00451  -0.00451  -1.00227
   D52       -3.12794  -0.00018   0.00000  -0.00548  -0.00548  -3.13342
   D53        1.13148  -0.00001   0.00000  -0.00394  -0.00394   1.12754
   D54        3.14130   0.00002   0.00000   0.00012   0.00012   3.14142
   D55       -1.01218   0.00007   0.00000   0.00047   0.00047  -1.01171
   D56        1.01159  -0.00003   0.00000  -0.00011  -0.00011   1.01149
   D57       -1.01127   0.00005   0.00000   0.00043   0.00043  -1.01084
   D58        1.11843   0.00010   0.00000   0.00078   0.00078   1.11921
   D59       -3.14098   0.00001   0.00000   0.00020   0.00020  -3.14078
   D60        1.01219  -0.00007   0.00000  -0.00064  -0.00064   1.01155
   D61       -3.14129  -0.00002   0.00000  -0.00029  -0.00029  -3.14158
   D62       -1.11752  -0.00011   0.00000  -0.00087  -0.00087  -1.11839
   D63       -3.14151   0.00000   0.00000   0.00017   0.00017  -3.14134
   D64       -1.01410   0.00038   0.00000   0.00416   0.00413  -1.00997
   D65        1.01426  -0.00038   0.00000  -0.00392  -0.00389   1.01036
   D66        1.01164  -0.00011   0.00000  -0.00092  -0.00092   1.01072
   D67        3.13905   0.00027   0.00000   0.00306   0.00304  -3.14110
   D68       -1.11578  -0.00049   0.00000  -0.00501  -0.00498  -1.12076
   D69       -1.01144   0.00012   0.00000   0.00120   0.00120  -1.01024
   D70        1.11597   0.00049   0.00000   0.00519   0.00516   1.12112
   D71       -3.13885  -0.00027   0.00000  -0.00289  -0.00287   3.14146
   D72       -1.05053   0.00034   0.00000   0.00570   0.00569  -1.04485
   D73        1.05052  -0.00034   0.00000  -0.00588  -0.00587   1.04465
   D74       -3.14154  -0.00000   0.00000  -0.00012  -0.00012   3.14153
   D75        3.10038   0.00067   0.00000   0.00974   0.00973   3.11010
   D76       -1.08176  -0.00001   0.00000  -0.00185  -0.00183  -1.08359
   D77        1.00938   0.00033   0.00000   0.00392   0.00392   1.01329
   D78        1.08183   0.00001   0.00000   0.00168   0.00166   1.08349
   D79       -3.10031  -0.00067   0.00000  -0.00991  -0.00989  -3.11020
   D80       -1.00917  -0.00033   0.00000  -0.00414  -0.00414  -1.01332
         Item               Value     Threshold  Converged?
 Maximum Force            0.018717     0.000450     NO 
 RMS     Force            0.002941     0.000300     NO 
 Maximum Displacement     0.218465     0.001800     NO 
 RMS     Displacement     0.051339     0.001200     NO 
 Predicted change in Energy=-2.360166D-03
 GradGradGradGradGradGradGradGradGradGradGradGradGradGradGradGradGradGrad

                          Input orientation:                          
 ---------------------------------------------------------------------
 Center     Atomic      Atomic             Coordinates (Angstroms)
 Number     Number       Type             X           Y           Z
 ---------------------------------------------------------------------
      1          8           0        5.975276    0.030268   -1.059872
      2          6           0        5.200956   -0.553370   -0.116472
      3          6           0        3.930023   -1.121358   -0.705055
      4          6           0        3.033007   -1.764789    0.350461
      5          6           0        1.653069   -2.183824   -0.175176
      6          6           0        1.665588   -3.248255   -1.292062
      7          6           0        1.738832   -2.683884   -2.716981
      8          6           0        1.768531   -3.774397   -3.793504
      9          6           0        1.827206   -3.215400   -5.219498
     10          6           0        1.857191   -4.304195   -6.296806
     11          6           0        1.916159   -3.738201   -7.719276
     12          8           0        5.525473   -0.588514    1.051499
     13          1           0        6.763585    0.367081   -0.600507
     14          1           0        4.220785   -1.843317   -1.475354
     15          1           0        3.408712   -0.308584   -1.224175
     16          1           0        3.544691   -2.639843    0.766388
     17          1           0        2.910713   -1.063228    1.182537
     18          1           0        1.083089   -2.564210    0.680840
     19          1           0        1.111274   -1.295618   -0.526346
     20          1           0        2.506958   -3.934671   -1.128230
     21          1           0        0.759433   -3.862452   -1.216649
     22          1           0        0.870631   -2.032756   -2.883622
     23          1           0        2.623249   -2.046103   -2.830110
     24          1           0        0.879768   -4.411048   -3.689387
     25          1           0        2.635541   -4.427005   -3.624339
     26          1           0        0.960542   -2.562581   -5.389684
     27          1           0        2.716464   -2.579315   -5.324060
     28          1           0        2.723143   -4.956598   -6.125995
     29          1           0        0.968504   -4.939715   -6.191943
     30          1           0        1.045303   -3.107368   -7.928226
     31          1           0        2.812151   -3.124292   -7.861750
     32          1           0        1.936651   -4.536958   -8.467947
 ---------------------------------------------------------------------
                    Distance matrix (angstroms):
                    1          2          3          4          5
     1  O    0.000000
     2  C    1.352852   0.000000
     3  C    2.373857   1.511393   0.000000
     4  C    3.724005   2.526967   1.527336   0.000000
     5  C    4.936230   3.905039   2.567903   1.534964   0.000000
     6  C    5.419966   4.598178   3.161634   2.601613   1.542920
     7  C    5.297178   4.825768   3.360156   3.453814   2.591947
     8  C    6.296422   5.973032   4.609683   4.775969   3.954182
     9  C    6.711433   6.671541   5.402504   5.880704   5.151666
    10  C    7.948061   7.965298   6.759790   7.212301   6.481666
[...]
 Alpha virt. eigenvalues --    4.08967   4.10945   4.12210   4.16350   4.20216
 Alpha virt. eigenvalues --    4.22748   4.24713   4.30671   4.31448   4.32558
 Alpha virt. eigenvalues --    4.36773   4.39002   4.41140   4.45789   4.48595
 Alpha virt. eigenvalues --    4.48986   4.50785   4.51992   4.54214   4.55243
 Alpha virt. eigenvalues --    4.57358   4.57874   4.58847   4.59903   4.60535
 Alpha virt. eigenvalues --    4.63049   4.66229   4.66485   4.69231   4.70819
 Alpha virt. eigenvalues --    4.74698   4.77118   4.87686   4.89699   4.95970
 Alpha virt. eigenvalues --    5.00022   5.14345   5.16297   5.16988   5.21652
 Alpha virt. eigenvalues --    5.22279   5.38583   5.41511   5.50205   5.59846
 Alpha virt. eigenvalues --    5.75121   5.84480   5.86322   6.15574   6.19182
 Alpha virt. eigenvalues --    6.31940   6.33900   6.43913   6.48558   6.64794
 Alpha virt. eigenvalues --    6.68470   6.73855   6.80925   6.88857   7.07311
 Alpha virt. eigenvalues --    7.09817   7.27184  22.39634  22.44795  22.51922
 Alpha virt. eigenvalues --   22.56876  22.58396  22.59432  22.62051  22.62859
 Alpha virt. eigenvalues --   22.66855  23.27301  43.93336  44.00515
          Condensed to atoms (all electrons):
               1          2          3          4          5          6
     1  O    7.938459   0.401251  -0.149901   0.010059  -0.000205  -0.000002
     2  C    0.401251   4.413857   0.217334  -0.018330   0.005490  -0.002454
     3  C   -0.149901   0.217334   5.592014   0.134455  -0.024272   0.016723
     4  C    0.010059  -0.018330   0.134455   5.256442   0.210281  -0.029100
     5  C   -0.000205   0.005490  -0.024272   0.210281   5.206263   0.179840
     6  C   -0.000002  -0.002454   0.016723  -0.029100   0.179840   5.341320
     7  C   -0.000038   0.001457  -0.000420  -0.001559  -0.022764   0.179923
     8  C    0.000009  -0.000037   0.000507  -0.001000   0.008828  -0.034929
     9  C   -0.000001  -0.000009  -0.000057   0.000076  -0.000486   0.008992
    10  C    0.000000   0.000000   0.000003  -0.000002   0.000039  -0.000871
    11  C   -0.000000   0.000000  -0.000000   0.000000  -0.000001   0.000047
    12  O   -0.088184   0.683011  -0.125866   0.013491   0.001727  -0.000063
    13  H    0.291172  -0.033040   0.024860  -0.001736   0.000049  -0.000006
    14  H    0.006271  -0.009591   0.391413  -0.033491  -0.013236   0.012947
    15  H    0.002728  -0.007721   0.387734  -0.041455   0.006362  -0.004927
    16  H    0.000018  -0.003005  -0.052733   0.436543  -0.034924  -0.016143
    17  H    0.000249  -0.007420  -0.036338   0.436846  -0.052656   0.010531
    18  H    0.000004  -0.000463   0.009796  -0.057440   0.447379  -0.046558
    19  H    0.000002  -0.000409  -0.011750  -0.036410   0.438383  -0.070147
    20  H    0.000010  -0.000286  -0.009349   0.009681  -0.052687   0.428016
    21  H   -0.000000   0.000062   0.000327   0.003773  -0.034024   0.423719
    22  H    0.000000  -0.000064  -0.001214   0.001582  -0.004958  -0.039940
    23  H   -0.000106   0.000889   0.001295  -0.001443   0.000846  -0.056567
    24  H   -0.000000   0.000000  -0.000068   0.000039  -0.000098  -0.003795
    25  H   -0.000001   0.000006   0.000238  -0.000209   0.000242  -0.002663
    26  H   -0.000000   0.000001   0.000037  -0.000019  -0.000003   0.000070
    27  H    0.000001  -0.000005  -0.000104   0.000034  -0.000013  -0.000029
    28  H   -0.000000   0.000000   0.000002  -0.000001   0.000001   0.000008
    29  H   -0.000000  -0.000000  -0.000001   0.000000  -0.000000   0.000009
    30  H   -0.000000   0.000000   0.000000  -0.000000  -0.000000   0.000001
    31  H   -0.000000  -0.000000  -0.000000   0.000000  -0.000000   0.000000
    32  H    0.000000  -0.000000   0.000000  -0.000000   0.000000  -0.000002
               7          8          9         10         11         12
     1  O   -0.000038   0.000009  -0.000001   0.000000  -0.000000  -0.088184
     2  C    0.001457  -0.000037  -0.000009   0.000000   0.000000   0.683011
     3  C   -0.000420   0.000507  -0.000057   0.000003  -0.000000  -0.125866
     4  C   -0.001559  -0.001000   0.000076  -0.000002   0.000000   0.013491
     5  C   -0.022764   0.008828  -0.000486   0.000039  -0.000001   0.001727
     6  C    0.179923  -0.034929   0.008992  -0.000871   0.000047  -0.000063
     7  C    5.323461   0.195396  -0.029060   0.009749  -0.001052  -0.000023
     8  C    0.195396   5.246378   0.206410  -0.041589   0.012670   0.000001
     9  C   -0.029060   0.206410   5.260185   0.241370  -0.057192  -0.000000
    10  C    0.009749  -0.041589   0.241370   5.122628   0.272956   0.000000
    11  C   -0.001052   0.012670  -0.057192   0.272956   5.031398  -0.000000
    12  O   -0.000023   0.000001  -0.000000   0.000000  -0.000000   7.832172
    13  H    0.000006  -0.000001   0.000000  -0.000000   0.000000   0.005578
    14  H   -0.013548   0.001591  -0.000229   0.000014  -0.000000   0.002180
    15  H    0.000061   0.000083   0.000044   0.000000   0.000000   0.000845
    16  H    0.002518  -0.000085   0.000013  -0.000000   0.000000   0.001965
    17  H   -0.000834   0.000077  -0.000003   0.000000  -0.000000   0.005556
    18  H    0.005871  -0.000581   0.000018  -0.000001   0.000000  -0.000018
    19  H   -0.000972  -0.000356   0.000095   0.000002   0.000000   0.000065
    20  H   -0.057141  -0.001809  -0.000175   0.000004   0.000001   0.000004
    21  H   -0.039492  -0.006952   0.000006  -0.000023   0.000001  -0.000001
    22  H    0.418398  -0.028623  -0.006696   0.000121  -0.000001   0.000000
    23  H    0.448393  -0.058767   0.000643  -0.000155  -0.000006  -0.000026
    24  H   -0.046327   0.433296  -0.043245  -0.002818  -0.000100  -0.000000
    25  H   -0.046001   0.436941  -0.047936  -0.003100  -0.000022   0.000000
    26  H   -0.003150  -0.043015   0.423086  -0.042028  -0.003130  -0.000000
    27  H   -0.006577  -0.041894   0.424834  -0.041022  -0.003239   0.000000
    28  H   -0.000406  -0.003948  -0.050615   0.428447  -0.039375  -0.000000
    29  H   -0.000376  -0.003991  -0.051208   0.429010  -0.039212  -0.000000
    30  H   -0.000042  -0.000201  -0.006859  -0.040758   0.414618  -0.000000
    31  H   -0.000021  -0.000218  -0.007031  -0.040591   0.414840  -0.000000
    32  H    0.000049  -0.000993   0.013990  -0.053921   0.424147   0.000000
              13         14         15         16         17         18
     1  O    0.291172   0.006271   0.002728   0.000018   0.000249   0.000004
     2  C   -0.033040  -0.009591  -0.007721  -0.003005  -0.007420  -0.000463
     3  C    0.024860   0.391413   0.387734  -0.052733  -0.036338   0.009796
     4  C   -0.001736  -0.033491  -0.041455   0.436543   0.436846  -0.057440
     5  C    0.000049  -0.013236   0.006362  -0.034924  -0.052656   0.447379
     6  C   -0.000006   0.012947  -0.004927  -0.016143   0.010531  -0.046558
     7  C    0.000006  -0.013548   0.000061   0.002518  -0.000834   0.005871
     8  C   -0.000001   0.001591   0.000083  -0.000085   0.000077  -0.000581
     9  C    0.000000  -0.000229   0.000044   0.000013  -0.000003   0.000018
    10  C   -0.000000   0.000014   0.000000  -0.000000   0.000000  -0.000001
    11  C    0.000000  -0.000000   0.000000   0.000000  -0.000000   0.000000
    12  O    0.005578   0.002180   0.000845   0.001965   0.005556  -0.000018
    13  H    0.378470  -0.000678  -0.000469  -0.000006  -0.000037  -0.000001
    14  H   -0.000678   0.508882  -0.024292  -0.001804   0.004850  -0.000476
    15  H   -0.000469  -0.024292   0.498009   0.005367  -0.001530   0.000108
    16  H   -0.000006  -0.001804   0.005367   0.509349  -0.014132  -0.003162
    17  H   -0.000037   0.004850  -0.001530  -0.014132   0.501986  -0.006599
    18  H   -0.000001  -0.000476   0.000108  -0.003162  -0.006599   0.529863
    19  H   -0.000001   0.001549   0.001773   0.005582  -0.001357  -0.018652
    20  H   -0.000001   0.000074   0.000910   0.003163  -0.000033   0.002547
    21  H    0.000000   0.000139  -0.000170  -0.000145  -0.000160  -0.010838
    22  H   -0.000000   0.000459   0.000646   0.000008  -0.000039   0.000422
    23  H    0.000010  -0.003322  -0.004638  -0.000101   0.000094  -0.000376
    24  H    0.000000   0.000005  -0.000009  -0.000005   0.000002  -0.000005
    25  H    0.000000   0.000032   0.000029   0.000029  -0.000005  -0.000011
    26  H    0.000000  -0.000000  -0.000003   0.000000  -0.000000  -0.000002
    27  H   -0.000000   0.000061   0.000012  -0.000001   0.000000   0.000002
    28  H    0.000000  -0.000001  -0.000000   0.000000  -0.000000  -0.000000
    29  H   -0.000000   0.000000   0.000000  -0.000000  -0.000000   0.000000
    30  H   -0.000000  -0.000000  -0.000000  -0.000000   0.000000   0.000000
    31  H    0.000000   0.000000   0.000000  -0.000000  -0.000000   0.000000
    32  H   -0.000000   0.000000  -0.000000  -0.000000   0.000000  -0.000000
              19         20         21         22         23         24
     1  O    0.000002   0.000010  -0.000000   0.000000  -0.000106  -0.000000
     2  C   -0.000409  -0.000286   0.000062  -0.000064   0.000889   0.000000
     3  C   -0.011750  -0.009349   0.000327  -0.001214   0.001295  -0.000068
     4  C   -0.036410   0.009681   0.003773   0.001582  -0.001443   0.000039
     5  C    0.438383  -0.052687  -0.034024  -0.004958   0.000846  -0.000098
     6  C   -0.070147   0.428016   0.423719  -0.039940  -0.056567  -0.003795
     7  C   -0.000972  -0.057141  -0.039492   0.418398   0.448393  -0.046327
     8  C   -0.000356  -0.001809  -0.006952  -0.028623  -0.058767   0.433296
     9  C    0.000095  -0.000175   0.000006  -0.006696   0.000643  -0.043245
    10  C    0.000002   0.000004  -0.000023   0.000121  -0.000155  -0.002818
    11  C    0.000000   0.000001   0.000001  -0.000001  -0.000006  -0.000100
    12  O    0.000065   0.000004  -0.000001   0.000000  -0.000026  -0.000000
    13  H   -0.000001  -0.000001   0.000000  -0.000000   0.000010   0.000000
    14  H    0.001549   0.000074   0.000139   0.000459  -0.003322   0.000005
    15  H    0.001773   0.000910  -0.000170   0.000646  -0.004638  -0.000009
    16  H    0.005582   0.003163  -0.000145   0.000008  -0.000101  -0.000005
    17  H   -0.001357  -0.000033  -0.000160  -0.000039   0.000094   0.000002
    18  H   -0.018652   0.002547  -0.010838   0.000422  -0.000376  -0.000005
    19  H    0.528954   0.006598   0.001119   0.001592   0.000958   0.000070
    20  H    0.006598   0.532489  -0.021589   0.006106  -0.001042   0.000958
    21  H    0.001119  -0.021589   0.532056  -0.003778   0.005430   0.000675
    22  H    0.001592   0.006106  -0.003778   0.532080  -0.028346  -0.002733
    23  H    0.000958  -0.001042   0.005430  -0.028346   0.549451   0.006406
    24  H    0.000070   0.000958   0.000675  -0.002733   0.006406   0.538913
    25  H   -0.000028   0.000617   0.001364   0.005464  -0.003656  -0.026960
    26  H   -0.000023  -0.000096   0.000238  -0.000382   0.001218  -0.003218
    27  H    0.000003   0.000177  -0.000097   0.001875  -0.000508   0.005779
    28  H   -0.000000  -0.000032   0.000018  -0.000104   0.000269   0.001023
    29  H    0.000000   0.000016  -0.000035   0.000218  -0.000126   0.000638
    30  H   -0.000000  -0.000000   0.000000  -0.000024   0.000018   0.000152
    31  H   -0.000000   0.000000  -0.000000   0.000013  -0.000031  -0.000066
    32  H    0.000000   0.000000  -0.000000   0.000000   0.000000   0.000009
              25         26         27         28         29         30
     1  O   -0.000001  -0.000000   0.000001  -0.000000  -0.000000  -0.000000
     2  C    0.000006   0.000001  -0.000005   0.000000  -0.000000   0.000000
     3  C    0.000238   0.000037  -0.000104   0.000002  -0.000001   0.000000
     4  C   -0.000209  -0.000019   0.000034  -0.000001   0.000000  -0.000000
     5  C    0.000242  -0.000003  -0.000013   0.000001  -0.000000  -0.000000
     6  C   -0.002663   0.000070  -0.000029   0.000008   0.000009   0.000001
     7  C   -0.046001  -0.003150  -0.006577  -0.000406  -0.000376  -0.000042
     8  C    0.436941  -0.043015  -0.041894  -0.003948  -0.003991  -0.000201
     9  C   -0.047936   0.423086   0.424834  -0.050615  -0.051208  -0.006859
    10  C   -0.003100  -0.042028  -0.041022   0.428447   0.429010  -0.040758
    11  C   -0.000022  -0.003130  -0.003239  -0.039375  -0.039212   0.414618
    12  O    0.000000  -0.000000   0.000000  -0.000000  -0.000000  -0.000000
    13  H    0.000000   0.000000  -0.000000   0.000000  -0.000000  -0.000000
    14  H    0.000032  -0.000000   0.000061  -0.000001   0.000000  -0.000000
    15  H    0.000029  -0.000003   0.000012  -0.000000   0.000000  -0.000000
    16  H    0.000029   0.000000  -0.000001   0.000000  -0.000000  -0.000000
    17  H   -0.000005  -0.000000   0.000000  -0.000000  -0.000000   0.000000
    18  H   -0.000011  -0.000002   0.000002  -0.000000   0.000000   0.000000
    19  H   -0.000028  -0.000023   0.000003  -0.000000   0.000000  -0.000000
    20  H    0.000617  -0.000096   0.000177  -0.000032   0.000016  -0.000000
    21  H    0.001364   0.000238  -0.000097   0.000018  -0.000035   0.000000
    22  H    0.005464  -0.000382   0.001875  -0.000104   0.000218  -0.000024
    23  H   -0.003656   0.001218  -0.000508   0.000269  -0.000126   0.000018
    24  H   -0.026960  -0.003218   0.005779   0.001023   0.000638   0.000152
    25  H    0.540632   0.006154  -0.002688   0.000630   0.001004  -0.000069
    26  H    0.006154   0.554650  -0.030563   0.007398  -0.005120   0.002269
    27  H   -0.002688  -0.030563   0.551875  -0.005246   0.007459   0.000304
    28  H    0.000630   0.007398  -0.005246   0.568195  -0.033877   0.007593
    29  H    0.001004  -0.005120   0.007459  -0.033877   0.567941  -0.005792
    30  H   -0.000069   0.002269   0.000304   0.007593  -0.005792   0.549461
    31  H    0.000150   0.000339   0.002345  -0.005753   0.007551  -0.031921
    32  H    0.000003  -0.000145  -0.000118  -0.004143  -0.004119  -0.024749
              31         32
     1  O   -0.000000   0.000000
     2  C   -0.000000  -0.000000
     3  C   -0.000000   0.000000
     4  C    0.000000  -0.000000
     5  C   -0.000000   0.000000
     6  C    0.000000  -0.000002
     7  C   -0.000021   0.000049
     8  C   -0.000218  -0.000993
     9  C   -0.007031   0.013990
    10  C   -0.040591  -0.053921
    11  C    0.414840   0.424147
    12  O   -0.000000   0.000000
    13  H    0.000000  -0.000000
    14  H    0.000000   0.000000
    15  H    0.000000  -0.000000
    16  H   -0.000000  -0.000000
    17  H   -0.000000   0.000000
    18  H    0.000000  -0.000000
    19  H   -0.000000   0.000000
    20  H    0.000000   0.000000
    21  H   -0.000000  -0.000000
    22  H    0.000013   0.000000
    23  H   -0.000031   0.000000
    24  H   -0.000066   0.000009
    25  H    0.000150   0.000003
    26  H    0.000339  -0.000145
    27  H    0.002345  -0.000118
    28  H   -0.005753  -0.004143
    29  H    0.007551  -0.004119
    30  H   -0.031921  -0.024749
    31  H    0.548811  -0.024692
    32  H   -0.024692   0.532821
 Mulliken charges:
               1
     1  O   -0.411796
     2  C    0.359477
     3  C   -0.364664
     4  C   -0.291109
     5  C   -0.265400
     6  C   -0.293950
     7  C   -0.315477
     8  C   -0.273197
     9  C   -0.278960
    10  C   -0.237466
    11  C   -0.427348
    12  O   -0.332415
    13  H    0.335830
    14  H    0.170201
    15  H    0.180503
    16  H    0.161693
    17  H    0.160952
    18  H    0.149173
    19  H    0.153362
    20  H    0.152868
    21  H    0.148373
    22  H    0.147917
    23  H    0.143296
    24  H    0.141482
    25  H    0.139814
    26  H    0.135438
    27  H    0.137343
    28  H    0.129917
    29  H    0.130011
    30  H    0.135998
    31  H    0.136276
    32  H    0.141860
 Sum of Mulliken charges =  -0.00000
 Mulliken charges with hydrogens summed into heavy atoms:
               1
     1  O   -0.075966
     2  C    0.359477
     3  C   -0.013960
     4  C    0.031536
     5  C    0.037135
     6  C    0.007291
     7  C   -0.024264
     8  C    0.008099
     9  C   -0.006180
    10  C    0.022462
    11  C   -0.013214
    12  O   -0.332415
 Electronic spatial extent (au):  <R**2>=           4624.1370
 Charge=             -0.0000 electrons
 Dipole moment (field-independent basis, Debye):
    X=              1.5967    Y=             -0.2606    Z=              0.3958  Tot=              1.6655
 Quadrupole moment (field-independent basis, Debye-Ang):
   XX=            -89.3306   YY=            -73.5203   ZZ=            -77.3898
   XY=              4.9952   XZ=             -2.4903   YZ=              1.2634
 Traceless Quadrupole moment (field-independent basis, Debye-Ang):
   XX=             -9.2504   YY=              6.5599   ZZ=              2.6904
   XY=              4.9952   XZ=             -2.4903   YZ=              1.2634
 Octapole moment (field-independent basis, Debye-Ang**2):
  XXX=             35.6336  YYY=            -22.9269  ZZZ=             -0.1452  XYY=            -37.0100
  XXY=            -26.5471  XXZ=             11.4319  XZZ=            -12.5232  YZZ=             -4.3783
  YYZ=             -3.7466  XYZ=              0.4004
 Hexadecapole moment (field-independent basis, Debye-Ang**3):
 XXXX=          -5413.0755 YYYY=           -922.7393 ZZZZ=           -200.6599 XXXY=            198.6378
 XXXZ=            -75.9645 YYYX=            138.6953 YYYZ=              8.6030 ZZZX=              6.5114
 ZZZY=              4.2659 XXYY=           -867.8371 XXZZ=           -868.0993 YYZZ=           -203.4190
 XXYZ=             16.0229 YYXZ=             10.1972 ZZXY=             16.4963
 N-N= 6.946431842460D+02 E-N=-2.654080301994D+03  KE= 5.405747297483D+02
 Unable to Open any file for archive entry.
 1\1\GINC-NOTCH075\SP\RM062X\def2TZVP\C10H20O2\U6032257\03-Feb-2022\0\\
 # M062X/def2tzvp int=(grid=ultrafine) nmr=giao guess=read geom=check\\
 Ac1.xyz\\0,1\O,0,6.0608544919,-0.0559011415,-0.9856255322\C,0,5.215983
 3583,-0.5495793175,-0.0447698908\C,0,3.9497689511,-1.0897119397,-0.668
 1302932\C,0,3.0202118154,-1.7410194731,0.3546411672\C,0,1.6549651848,-
 2.1715371131,-0.1986938881\C,0,1.6963300984,-3.2370829189,-1.312674443
 7\C,0,1.7300884341,-2.6794676313,-2.741136771\C,0,1.7865556552,-3.7726
 958585,-3.8109769231\C,0,1.79765255,-3.2255267741,-5.2404423985\C,0,1.
 8572527871,-4.3183821906,-6.3113902063\C,0,1.8689491976,-3.7613423654,
 -7.7362848949\O,0,5.4824130696,-0.5351152084,1.1366777986\H,0,6.836134
 0666,0.2736991378,-0.5006828987\H,0,4.2455505366,-1.787734615,-1.45842
 43789\H,0,3.4547777426,-0.2557989131,-1.1827382276\H,0,3.5280711819,-2
 .610769526,0.7882537836\H,0,2.8731239596,-1.0402691,1.1829049052\H,0,1
 .0712929187,-2.5581727937,0.6445685911\H,0,1.1092065729,-1.2889176652,
 -0.5604385939\H,0,2.5614342194,-3.8966528755,-1.1543105246\H,0,0.81332
 22407,-3.8826475947,-1.2258158657\H,0,0.8367422317,-2.0598454713,-2.90
 10817043\H,0,2.5864738308,-2.0073266836,-2.8718164878\H,0,0.9284989496
 ,-4.4480824716,-3.6861684045\H,0,2.6820270868,-4.3898509163,-3.6515380
 432\H,0,0.9018891848,-2.6091051748,-5.4010695292\H,0,2.6555570003,-2.5
 495676441,-5.3646191595\H,0,2.7523867147,-4.9336485812,-6.1492375314\H
 ,0,0.9994531209,-4.9926909076,-6.1865987692\H,0,0.9690611939,-3.168541
 3608,-7.9350734603\H,0,2.7346472773,-3.1091406852,-7.8972981481\H,0,1.
 9118243767,-4.5620742257,-8.4813092775\\Version=ES64L-G16RevC.01\State
 =1-A\HF=-543.5409788\RMSD=2.682e-09\Dipole=-0.2431622,-0.0814035,-0.60
 30108\Quadrupole=4.5975499,2.694904,-7.292454,0.8654138,-3.4430041,-1.
 5009202\PG=C01 [X(C10H20O2)]\\@
 The archive entry for this job was punched.


 WHEN ALL ELSE FAILS, LOOK AT THE SCHRODINGER EQUATION.
     -- RUSSELL T. PACK, APRIL 1978
 Job cpu time:       0 days  0 hours 34 minutes 34.9 seconds.
 Elapsed time:       0 days  0 hours  1 minutes 15.6 seconds.
 File lengths (MBytes):  RWF=    140 Int=      0 D2E=      0 Chk=     24 Scr=      1
 Normal termination of Gaussian 16 at Thu Feb  3 08:25:42 2022.
