 Entering Gaussian System, Link 0=/uufs/chpc.utah.edu/sys/installdir/gaussian16/C01/AVX2/g16/g16
 Input=Ac1_clust-31.com
 Output=Ac1_clust-31.log
 Initial command:
 /uufs/chpc.utah.edu/sys/installdir/gaussian16/C01/AVX2/g16/l1.exe "/scratch/general/lustre/u6032257/3857488/notchpeak.peaks/Gau-293155.inp" -scrdir="/scratch/general/lustre/u6032257/3857488/notchpeak.peaks/"
 Entering Link 1 = /uufs/chpc.utah.edu/sys/installdir/gaussian16/C01/AVX2/g16/l1.exe PID=    293157.
  
 Copyright (c) 1988-2019, Gaussian, Inc.  All Rights Reserved.
  
 This is part of the Gaussian(R) 16 program.  It is based on
 the Gaussian(R) 09 system (copyright 2009, Gaussian, Inc.),
 the Gaussian(R) 03 system (copyright 2003, Gaussian, Inc.),
 the Gaussian(R) 98 system (copyright 1998, Gaussian, Inc.),
 the Gaussian(R) 94 system (copyright 1995, Gaussian, Inc.),
 the Gaussian 92(TM) system (copyright 1992, Gaussian, Inc.),
 the Gaussian 90(TM) system (copyright 1990, Gaussian, Inc.),
 the Gaussian 88(TM) system (copyright 1988, Gaussian, Inc.),
 the Gaussian 86(TM) system (copyright 1986, Carnegie Mellon
 University), and the Gaussian 82(TM) system (copyright 1983,
 Carnegie Mellon University). Gaussian is a federally registered
 trademark of Gaussian, Inc.
  
 This software contains proprietary and confidential information,
 including trade secrets, belonging to Gaussian, Inc.
  
 This software is provided under written license and may be
 used, copied, transmitted, or stored only in accord with that
 written license.
  
 The following legend is applicable only to US Government
 contracts under FAR:
  
                    RESTRICTED RIGHTS LEGEND
  
 Use, reproduction and disclosure by the US Government is
 subject to restrictions as set forth in subparagraphs (a)
 and (c) of the Commercial Computer Software - Restricted
 Rights clause in FAR 52.227-19.
  
 Gaussian, Inc.
 340 Quinnipiac St., Bldg. 40, Wallingford CT 06492
  
  
 ---------------------------------------------------------------
 Warning -- This program may not be used in any manner that
 competes with the business of Gaussian, Inc. or will provide
 assistance to any competitor of Gaussian, Inc.  The licensee
 of this program is prohibited from giving any competitor of
 Gaussian, Inc. access to this program.  By using this program,
 the user acknowledges that Gaussian, Inc. is engaged in the
 business of creating and licensing software in the field of
 computational chemistry and represents and warrants to the
 licensee that it is not a competitor of Gaussian, Inc. and that
 it will not use this program in any manner prohibited above.
 ---------------------------------------------------------------
  

 Cite this work as:
 Gaussian 16, Revision C.01,
 M. J. Frisch, G. W. Trucks, H. B. Schlegel, G. E. Scuseria, 
 M. A. Robb, J. R. Cheeseman, G. Scalmani, V. Barone, 
 G. A. Petersson, H. Nakatsuji, X. Li, M. Caricato, A. V. Marenich, 
 J. Bloino, B. G. Janesko, R. Gomperts, B. Mennucci, H. P. Hratchian, 
 J. V. Ortiz, A. F. Izmaylov, J. L. Sonnenberg, D. Williams-Young, 
 F. Ding, F. Lipparini, F. Egidi, J. Goings, B. Peng, A. Petrone, 
 T. Henderson, D. Ranasinghe, V. G. Zakrzewski, J. Gao, N. Rega, 
 G. Zheng, W. Liang, M. Hada, M. Ehara, K. Toyota, R. Fukuda, 
 J. Hasegawa, M. Ishida, T. Nakajima, Y. Honda, O. Kitao, H. Nakai, 
 T. Vreven, K. Throssell, J. A. Montgomery, Jr., J. E. Peralta, 
 F. Ogliaro, M. J. Bearpark, J. J. Heyd, E. N. Brothers, K. N. Kudin, 
 V. N. Staroverov, T. A. Keith, R. Kobayashi, J. Normand, 
 K. Raghavachari, A. P. Rendell, J. C. Burant, S. S. Iyengar, 
 J. Tomasi, M. Cossi, J. M. Millam, M. Klene, C. Adamo, R. Cammi, 
 J. W. Ochterski, R. L. Martin, K. Morokuma, O. Farkas, 
 J. B. Foresman, and D. J. Fox, Gaussian, Inc., Wallingford CT, 2019.
 
 ******************************************
 Gaussian 16:  ES64L-G16RevC.01  3-Jul-2019
                 3-Feb-2022 
 ******************************************
 %NProcShared=32
 Will use up to   32 processors via shared memory.
 %mem=16GB
 %chk=Ac1_clust-31.chk
 ----------------------------------------------------------------------
 # B3LYP/6-31G(d,p) empiricaldispersion=GD3BJ int=(grid=ultrafine) opt 
 freq=noraman
 ----------------------------------------------------------------------
 1/18=20,19=15,26=4,38=1/1,3;
 2/9=110,12=2,17=6,18=5,40=1/2;
 3/5=1,6=6,7=101,11=2,25=1,30=1,71=1,74=-5,75=-5,124=41/1,2,3;
 4//1;
 5/5=2,38=5/2;
 6/7=2,8=2,9=2,10=2,28=1/1;
 7//1,2,3,16;
 1/18=20,19=15,26=4/3(2);
 2/9=110/2;
 99//99;
 2/9=110/2;
 3/5=1,6=6,7=101,11=2,25=1,30=1,71=1,74=-5,75=-5,124=41/1,2,3;
 4/5=5,16=3,69=1/1;
 5/5=2,38=5/2;
 7//1,2,3,16;
 1/18=20,19=15,26=4/3(-5);
 2/9=110/2;
 6/7=2,8=2,9=2,10=2,19=2,28=1/1;
 99/9=1/99;
 -------
 Ac1.xyz
 -------
 Symbolic Z-matrix:
 Charge =  0 Multiplicity = 1
 O                     5.0329   -0.4001    1.2657 
 C                     4.6973   -0.1413   -0.0168 
 C                     3.3166   -0.6793   -0.3814 
 C                     3.1593   -2.2181   -0.2691 
 C                     4.128    -3.0596   -1.1333 
 C                     4.0941   -2.7672   -2.6482 
 C                     2.7307   -3.0351   -3.3138 
 C                     2.7618   -2.8137   -4.8382 
 C                     1.3933   -2.9754   -5.5291 
 C                     0.8314   -4.4091   -5.4907 
 C                    -0.4849   -4.5484   -6.2685 
 O                     5.4183    0.4728   -0.7893 
 H                     5.9039   -0.0142    1.361 
 H                     3.0823   -0.3495   -1.3933 
 H                     2.595    -0.1804    0.2644 
 H                     3.2717   -2.5149    0.776 
 H                     2.1322   -2.4856   -0.522 
 H                     5.1478   -2.9162   -0.7722 
 H                     3.9157   -4.1179   -0.9718 
 H                     4.3996   -1.7355   -2.8313 
 H                     4.853    -3.3829   -3.1342 
 H                     2.4215   -4.0577   -3.0943 
 H                     1.9731   -2.3844   -2.8751 
 H                     3.4836   -3.493    -5.2954 
 H                     3.1338   -1.8078   -5.0413 
 H                     0.6752   -2.2857   -5.0818 
 H                     1.4936   -2.6627   -6.57 
 H                     1.5666   -5.1031   -5.9016 
 H                     0.6648   -4.7183   -4.4581 
 H                    -1.2579   -3.896    -5.8605 
 H                    -0.3537   -4.2932   -7.3208 
 H                    -0.8594   -5.5716   -6.2225 
 

 GradGradGradGradGradGradGradGradGradGradGradGradGradGradGradGradGradGrad
 Berny optimization.
 Initialization pass.
                           ----------------------------
                           !    Initial Parameters    !
                           ! (Angstroms and Degrees)  !
 --------------------------                            --------------------------
 ! Name  Definition              Value          Derivative Info.                !
 --------------------------------------------------------------------------------
 ! R1    R(1,2)                  1.3507         estimate D2E/DX2                !
 ! R2    R(1,13)                 0.9574         estimate D2E/DX2                !
 ! R3    R(2,3)                  1.526          estimate D2E/DX2                !
 ! R4    R(2,12)                 1.2222         estimate D2E/DX2                !
 ! R5    R(3,4)                  1.5509         estimate D2E/DX2                !
 ! R6    R(3,14)                 1.0898         estimate D2E/DX2                !
 ! R7    R(3,15)                 1.0893         estimate D2E/DX2                !
 ! R8    R(4,5)                  1.547          estimate D2E/DX2                !
 ! R9    R(4,16)                 1.0922         estimate D2E/DX2                !
 ! R10   R(4,17)                 1.0911         estimate D2E/DX2                !
 ! R11   R(5,6)                  1.5432         estimate D2E/DX2                !
 ! R12   R(5,18)                 1.0913         estimate D2E/DX2                !
 ! R13   R(5,19)                 1.0914         estimate D2E/DX2                !
 ! R14   R(6,7)                  1.5407         estimate D2E/DX2                !
 ! R15   R(6,20)                 1.0914         estimate D2E/DX2                !
 ! R16   R(6,21)                 1.0914         estimate D2E/DX2                !
 ! R17   R(7,8)                  1.5407         estimate D2E/DX2                !
 ! R18   R(7,22)                 1.0906         estimate D2E/DX2                !
 ! R19   R(7,23)                 1.0908         estimate D2E/DX2                !
 ! R20   R(8,9)                  1.5415         estimate D2E/DX2                !
 ! R21   R(8,24)                 1.0915         estimate D2E/DX2                !
 ! R22   R(8,25)                 1.0915         estimate D2E/DX2                !
 ! R23   R(9,10)                 1.5404         estimate D2E/DX2                !
 ! R24   R(9,26)                 1.0915         estimate D2E/DX2                !
 ! R25   R(9,27)                 1.0915         estimate D2E/DX2                !
 ! R26   R(10,11)                1.5353         estimate D2E/DX2                !
 ! R27   R(10,28)                1.0913         estimate D2E/DX2                !
 ! R28   R(10,29)                1.0907         estimate D2E/DX2                !
 ! R29   R(11,30)                1.0907         estimate D2E/DX2                !
 ! R30   R(11,31)                1.0907         estimate D2E/DX2                !
 ! R31   R(11,32)                1.0906         estimate D2E/DX2                !
 ! A1    A(2,1,13)             104.0826         estimate D2E/DX2                !
 ! A2    A(1,2,3)              112.5886         estimate D2E/DX2                !
 ! A3    A(1,2,12)             123.3567         estimate D2E/DX2                !
 ! A4    A(3,2,12)             124.0479         estimate D2E/DX2                !
 ! A5    A(2,3,4)              115.1046         estimate D2E/DX2                !
 ! A6    A(2,3,14)             108.0401         estimate D2E/DX2                !
 ! A7    A(2,3,15)             107.2316         estimate D2E/DX2                !
 ! A8    A(4,3,14)             110.2246         estimate D2E/DX2                !
 ! A9    A(4,3,15)             110.139          estimate D2E/DX2                !
 ! A10   A(14,3,15)            105.6317         estimate D2E/DX2                !
 ! A11   A(3,4,5)              115.8325         estimate D2E/DX2                !
 ! A12   A(3,4,16)             109.1758         estimate D2E/DX2                !
 ! A13   A(3,4,17)             108.7811         estimate D2E/DX2                !
 ! A14   A(5,4,16)             108.7999         estimate D2E/DX2                !
 ! A15   A(5,4,17)             109.063          estimate D2E/DX2                !
 ! A16   A(16,4,17)            104.5983         estimate D2E/DX2                !
 ! A17   A(4,5,6)              115.5654         estimate D2E/DX2                !
 ! A18   A(4,5,18)             109.1972         estimate D2E/DX2                !
 ! A19   A(4,5,19)             108.8433         estimate D2E/DX2                !
 ! A20   A(6,5,18)             108.6897         estimate D2E/DX2                !
 ! A21   A(6,5,19)             108.9481         estimate D2E/DX2                !
 ! A22   A(18,5,19)            105.0837         estimate D2E/DX2                !
 ! A23   A(5,6,7)              114.2414         estimate D2E/DX2                !
 ! A24   A(5,6,20)             109.7326         estimate D2E/DX2                !
 ! A25   A(5,6,21)             108.358          estimate D2E/DX2                !
 ! A26   A(7,6,20)             109.8519         estimate D2E/DX2                !
 ! A27   A(7,6,21)             108.957          estimate D2E/DX2                !
 ! A28   A(20,6,21)            105.3026         estimate D2E/DX2                !
 ! A29   A(6,7,8)              112.6188         estimate D2E/DX2                !
 ! A30   A(6,7,22)             109.0852         estimate D2E/DX2                !
 ! A31   A(6,7,23)             109.7031         estimate D2E/DX2                !
 ! A32   A(8,7,22)             109.8516         estimate D2E/DX2                !
 ! A33   A(8,7,23)             109.0398         estimate D2E/DX2                !
 ! A34   A(22,7,23)            106.3483         estimate D2E/DX2                !
 ! A35   A(7,8,9)              114.2335         estimate D2E/DX2                !
 ! A36   A(7,8,24)             109.7758         estimate D2E/DX2                !
 ! A37   A(7,8,25)             108.8688         estimate D2E/DX2                !
 ! A38   A(9,8,24)             109.5139         estimate D2E/DX2                !
 ! A39   A(9,8,25)             108.4105         estimate D2E/DX2                !
 ! A40   A(24,8,25)            105.6764         estimate D2E/DX2                !
 ! A41   A(8,9,10)             114.2238         estimate D2E/DX2                !
 ! A42   A(8,9,26)             109.5177         estimate D2E/DX2                !
 ! A43   A(8,9,27)             108.4088         estimate D2E/DX2                !
 ! A44   A(10,9,26)            109.7497         estimate D2E/DX2                !
 ! A45   A(10,9,27)            108.9021         estimate D2E/DX2                !
 ! A46   A(26,9,27)            105.6783         estimate D2E/DX2                !
 ! A47   A(9,10,11)            112.6177         estimate D2E/DX2                !
 ! A48   A(9,10,28)            109.6794         estimate D2E/DX2                !
 ! A49   A(9,10,29)            110.0707         estimate D2E/DX2                !
 ! A50   A(11,10,28)           109.2169         estimate D2E/DX2                !
 ! A51   A(11,10,29)           108.8417         estimate D2E/DX2                !
 ! A52   A(28,10,29)           106.2055         estimate D2E/DX2                !
 ! A53   A(10,11,30)           111.3372         estimate D2E/DX2                !
 ! A54   A(10,11,31)           111.3717         estimate D2E/DX2                !
 ! A55   A(10,11,32)           110.9889         estimate D2E/DX2                !
 ! A56   A(30,11,31)           107.83           estimate D2E/DX2                !
 ! A57   A(30,11,32)           107.5809         estimate D2E/DX2                !
 ! A58   A(31,11,32)           107.5492         estimate D2E/DX2                !
 ! D1    D(13,1,2,3)          -179.8635         estimate D2E/DX2                !
 ! D2    D(13,1,2,12)           -0.7853         estimate D2E/DX2                !
 ! D3    D(1,2,3,4)            -61.6798         estimate D2E/DX2                !
 ! D4    D(1,2,3,14)           174.6714         estimate D2E/DX2                !
 ! D5    D(1,2,3,15)            61.2358         estimate D2E/DX2                !
 ! D6    D(12,2,3,4)           119.2494         estimate D2E/DX2                !
 ! D7    D(12,2,3,14)           -4.3994         estimate D2E/DX2                !
 ! D8    D(12,2,3,15)         -117.835          estimate D2E/DX2                !
 ! D9    D(2,3,4,5)            -58.4739         estimate D2E/DX2                !
 ! D10   D(2,3,4,16)            64.7173         estimate D2E/DX2                !
 ! D11   D(2,3,4,17)           178.3026         estimate D2E/DX2                !
 ! D12   D(14,3,4,5)            64.0108         estimate D2E/DX2                !
 ! D13   D(14,3,4,16)         -172.798          estimate D2E/DX2                !
 ! D14   D(14,3,4,17)          -59.2126         estimate D2E/DX2                !
 ! D15   D(15,3,4,5)          -179.8238         estimate D2E/DX2                !
 ! D16   D(15,3,4,16)          -56.6326         estimate D2E/DX2                !
 ! D17   D(15,3,4,17)           56.9528         estimate D2E/DX2                !
 ! D18   D(3,4,5,6)            -56.7751         estimate D2E/DX2                !
 ! D19   D(3,4,5,18)            66.0926         estimate D2E/DX2                !
 ! D20   D(3,4,5,19)          -179.7037         estimate D2E/DX2                !
 ! D21   D(16,4,5,6)           179.8367         estimate D2E/DX2                !
 ! D22   D(16,4,5,18)          -57.2956         estimate D2E/DX2                !
 ! D23   D(16,4,5,19)           56.908          estimate D2E/DX2                !
 ! D24   D(17,4,5,6)            66.3004         estimate D2E/DX2                !
 ! D25   D(17,4,5,18)         -170.8319         estimate D2E/DX2                !
 ! D26   D(17,4,5,19)          -56.6283         estimate D2E/DX2                !
 ! D27   D(4,5,6,7)            -61.2702         estimate D2E/DX2                !
 ! D28   D(4,5,6,20)            62.5907         estimate D2E/DX2                !
 ! D29   D(4,5,6,21)           177.075          estimate D2E/DX2                !
 ! D30   D(18,5,6,7)           175.594          estimate D2E/DX2                !
 ! D31   D(18,5,6,20)          -60.5452         estimate D2E/DX2                !
 ! D32   D(18,5,6,21)           53.9392         estimate D2E/DX2                !
 ! D33   D(19,5,6,7)            61.6031         estimate D2E/DX2                !
 ! D34   D(19,5,6,20)         -174.5361         estimate D2E/DX2                !
 ! D35   D(19,5,6,21)          -60.0517         estimate D2E/DX2                !
 ! D36   D(5,6,7,8)           -176.5053         estimate D2E/DX2                !
 ! D37   D(5,6,7,22)           -54.2675         estimate D2E/DX2                !
 ! D38   D(5,6,7,23)            61.854          estimate D2E/DX2                !
 ! D39   D(20,6,7,8)            59.698          estimate D2E/DX2                !
 ! D40   D(20,6,7,22)         -178.0642         estimate D2E/DX2                !
 ! D41   D(20,6,7,23)          -61.9428         estimate D2E/DX2                !
 ! D42   D(21,6,7,8)           -55.1806         estimate D2E/DX2                !
 ! D43   D(21,6,7,22)           67.0572         estimate D2E/DX2                !
 ! D44   D(21,6,7,23)         -176.8214         estimate D2E/DX2                !
 ! D45   D(6,7,8,9)           -175.9352         estimate D2E/DX2                !
 ! D46   D(6,7,8,24)            60.6215         estimate D2E/DX2                !
 ! D47   D(6,7,8,25)           -54.6131         estimate D2E/DX2                !
 ! D48   D(22,7,8,9)            62.2602         estimate D2E/DX2                !
 ! D49   D(22,7,8,24)          -61.1831         estimate D2E/DX2                !
 ! D50   D(22,7,8,25)         -176.4177         estimate D2E/DX2                !
 ! D51   D(23,7,8,9)           -53.9187         estimate D2E/DX2                !
 ! D52   D(23,7,8,24)         -177.362          estimate D2E/DX2                !
 ! D53   D(23,7,8,25)           67.4033         estimate D2E/DX2                !
 ! D54   D(7,8,9,10)           -66.3049         estimate D2E/DX2                !
 ! D55   D(7,8,9,26)            57.2412         estimate D2E/DX2                !
 ! D56   D(7,8,9,27)           172.0852         estimate D2E/DX2                !
 ! D57   D(24,8,9,10)           57.2796         estimate D2E/DX2                !
 ! D58   D(24,8,9,26)         -179.1742         estimate D2E/DX2                !
 ! D59   D(24,8,9,27)          -64.3303         estimate D2E/DX2                !
 ! D60   D(25,8,9,10)          172.1203         estimate D2E/DX2                !
 ! D61   D(25,8,9,26)          -64.3336         estimate D2E/DX2                !
 ! D62   D(25,8,9,27)           50.5104         estimate D2E/DX2                !
 ! D63   D(8,9,10,11)         -176.1742         estimate D2E/DX2                !
 ! D64   D(8,9,10,28)          -54.3247         estimate D2E/DX2                !
 ! D65   D(8,9,10,29)           62.1775         estimate D2E/DX2                !
 ! D66   D(26,9,10,11)          60.4048         estimate D2E/DX2                !
 ! D67   D(26,9,10,28)        -177.7457         estimate D2E/DX2                !
 ! D68   D(26,9,10,29)         -61.2435         estimate D2E/DX2                !
 ! D69   D(27,9,10,11)         -54.8363         estimate D2E/DX2                !
 ! D70   D(27,9,10,28)          67.0132         estimate D2E/DX2                !
 ! D71   D(27,9,10,29)        -176.4846         estimate D2E/DX2                !
 ! D72   D(9,10,11,30)         -60.0847         estimate D2E/DX2                !
 ! D73   D(9,10,11,31)          60.3041         estimate D2E/DX2                !
 ! D74   D(9,10,11,32)        -179.8988         estimate D2E/DX2                !
 ! D75   D(28,10,11,30)        177.8042         estimate D2E/DX2                !
 ! D76   D(28,10,11,31)        -61.807          estimate D2E/DX2                !
 ! D77   D(28,10,11,32)         57.9901         estimate D2E/DX2                !
 ! D78   D(29,10,11,30)         62.2586         estimate D2E/DX2                !
 ! D79   D(29,10,11,31)       -177.3526         estimate D2E/DX2                !
 ! D80   D(29,10,11,32)        -57.5556         estimate D2E/DX2                !
 --------------------------------------------------------------------------------
 Trust Radius=3.00D-01 FncErr=1.00D-07 GrdErr=1.00D-06 EigMax=2.50D+02 EigMin=1.00D-04
 Number of steps in this run=    179 maximum allowed number of steps=    192.
 GradGradGradGradGradGradGradGradGradGradGradGradGradGradGradGradGradGrad

                          Input orientation:                          
 ---------------------------------------------------------------------
 Center     Atomic      Atomic             Coordinates (Angstroms)
 Number     Number       Type             X           Y           Z
 ---------------------------------------------------------------------
      1          8           0        5.032900   -0.400100    1.265700
      2          6           0        4.697300   -0.141300   -0.016800
      3          6           0        3.316600   -0.679300   -0.381400
      4          6           0        3.159300   -2.218100   -0.269100
      5          6           0        4.128000   -3.059600   -1.133300
      6          6           0        4.094100   -2.767200   -2.648200
      7          6           0        2.730700   -3.035100   -3.313800
      8          6           0        2.761800   -2.813700   -4.838200
      9          6           0        1.393300   -2.975400   -5.529100
     10          6           0        0.831400   -4.409100   -5.490700
     11          6           0       -0.484900   -4.548400   -6.268500
     12          8           0        5.418300    0.472800   -0.789300
     13          1           0        5.903900   -0.014200    1.361000
     14          1           0        3.082300   -0.349500   -1.393300
     15          1           0        2.595000   -0.180400    0.264400
     16          1           0        3.271700   -2.514900    0.776000
     17          1           0        2.132200   -2.485600   -0.522000
     18          1           0        5.147800   -2.916200   -0.772200
     19          1           0        3.915700   -4.117900   -0.971800
     20          1           0        4.399600   -1.735500   -2.831300
     21          1           0        4.853000   -3.382900   -3.134200
     22          1           0        2.421500   -4.057700   -3.094300
     23          1           0        1.973100   -2.384400   -2.875100
     24          1           0        3.483600   -3.493000   -5.295400
     25          1           0        3.133800   -1.807800   -5.041300
     26          1           0        0.675200   -2.285700   -5.081800
     27          1           0        1.493600   -2.662700   -6.570000
     28          1           0        1.566600   -5.103100   -5.901600
     29          1           0        0.664800   -4.718300   -4.458100
     30          1           0       -1.257900   -3.896000   -5.860500
     31          1           0       -0.353700   -4.293200   -7.320800
     32          1           0       -0.859400   -5.571600   -6.222500
 ---------------------------------------------------------------------
                    Distance matrix (angstroms):
                    1          2          3          4          5
     1  O    0.000000
     2  C    1.350708   0.000000
     3  C    2.395115   1.526011   0.000000
     4  C    3.028384   2.596574   1.550890   0.000000
     5  C    3.694183   3.176027   2.624796   1.547043   0.000000
     6  C    4.669381   3.766094   3.178398   2.614475   1.543233
     7  C    5.763260   4.807474   3.806842   3.181412   2.589909
     8  C    6.945571   5.842412   4.972578   4.624870   3.956419
     9  C    8.127002   7.023816   5.955667   5.599987   5.177715
    10  C    8.909188   7.944991   6.796512   6.122475   5.628113
    11  C   10.218546   9.239128   8.004954   7.396167   7.061562
    12  O    2.265726   1.222177   2.431226   3.551708   3.776382
    13  H    0.957414   1.835857   3.189426   3.879076   4.318543
    14  H    3.298133   2.132211   1.089773   2.182068   2.916459
    15  H    2.644660   2.121383   1.089342   2.180660   3.548725
    16  H    2.795355   2.880077   2.170488   1.092226   2.162261
    17  H    3.994902   3.511511   2.164553   1.091077   2.164805
    18  H    3.239907   2.910953   2.917146   2.166699   1.091306
    19  H    4.480690   4.163685   3.539981   2.162214   1.091399
    20  H    4.355430   3.248309   2.879315   2.887233   2.170302
    21  H    5.318701   4.500044   4.153057   3.526213   2.152614
    22  H    6.261553   5.476172   4.424321   3.451120   2.784577
    23  H    5.517794   4.541216   3.306191   2.868094   2.851904
    24  H    7.417169   6.369504   5.664997   5.195597   4.233930
    25  H    6.735462   5.519724   4.798083   4.789874   4.222310
    26  H    7.926903   6.813954   5.625947   5.416401   5.302019
    27  H    8.890680   7.717874   6.749517   6.532501   6.054362
    28  H    9.246818   8.309730   7.287326   6.525716   5.785616
    29  H    8.395775   7.545537   6.321791   5.479165   5.079305
    30  H   10.128090   9.149372   7.829032   7.320571   7.214839
    31  H   10.858161   9.803025   8.642144   8.147004   7.739028
    32  H   10.841437   9.943630   8.688615   7.927098   7.555413
                    6          7          8          9         10
     6  C    0.000000
     7  C    1.540667   0.000000
     8  C    2.563842   1.540708   0.000000
     9  C    3.954397   2.588389   1.541519   0.000000
    10  C    4.628267   3.199080   2.587953   1.540358   0.000000
    11  C    6.102990   4.621733   3.949178   2.559038   1.535260
    12  O    3.963157   5.089367   5.852492   7.110303   8.183872
    13  H    5.189226   6.406933   7.492668   8.751440   9.591204
    14  H    2.905819   3.320300   4.247627   5.181980   6.191574
    15  H    4.173976   4.579437   5.744442   6.543757   7.356179
    16  H    3.530601   4.158095   5.645221   6.595054   6.986744
    17  H    2.906730   2.907628   4.374200   5.084971   5.484516
    18  H    2.156817   3.509450   4.715491   6.060353   6.566910
    19  H    2.160216   2.839304   4.240457   5.332616   5.478883
    20  H    1.091449   2.169561   2.805807   4.225319   5.191589
    21  H    1.091426   2.158096   2.756941   4.227425   4.772782
    22  H    2.159163   1.090640   2.168992   2.856015   2.897349
    23  H    2.167178   1.090791   2.158728   2.780138   3.499179
    24  H    2.811968   2.168702   1.091547   2.166075   2.812747
    25  H    2.751282   2.157084   1.091544   2.151878   3.502823
    26  H    4.224113   2.812917   2.166108   1.091527   2.168046
    27  H    4.706807   3.503132   2.151805   1.091473   2.157153
    28  H    4.735958   3.511191   2.792969   2.167002   1.091327
    29  H    4.340810   2.900091   2.858214   2.171510   1.090698
    30  H    6.343261   4.809965   4.286544   2.825985   2.182933
    31  H    6.629087   5.210795   4.249537   2.828214   2.183383
    32  H    6.721417   5.270976   4.757666   3.506525   2.178472
                   11         12         13         14         15
    11  C    0.000000
    12  O    9.491146   0.000000
    13  H   10.935493   2.257602   0.000000
    14  H    7.356851   2.549096   3.957274   0.000000
    15  H    8.440616   3.083501   3.489839   1.736095   0.000000
    16  H    8.238455   3.998050   3.677527   3.070943   2.483857
    17  H    6.642787   4.429676   4.886638   2.494950   2.479225
    18  H    8.037456   3.399821   3.680195   3.352612   3.882773
    19  H    6.899684   4.833802   5.122036   3.882403   4.333168
    20  H    6.601901   3.175548   4.775057   2.392513   3.906184
    21  H    6.298841   4.548026   5.714836   3.920156   5.187008
    22  H    4.331685   5.900785   6.951741   4.132893   5.132682
    23  H    4.715912   4.937971   6.246085   2.750795   3.885979
    24  H    4.220164   6.306788   7.890980   5.026830   6.532557
    25  H    4.702329   5.338500   7.202770   3.929020   5.575768
    26  H    2.806047   6.966482   8.602830   4.811240   6.058034
    27  H    2.749769   7.658402   9.453362   5.888386   7.354177
    28  H    2.156608   8.488926   9.871901   6.724495   7.956767
    29  H    2.151331   7.937467   9.134476   5.858645   6.827900
    30  H    1.090696   9.453842  10.886221   7.167348   8.134182
    31  H    1.090723   9.934346  11.525669   7.905322   9.118400
    32  H    1.090552  10.269564  11.581727   8.131943   9.114702
                   16         17         18         19         20
    16  H    0.000000
    17  H    1.727461   0.000000
    18  H    2.465302   3.056446   0.000000
    19  H    2.457468   2.459186   1.732626   0.000000
    20  H    3.859046   3.322141   2.488724   3.060675   0.000000
    21  H    4.306228   3.877046   2.425646   2.468751   1.735294
    22  H    4.252328   3.028518   3.758708   2.596394   3.061807
    23  H    3.877360   2.360643   3.844960   3.225100   2.512149
    24  H    6.153331   5.062261   4.854029   4.389844   3.162222
    25  H    5.861739   4.678321   4.848707   4.744340   2.547857
    26  H    6.411565   4.791094   6.242943   5.545259   4.386186
    27  H    7.559577   6.084199   6.857983   6.270887   4.825185
    28  H    7.361826   6.009268   6.627086   5.549038   5.365945
    29  H    6.248736   4.757215   6.077064   4.804489   5.048991
    30  H    8.152781   6.479320   8.239162   7.121430   6.771345
    31  H    9.047875   7.461287   8.662955   7.652993   7.020776
    32  H    8.682650   7.139241   8.534833   7.244631   7.339822
                   21         22         23         24         25
    21  H    0.000000
    22  H    2.523715   0.000000
    23  H    3.059078   1.746151   0.000000
    24  H    2.560891   2.508343   3.060793   0.000000
    25  H    3.012245   3.059449   2.524305   1.739778   0.000000
    26  H    4.738249   3.184290   2.561994   3.064361   2.504944
    27  H    4.858907   3.858434   3.736262   2.504816   2.399590
    28  H    4.627960   3.115228   4.088554   2.575809   3.749031
    29  H    4.590972   2.319987   3.108798   3.185603   3.860971
    30  H    6.711116   4.606082   4.651549   4.792032   4.931399
    31  H    6.742847   5.061669   5.368591   4.412192   4.851390
    32  H    6.852702   4.779313   5.420921   4.903238   5.613116
                   26         27         28         29         30
    26  H    0.000000
    27  H    1.739726   0.000000
    28  H    3.066661   2.531332   0.000000
    29  H    2.511305   3.061458   1.744995   0.000000
    30  H    2.633689   3.097607   3.071902   2.517872   0.000000
    31  H    3.178335   2.575800   2.521432   3.068078   1.762901
    32  H    3.801754   3.757534   2.491575   2.482824   1.759966
                   31         32
    31  H    0.000000
    32  H    1.759631   0.000000
 Stoichiometry    C10H20O2
 Framework group  C1[X(C10H20O2)]
 Deg. of freedom    90
 Full point group                 C1      NOp   1
 Largest Abelian subgroup         C1      NOp   1
 Largest concise Abelian subgroup C1      NOp   1
                         Standard orientation:                         
 ---------------------------------------------------------------------
 Center     Atomic      Atomic             Coordinates (Angstroms)
 Number     Number       Type             X           Y           Z
 ---------------------------------------------------------------------
      1          8           0       -4.629865   -0.442877   -0.194141
      2          6           0       -3.617996    0.421847   -0.423891
      3          6           0       -2.417883   -0.244120   -1.090918
      4          6           0       -1.748903   -1.373548   -0.265013
      5          6           0       -1.221448   -0.965916    1.131042
      6          6           0       -0.202213    0.192754    1.145634
      7          6           0        1.095520   -0.096485    0.367249
      8          6           0        2.120335    1.048674    0.477457
      9          6           0        3.392994    0.842357   -0.367559
     10          6           0        4.274010   -0.334016    0.093591
     11          6           0        5.575517   -0.448454   -0.712639
     12          8           0       -3.672167    1.609830   -0.141972
     13          1           0       -5.306807    0.094720    0.217419
     14          1           0       -1.689810    0.531491   -1.327441
     15          1           0       -2.756287   -0.631684   -2.051096
     16          1           0       -2.455060   -2.198454   -0.147405
     17          1           0       -0.927933   -1.795194   -0.846969
     18          1           0       -2.065139   -0.697559    1.769101
     19          1           0       -0.772013   -1.839269    1.606873
     20          1           0       -0.670626    1.100455    0.761019
     21          1           0        0.049404    0.416180    2.183893
     22          1           0        1.534645   -1.023434    0.737964
     23          1           0        0.863214   -0.266086   -0.684937
     24          1           0        2.396923    1.197424    1.522850
     25          1           0        1.644789    1.979459    0.162872
     26          1           0        3.117382    0.708235   -1.415166
     27          1           0        3.982376    1.760364   -0.332828
     28          1           0        4.515771   -0.219424    1.151615
     29          1           0        3.722540   -1.271046    0.007114
     30          1           0        5.373096   -0.603220   -1.773154
     31          1           0        6.183087    0.452271   -0.616576
     32          1           0        6.177106   -1.289411   -0.365961
 ---------------------------------------------------------------------
 Rotational constants (GHZ):           2.2431902           0.2583926           0.2525212
 Standard basis: 6-31G(d,p) (6D, 7F)
 There are   280 symmetry adapted cartesian basis functions of A   symmetry.
 There are   280 symmetry adapted basis functions of A   symmetry.
   280 basis functions,   476 primitive gaussians,   280 cartesian basis functions
    48 alpha electrons       48 beta electrons
       nuclear repulsion energy       706.7448112885 Hartrees.
 NAtoms=   32 NActive=   32 NUniq=   32 SFac= 1.00D+00 NAtFMM=   60 NAOKFM=F Big=F
 Integral buffers will be    131072 words long.
 Raffenetti 2 integral format.
 Two-electron integral symmetry is turned on.
 Nuclear repulsion after empirical dispersion term =      706.6969196540 Hartrees.
 One-electron integrals computed using PRISM.
 NBasis=   280 RedAO= T EigKep=  2.95D-03  NBF=   280
 NBsUse=   280 1.00D-06 EigRej= -1.00D+00 NBFU=   280
 ExpMin= 1.61D-01 ExpMax= 5.48D+03 ExpMxC= 8.25D+02 IAcc=3 IRadAn=         5 AccDes= 0.00D+00
 Harris functional with IExCor=  402 and IRadAn=       5 diagonalized for initial guess.
 HarFok:  IExCor=  402 AccDes= 0.00D+00 IRadAn=         5 IDoV= 1 UseB2=F ITyADJ=14
 ICtDFT=  3500011 ScaDFX=  1.000000  1.000000  1.000000  1.000000
 FoFCou: FMM=F IPFlag=           0 FMFlag=      100000 FMFlg1=           0
         NFxFlg=           0 DoJE=T BraDBF=F KetDBF=T FulRan=T
         wScrn=  0.000000 ICntrl=       500 IOpCl=  0 I1Cent=   200000004 NGrid=           0
         NMat0=    1 NMatS0=      1 NMatT0=    0 NMatD0=    1 NMtDS0=    0 NMtDT0=    0
 Petite list used in FoFCou.
 Requested convergence on RMS density matrix=1.00D-08 within 128 cycles.
 Requested convergence on MAX density matrix=1.00D-06.
 Requested convergence on             energy=1.00D-06.
 No special actions if energy rises.
 Integral accuracy reduced to 1.0D-05 until final iterations.
 Initial convergence to 1.0D-05 achieved.  Increase integral accuracy.
 SCF Done:  E(RB3LYP) =  -543.665221149     A.U. after   13 cycles
            NFock= 13  Conv=0.87D-08     -V/T= 2.0096

 **********************************************************************

            Population analysis using the SCF Density.

 **********************************************************************

 Orbital symmetries:
       Occupied  (A) (A) (A) (A) (A) (A) (A) (A) (A) (A) (A) (A)
                 (A) (A) (A) (A) (A) (A) (A) (A) (A) (A) (A) (A)
                 (A) (A) (A) (A) (A) (A) (A) (A) (A) (A) (A) (A)
                 (A) (A) (A) (A) (A) (A) (A) (A) (A) (A) (A) (A)
       Virtual   (A) (A) (A) (A) (A) (A) (A) (A) (A) (A) (A) (A)
                 (A) (A) (A) (A) (A) (A) (A) (A) (A) (A) (A) (A)
                 (A) (A) (A) (A) (A) (A) (A) (A) (A) (A) (A) (A)
                 (A) (A) (A) (A) (A) (A) (A) (A) (A) (A) (A) (A)
                 (A) (A) (A) (A) (A) (A) (A) (A) (A) (A) (A) (A)
                 (A) (A) (A) (A) (A) (A) (A) (A) (A) (A) (A) (A)
                 (A) (A) (A) (A) (A) (A) (A) (A) (A) (A) (A) (A)
                 (A) (A) (A) (A) (A) (A) (A) (A) (A) (A) (A) (A)
                 (A) (A) (A) (A) (A) (A) (A) (A) (A) (A) (A) (A)
                 (A) (A) (A) (A) (A) (A) (A) (A) (A) (A) (A) (A)
                 (A) (A) (A) (A) (A) (A) (A) (A) (A) (A) (A) (A)
                 (A) (A) (A) (A) (A) (A) (A) (A) (A) (A) (A) (A)
                 (A) (A) (A) (A) (A) (A) (A) (A) (A) (A) (A) (A)
                 (A) (A) (A) (A) (A) (A) (A) (A) (A) (A) (A) (A)
                 (A) (A) (A) (A) (A) (A) (A) (A) (A) (A) (A) (A)
                 (A) (A) (A) (A) (A) (A) (A) (A) (A) (A) (A) (A)
                 (A) (A) (A) (A) (A) (A) (A) (A) (A) (A) (A) (A)
                 (A) (A) (A) (A) (A) (A) (A) (A) (A) (A) (A) (A)
                 (A) (A) (A) (A) (A) (A) (A) (A) (A) (A) (A) (A)
                 (A) (A) (A) (A)
 The electronic state is 1-A.
 Alpha  occ. eigenvalues --  -19.19959 -19.13719 -10.32060 -10.19902 -10.19102
 Alpha  occ. eigenvalues --  -10.18107 -10.17555 -10.17483 -10.17461 -10.17399
 Alpha  occ. eigenvalues --  -10.17371 -10.16923  -1.10788  -1.01095  -0.81228
 Alpha  occ. eigenvalues --   -0.79430  -0.76388  -0.72859  -0.68646  -0.64518
 Alpha  occ. eigenvalues --   -0.61353  -0.59918  -0.56647  -0.55792  -0.48656
 Alpha  occ. eigenvalues --   -0.48257  -0.46960  -0.46022  -0.45538  -0.44114
 Alpha  occ. eigenvalues --   -0.42517  -0.42196  -0.40534  -0.39652  -0.39098
 Alpha  occ. eigenvalues --   -0.38516  -0.37230  -0.36101  -0.35358  -0.34072
 Alpha  occ. eigenvalues --   -0.33685  -0.32699  -0.32229  -0.31631  -0.31480
 Alpha  occ. eigenvalues --   -0.30655  -0.30016  -0.26911
 Alpha virt. eigenvalues --    0.00735   0.07157   0.09200   0.10044   0.11219
 Alpha virt. eigenvalues --    0.11644   0.12666   0.13798   0.14288   0.14780
 Alpha virt. eigenvalues --    0.16166   0.16806   0.17309   0.18108   0.18664
 Alpha virt. eigenvalues --    0.18687   0.19254   0.20302   0.20552   0.21173
 Alpha virt. eigenvalues --    0.21626   0.22010   0.22427   0.23973   0.24979
 Alpha virt. eigenvalues --    0.25353   0.26309   0.27069   0.28562   0.30200
 Alpha virt. eigenvalues --    0.31316   0.37017   0.48912   0.49032   0.50435
 Alpha virt. eigenvalues --    0.51511   0.51941   0.53608   0.54751   0.55184
 Alpha virt. eigenvalues --    0.56515   0.57224   0.58615   0.61435   0.61883
 Alpha virt. eigenvalues --    0.63379   0.63822   0.65903   0.66106   0.67023
 Alpha virt. eigenvalues --    0.68795   0.69526   0.70550   0.71727   0.75066
 Alpha virt. eigenvalues --    0.75399   0.76743   0.78430   0.79130   0.81894
 Alpha virt. eigenvalues --    0.82831   0.84488   0.84785   0.85772   0.86596
 Alpha virt. eigenvalues --    0.87387   0.88744   0.89328   0.90041   0.90681
 Alpha virt. eigenvalues --    0.91118   0.91979   0.92387   0.93307   0.93672
 Alpha virt. eigenvalues --    0.95069   0.95201   0.95626   0.96309   0.96502
 Alpha virt. eigenvalues --    0.98043   0.99533   1.01137   1.02366   1.03964
 Alpha virt. eigenvalues --    1.06917   1.07230   1.08995   1.12430   1.15488
 Alpha virt. eigenvalues --    1.21367   1.27229   1.29664   1.30725   1.35719
 Alpha virt. eigenvalues --    1.36578   1.38596   1.41702   1.42414   1.45650
 Alpha virt. eigenvalues --    1.47416   1.50939   1.52536   1.56377   1.60462
 Alpha virt. eigenvalues --    1.60963   1.62632   1.62848   1.63590   1.67318
 Alpha virt. eigenvalues --    1.69874   1.70216   1.71990   1.74076   1.75269
 Alpha virt. eigenvalues --    1.76604   1.79061   1.79480   1.80819   1.81413
 Alpha virt. eigenvalues --    1.83452   1.84461   1.86467   1.87167   1.89264
 Alpha virt. eigenvalues --    1.90402   1.90694   1.92474   1.94368   1.95986
 Alpha virt. eigenvalues --    2.01269   2.02660   2.05692   2.06049   2.07691
 Alpha virt. eigenvalues --    2.08046   2.11195   2.12227   2.12800   2.14337
 Alpha virt. eigenvalues --    2.16160   2.16820   2.17608   2.18065   2.19911
 Alpha virt. eigenvalues --    2.23340   2.23994   2.24881   2.25334   2.26533
 Alpha virt. eigenvalues --    2.28187   2.28952   2.30134   2.31232   2.31827
 Alpha virt. eigenvalues --    2.34493   2.35086   2.37143   2.39989   2.40431
 Alpha virt. eigenvalues --    2.42398   2.43815   2.46212   2.47990   2.49750
 Alpha virt. eigenvalues --    2.51706   2.52395   2.54984   2.56607   2.58813
 Alpha virt. eigenvalues --    2.60327   2.60781   2.62766   2.63884   2.66527
 Alpha virt. eigenvalues --    2.68386   2.70552   2.71669   2.73617   2.75019
 Alpha virt. eigenvalues --    2.76496   2.77907   2.80582   2.81917   2.83527
 Alpha virt. eigenvalues --    2.84288   2.84875   2.86930   2.88146   2.89929
 Alpha virt. eigenvalues --    2.90445   2.91286   2.91881   2.91932   2.92592
 Alpha virt. eigenvalues --    2.92657   2.94839   2.97642   3.02251   3.11424
 Alpha virt. eigenvalues --    3.19746   3.25553   3.29394   3.31188   3.31692
 Alpha virt. eigenvalues --    3.32233   3.34309   3.35155   3.37398   3.39385
 Alpha virt. eigenvalues --    3.41597   3.44123   3.46031   3.48984   3.50936
 Alpha virt. eigenvalues --    3.53399   3.55354   3.57039   3.59369   3.60796
 Alpha virt. eigenvalues --    3.91695   4.12675   4.24512   4.29766   4.34619
 Alpha virt. eigenvalues --    4.43975   4.51584   4.58100   4.64907   4.66927
 Alpha virt. eigenvalues --    4.70078   4.76671
          Condensed to atoms (all electrons):
               1          2          3          4          5          6
     1  O    8.120679   0.245785  -0.099486   0.004723  -0.001353   0.000028
     2  C    0.245785   4.382055   0.345841  -0.030111  -0.000186  -0.001907
     3  C   -0.099486   0.345841   5.100906   0.338890  -0.047244  -0.001552
     4  C    0.004723  -0.030111   0.338890   4.917116   0.372691  -0.044634
     5  C   -0.001353  -0.000186  -0.047244   0.372691   4.930892   0.363009
     6  C    0.000028  -0.001907  -0.001552  -0.044634   0.363009   4.924206
     7  C   -0.000001   0.000113  -0.001735  -0.004021  -0.040336   0.373078
     8  C    0.000000  -0.000001   0.000006   0.000130   0.003553  -0.033882
     9  C   -0.000000   0.000000   0.000000   0.000002  -0.000127   0.003487
    10  C    0.000000   0.000000  -0.000000  -0.000000   0.000000   0.000169
    11  C    0.000000  -0.000000   0.000000  -0.000000  -0.000000  -0.000001
    12  O   -0.082498   0.565896  -0.072625   0.000160   0.001070  -0.000921
    13  H    0.268415  -0.009291   0.010880  -0.000357  -0.000054   0.000001
    14  H    0.003286  -0.033454   0.378716  -0.031311  -0.006487   0.003003
    15  H    0.001561  -0.025315   0.358527  -0.022854   0.004670  -0.000021
    16  H    0.004414  -0.007936  -0.035562   0.380246  -0.032609   0.004699
    17  H    0.000009   0.003819  -0.032537   0.381020  -0.040234  -0.006314
    18  H    0.001009   0.005856  -0.008178  -0.037627   0.375709  -0.032500
    19  H   -0.000010  -0.000013   0.005195  -0.033494   0.379594  -0.038064
    20  H    0.000017   0.000613   0.002355  -0.008619  -0.034826   0.382099
    21  H    0.000000   0.000022  -0.000039   0.005108  -0.032057   0.378881
    22  H    0.000000  -0.000004   0.000116  -0.001095  -0.002474  -0.039907
    23  H    0.000000   0.000030   0.000101   0.002673  -0.004909  -0.039065
    24  H   -0.000000   0.000000  -0.000001   0.000003  -0.000022  -0.003886
    25  H    0.000000  -0.000001   0.000005  -0.000019   0.000113  -0.004134
    26  H   -0.000000   0.000000  -0.000000  -0.000003  -0.000000   0.000050
    27  H    0.000000  -0.000000  -0.000000   0.000000   0.000002  -0.000135
    28  H    0.000000  -0.000000   0.000000  -0.000000  -0.000000  -0.000025
    29  H   -0.000000   0.000000  -0.000000   0.000001   0.000005  -0.000089
    30  H    0.000000  -0.000000   0.000000   0.000000   0.000000  -0.000000
    31  H    0.000000   0.000000  -0.000000   0.000000   0.000000   0.000000
    32  H    0.000000  -0.000000  -0.000000  -0.000000   0.000000  -0.000000
               7          8          9         10         11         12
     1  O   -0.000001   0.000000  -0.000000   0.000000   0.000000  -0.082498
     2  C    0.000113  -0.000001   0.000000   0.000000  -0.000000   0.565896
     3  C   -0.001735   0.000006   0.000000  -0.000000   0.000000  -0.072625
     4  C   -0.004021   0.000130   0.000002  -0.000000  -0.000000   0.000160
     5  C   -0.040336   0.003553  -0.000127   0.000000  -0.000000   0.001070
     6  C    0.373078  -0.033882   0.003487   0.000169  -0.000001  -0.000921
     7  C    4.903256   0.379638  -0.038829  -0.005303   0.000153   0.000008
     8  C    0.379638   4.905416   0.364705  -0.038932   0.003883   0.000000
     9  C   -0.038829   0.364705   4.901451   0.387119  -0.042149   0.000000
    10  C   -0.005303  -0.038932   0.387119   4.866716   0.369913   0.000000
    11  C    0.000153   0.003883  -0.042149   0.369913   4.917970   0.000000
    12  O    0.000008   0.000000   0.000000   0.000000   0.000000   8.043261
    13  H    0.000000  -0.000000  -0.000000  -0.000000  -0.000000   0.011333
    14  H    0.000358  -0.000051  -0.000003   0.000000  -0.000000   0.001006
    15  H    0.000009   0.000000   0.000000  -0.000000   0.000000   0.002045
    16  H    0.000055  -0.000002  -0.000000   0.000000  -0.000000   0.000005
    17  H    0.003336  -0.000111   0.000006   0.000001   0.000000  -0.000082
    18  H    0.004545  -0.000130   0.000002   0.000000   0.000000  -0.000285
    19  H   -0.006856   0.000036   0.000000  -0.000002   0.000000   0.000004
    20  H   -0.039023  -0.003522  -0.000006   0.000002   0.000000   0.003139
    21  H   -0.040185  -0.004138   0.000102  -0.000019  -0.000000   0.000002
    22  H    0.382875  -0.038587  -0.003859   0.002468  -0.000117  -0.000000
    23  H    0.382282  -0.040103  -0.003183  -0.000845  -0.000023  -0.000001
    24  H   -0.039892   0.381174  -0.037588  -0.007701   0.000058  -0.000000
    25  H   -0.040672   0.377751  -0.032118   0.004702  -0.000163  -0.000001
    26  H   -0.007926  -0.037390   0.380736  -0.040713  -0.003098   0.000000
    27  H    0.004620  -0.031207   0.376943  -0.041470  -0.004223   0.000000
    28  H   -0.000814  -0.003336  -0.040683   0.386466  -0.038495  -0.000000
    29  H    0.002482  -0.003938  -0.039165   0.387259  -0.038005   0.000000
    30  H   -0.000018   0.000083  -0.004668  -0.034761   0.387274  -0.000000
    31  H    0.000003   0.000013  -0.004927  -0.034639   0.387198   0.000000
    32  H    0.000002  -0.000159   0.004174  -0.027683   0.379088   0.000000
              13         14         15         16         17         18
     1  O    0.268415   0.003286   0.001561   0.004414   0.000009   0.001009
     2  C   -0.009291  -0.033454  -0.025315  -0.007936   0.003819   0.005856
     3  C    0.010880   0.378716   0.358527  -0.035562  -0.032537  -0.008178
     4  C   -0.000357  -0.031311  -0.022854   0.380246   0.381020  -0.037627
     5  C   -0.000054  -0.006487   0.004670  -0.032609  -0.040234   0.375709
     6  C    0.000001   0.003003  -0.000021   0.004699  -0.006314  -0.032500
     7  C    0.000000   0.000358   0.000009   0.000055   0.003336   0.004545
     8  C   -0.000000  -0.000051   0.000000  -0.000002  -0.000111  -0.000130
     9  C   -0.000000  -0.000003   0.000000  -0.000000   0.000006   0.000002
    10  C   -0.000000   0.000000  -0.000000   0.000000   0.000001   0.000000
    11  C   -0.000000  -0.000000   0.000000  -0.000000   0.000000   0.000000
    12  O    0.011333   0.001006   0.002045   0.000005  -0.000082  -0.000285
    13  H    0.401110  -0.000320  -0.000465  -0.000159   0.000016   0.000088
    14  H   -0.000320   0.583715  -0.033041   0.005265  -0.004630  -0.000120
    15  H   -0.000465  -0.033041   0.597512  -0.003861  -0.004478  -0.000031
    16  H   -0.000159   0.005265  -0.003861   0.619482  -0.036711  -0.004312
    17  H    0.000016  -0.004630  -0.004478  -0.036711   0.629975   0.006057
    18  H    0.000088  -0.000120  -0.000031  -0.004312   0.006057   0.639589
    19  H    0.000001   0.000015  -0.000133  -0.002924  -0.004295  -0.038259
    20  H   -0.000007   0.001225   0.000066  -0.000026  -0.000128  -0.003675
    21  H   -0.000000  -0.000070  -0.000001  -0.000149  -0.000011  -0.003793
    22  H   -0.000000  -0.000024  -0.000000  -0.000028   0.000588   0.000019
    23  H   -0.000000   0.001230  -0.000044  -0.000039   0.001575  -0.000040
    24  H    0.000000   0.000002  -0.000000   0.000000  -0.000000  -0.000004
    25  H   -0.000000   0.000025  -0.000000  -0.000000   0.000008   0.000003
    26  H    0.000000   0.000001  -0.000000   0.000000  -0.000002   0.000000
    27  H   -0.000000  -0.000000   0.000000   0.000000  -0.000000  -0.000000
    28  H    0.000000   0.000000   0.000000   0.000000  -0.000000  -0.000000
    29  H   -0.000000  -0.000000   0.000000   0.000000  -0.000000  -0.000000
    30  H   -0.000000   0.000000   0.000000  -0.000000  -0.000000  -0.000000
    31  H    0.000000   0.000000  -0.000000   0.000000  -0.000000  -0.000000
    32  H   -0.000000   0.000000   0.000000   0.000000  -0.000000  -0.000000
              19         20         21         22         23         24
     1  O   -0.000010   0.000017   0.000000   0.000000   0.000000  -0.000000
     2  C   -0.000013   0.000613   0.000022  -0.000004   0.000030   0.000000
     3  C    0.005195   0.002355  -0.000039   0.000116   0.000101  -0.000001
     4  C   -0.033494  -0.008619   0.005108  -0.001095   0.002673   0.000003
     5  C    0.379594  -0.034826  -0.032057  -0.002474  -0.004909  -0.000022
     6  C   -0.038064   0.382099   0.378881  -0.039907  -0.039065  -0.003886
     7  C   -0.006856  -0.039023  -0.040185   0.382875   0.382282  -0.039892
     8  C    0.000036  -0.003522  -0.004138  -0.038587  -0.040103   0.381174
     9  C    0.000000  -0.000006   0.000102  -0.003859  -0.003183  -0.037588
    10  C   -0.000002   0.000002  -0.000019   0.002468  -0.000845  -0.007701
    11  C    0.000000   0.000000  -0.000000  -0.000117  -0.000023   0.000058
    12  O    0.000004   0.003139   0.000002  -0.000000  -0.000001  -0.000000
    13  H    0.000001  -0.000007  -0.000000  -0.000000  -0.000000   0.000000
    14  H    0.000015   0.001225  -0.000070  -0.000024   0.001230   0.000002
    15  H   -0.000133   0.000066  -0.000001  -0.000000  -0.000044  -0.000000
    16  H   -0.002924  -0.000026  -0.000149  -0.000028  -0.000039   0.000000
    17  H   -0.004295  -0.000128  -0.000011   0.000588   0.001575  -0.000000
    18  H   -0.038259  -0.003675  -0.003793   0.000019  -0.000040  -0.000004
    19  H    0.639308   0.005788  -0.004262   0.005366  -0.000323   0.000001
    20  H    0.005788   0.620690  -0.038311   0.005869  -0.006419  -0.000505
    21  H   -0.004262  -0.038311   0.643407  -0.005585   0.006164   0.005107
    22  H    0.005366   0.005869  -0.005585   0.643359  -0.043169  -0.006210
    23  H   -0.000323  -0.006419   0.006164  -0.043169   0.648717   0.006150
    24  H    0.000001  -0.000505   0.005107  -0.006210   0.006150   0.645706
    25  H    0.000009   0.005033  -0.000611   0.006130  -0.005523  -0.040228
    26  H    0.000000   0.000003   0.000009  -0.000182   0.005848   0.006095
    27  H   -0.000000  -0.000005   0.000004  -0.000041   0.000046  -0.003039
    28  H    0.000000   0.000001   0.000000   0.000481   0.000085   0.005638
    29  H   -0.000003  -0.000001   0.000011   0.002093   0.000481  -0.000194
    30  H    0.000000   0.000000  -0.000000   0.000009   0.000001   0.000008
    31  H   -0.000000  -0.000000   0.000000  -0.000000   0.000000   0.000001
    32  H   -0.000000   0.000000   0.000000   0.000007  -0.000000  -0.000001
              25         26         27         28         29         30
     1  O    0.000000  -0.000000   0.000000   0.000000  -0.000000   0.000000
     2  C   -0.000001   0.000000  -0.000000  -0.000000   0.000000  -0.000000
     3  C    0.000005  -0.000000  -0.000000   0.000000  -0.000000   0.000000
     4  C   -0.000019  -0.000003   0.000000  -0.000000   0.000001   0.000000
     5  C    0.000113  -0.000000   0.000002  -0.000000   0.000005   0.000000
     6  C   -0.004134   0.000050  -0.000135  -0.000025  -0.000089  -0.000000
     7  C   -0.040672  -0.007926   0.004620  -0.000814   0.002482  -0.000018
     8  C    0.377751  -0.037390  -0.031207  -0.003336  -0.003938   0.000083
     9  C   -0.032118   0.380736   0.376943  -0.040683  -0.039165  -0.004668
    10  C    0.004702  -0.040713  -0.041470   0.386466   0.387259  -0.034761
    11  C   -0.000163  -0.003098  -0.004223  -0.038495  -0.038005   0.387274
    12  O   -0.000001   0.000000   0.000000  -0.000000   0.000000  -0.000000
    13  H   -0.000000   0.000000  -0.000000   0.000000  -0.000000  -0.000000
    14  H    0.000025   0.000001  -0.000000   0.000000  -0.000000   0.000000
    15  H   -0.000000  -0.000000   0.000000   0.000000   0.000000   0.000000
    16  H   -0.000000   0.000000   0.000000   0.000000   0.000000  -0.000000
    17  H    0.000008  -0.000002  -0.000000  -0.000000  -0.000000  -0.000000
    18  H    0.000003   0.000000  -0.000000  -0.000000  -0.000000  -0.000000
    19  H    0.000009   0.000000  -0.000000   0.000000  -0.000003   0.000000
    20  H    0.005033   0.000003  -0.000005   0.000001  -0.000001   0.000000
    21  H   -0.000611   0.000009   0.000004   0.000000   0.000011  -0.000000
    22  H    0.006130  -0.000182  -0.000041   0.000481   0.002093   0.000009
    23  H   -0.005523   0.005848   0.000046   0.000085   0.000481   0.000001
    24  H   -0.040228   0.006095  -0.003039   0.005638  -0.000194   0.000008
    25  H    0.647495  -0.003086  -0.004664   0.000042  -0.000042   0.000003
    26  H   -0.003086   0.649438  -0.040931   0.006157  -0.006245   0.004621
    27  H   -0.004664  -0.040931   0.651529  -0.005450   0.006160  -0.000487
    28  H    0.000042   0.006157  -0.005450   0.642443  -0.041629   0.005505
    29  H   -0.000042  -0.006245   0.006160  -0.041629   0.638477  -0.005067
    30  H    0.000003   0.004621  -0.000487   0.005505  -0.005067   0.611974
    31  H   -0.000006  -0.000457   0.005209  -0.005036   0.005431  -0.033708
    32  H    0.000003  -0.000045   0.000011  -0.003112  -0.003047  -0.032639
              31         32
     1  O    0.000000   0.000000
     2  C    0.000000  -0.000000
     3  C   -0.000000  -0.000000
     4  C    0.000000  -0.000000
     5  C    0.000000   0.000000
     6  C    0.000000  -0.000000
     7  C    0.000003   0.000002
     8  C    0.000013  -0.000159
     9  C   -0.004927   0.004174
    10  C   -0.034639  -0.027683
    11  C    0.387198   0.379088
    12  O    0.000000   0.000000
    13  H    0.000000  -0.000000
    14  H    0.000000   0.000000
    15  H   -0.000000   0.000000
    16  H    0.000000   0.000000
    17  H   -0.000000  -0.000000
    18  H   -0.000000  -0.000000
    19  H   -0.000000  -0.000000
    20  H   -0.000000   0.000000
    21  H    0.000000   0.000000
    22  H   -0.000000   0.000007
    23  H    0.000000  -0.000000
    24  H    0.000001  -0.000001
    25  H   -0.000006   0.000003
    26  H   -0.000457  -0.000045
    27  H    0.005209   0.000011
    28  H   -0.005036  -0.003112
    29  H    0.005431  -0.003047
    30  H   -0.033708  -0.032639
    31  H    0.611115  -0.032663
    32  H   -0.032663   0.617792
 Mulliken charges:
               1
     1  O   -0.466579
     2  C    0.558187
     3  C   -0.242580
     4  C   -0.188620
     5  C   -0.188389
     6  C   -0.185673
     7  C   -0.171202
     8  C   -0.180901
     9  C   -0.171423
    10  C   -0.172746
    11  C   -0.319262
    12  O   -0.471517
    13  H    0.318809
    14  H    0.131664
    15  H    0.125854
    16  H    0.110149
    17  H    0.103125
    18  H    0.096078
    19  H    0.093320
    20  H    0.108173
    21  H    0.090411
    22  H    0.091901
    23  H    0.088304
    24  H    0.089327
    25  H    0.089945
    26  H    0.087118
    27  H    0.087128
    28  H    0.091762
    29  H    0.095026
    30  H    0.101871
    31  H    0.102466
    32  H    0.098273
 Sum of Mulliken charges =  -0.00000
 Mulliken charges with hydrogens summed into heavy atoms:
               1
     1  O   -0.147770
     2  C    0.558187
     3  C    0.014938
     4  C    0.024653
     5  C    0.001008
     6  C    0.012911
     7  C    0.009003
     8  C   -0.001628
     9  C    0.002824
    10  C    0.014043
    11  C   -0.016651
    12  O   -0.471517
 Electronic spatial extent (au):  <R**2>=           4411.9533
 Charge=             -0.0000 electrons
 Dipole moment (field-independent basis, Debye):
    X=              0.0514    Y=             -1.6110    Z=             -0.1057  Tot=              1.6153
 Quadrupole moment (field-independent basis, Debye-Ang):
   XX=            -72.3119   YY=            -81.4085   ZZ=            -74.3678
   XY=              4.5010   XZ=             -0.4048   YZ=              0.0499
 Traceless Quadrupole moment (field-independent basis, Debye-Ang):
   XX=              3.7175   YY=             -5.3791   ZZ=              1.6616
   XY=              4.5010   XZ=             -0.4048   YZ=              0.0499
 Octapole moment (field-independent basis, Debye-Ang**2):
  XXX=            -96.6305  YYY=             -5.7172  ZZZ=             -3.3518  XYY=              9.3060
  XXY=             -6.4861  XXZ=             13.1638  XZZ=            -17.5124  YZZ=              0.9769
  YYZ=             -0.0341  XYZ=              0.0802
 Hexadecapole moment (field-independent basis, Debye-Ang**3):
 XXXX=          -4549.7617 YYYY=           -465.2301 ZZZZ=           -350.6967 XXXY=             -4.9077
 XXXZ=            -42.5918 YYYX=             19.8085 YYYZ=             -1.3535 ZZZX=             13.8755
 ZZZY=              2.1553 XXYY=           -975.2239 XXZZ=           -870.7343 YYZZ=           -136.4886
 XXYZ=             -2.1887 YYXZ=              1.6832 ZZXY=             -5.4161
 N-N= 7.066969196540D+02 E-N=-2.676664282533D+03  KE= 5.384777062947D+02
 Calling FoFJK, ICntrl=      2127 FMM=F ISym2X=0 I1Cent= 0 IOpClX= 0 NMat=1 NMatS=1 NMatT=0.
 ***** Axes restored to original set *****
 -------------------------------------------------------------------
 Center     Atomic                   Forces (Hartrees/Bohr)
 Number     Number              X              Y              Z
 -------------------------------------------------------------------
      1        8          -0.009740521   -0.004413775   -0.003948498
      2        6          -0.006695637    0.002936884   -0.022291682
      3        6           0.003732244   -0.005007609   -0.002045252
      4        6           0.004149143   -0.001210204    0.001108426
      5        6          -0.001929495    0.008233593   -0.003111790
      6        6          -0.006190505   -0.001936836    0.004048869
      7        6           0.008944772    0.002631044   -0.004588992
      8        6          -0.007790149    0.000675673    0.004666458
      9        6           0.006180552   -0.007594867    0.002283834
     10        6          -0.005056456    0.007277425   -0.003241022
     11        6           0.004110179   -0.001423133    0.002827634
     12        8          -0.005507487   -0.008705191    0.014450115
     13        1           0.014876764    0.005325457    0.005259783
     14        1           0.004121203    0.000914369   -0.002131753
     15        1          -0.002995740   -0.000943281    0.005559360
     16        1           0.002672070    0.000470986    0.002330350
     17        1          -0.003362932    0.002479724   -0.002642781
     18        1           0.003855788    0.002317769    0.001343667
     19        1          -0.003090507   -0.003174504    0.001240589
     20        1           0.000110818    0.004039039   -0.000193619
     21        1           0.002318004   -0.002999899   -0.001487685
     22        1          -0.001136251   -0.004075571    0.001199505
     23        1          -0.003566851    0.002820319    0.001227391
     24        1           0.002439194   -0.003784598   -0.001101778
     25        1           0.001518909    0.004025020    0.000256179
     26        1          -0.003259038    0.002030324    0.002879047
     27        1           0.000107440    0.000258143   -0.004417447
     28        1           0.003781524   -0.001717594   -0.001617340
     29        1          -0.000036836   -0.000559919    0.003883575
     30        1          -0.001884102    0.002378645    0.001110258
     31        1           0.000649723    0.001375535   -0.002850360
     32        1          -0.001325819   -0.002642968   -0.000005041
 -------------------------------------------------------------------
 Cartesian Forces:  Max     0.022291682 RMS     0.004840078

 GradGradGradGradGradGradGradGradGradGradGradGradGradGradGradGradGradGrad
 Berny optimization.
 FormGI is forming the generalized inverse of G from B-inverse, IUseBI=4.
 Internal  Forces:  Max     0.016757035 RMS     0.003041855
 Search for a local minimum.
 Step number   1 out of a maximum of  179
 All quantities printed in internal units (Hartrees-Bohrs-Radians)
 Mixed Optimization -- RFO/linear search
 Second derivative matrix not updated -- first step.
 ITU=  0
     Eigenvalues ---    0.00230   0.00230   0.00230   0.00230   0.00230
     Eigenvalues ---    0.00230   0.00232   0.00300   0.00422   0.00897
     Eigenvalues ---    0.02344   0.03074   0.03115   0.03229   0.03246
     Eigenvalues ---    0.03248   0.03417   0.03440   0.03678   0.04627
     Eigenvalues ---    0.04644   0.04678   0.04687   0.04688   0.04730
     Eigenvalues ---    0.04749   0.05156   0.05408   0.05464   0.08274
     Eigenvalues ---    0.08299   0.08562   0.08564   0.08580   0.08806
     Eigenvalues ---    0.08870   0.09794   0.12175   0.12188   0.12386
     Eigenvalues ---    0.12387   0.12400   0.12554   0.12598   0.13091
     Eigenvalues ---    0.16000   0.16000   0.16000   0.16000   0.21891
     Eigenvalues ---    0.21894   0.21896   0.21902   0.21909   0.21909
     Eigenvalues ---    0.21915   0.21947   0.24998   0.25000   0.27576
     Eigenvalues ---    0.27904   0.28234   0.28385   0.28456   0.28460
     Eigenvalues ---    0.28487   0.28943   0.29795   0.34557   0.34634
     Eigenvalues ---    0.34635   0.34637   0.34643   0.34646   0.34648
     Eigenvalues ---    0.34651   0.34660   0.34662   0.34688   0.34721
     Eigenvalues ---    0.34729   0.34732   0.34732   0.34739   0.34749
     Eigenvalues ---    0.34839   0.34889   0.54871   0.56033   0.94425
 RFO step:  Lambda=-5.90613905D-03 EMin= 2.30000000D-03
 Linear search not attempted -- first point.
 Iteration  1 RMS(Cart)=  0.08450186 RMS(Int)=  0.00098502
 Iteration  2 RMS(Cart)=  0.00286686 RMS(Int)=  0.00020419
 Iteration  3 RMS(Cart)=  0.00000330 RMS(Int)=  0.00020418
 Iteration  4 RMS(Cart)=  0.00000000 RMS(Int)=  0.00020418
 Variable       Old X    -DE/DX   Delta X   Delta X   Delta X     New X
                                 (Linear)    (Quad)   (Total)
    R1        2.55247   0.00235   0.00000   0.00423   0.00423   2.55670
    R2        1.80925   0.01620   0.00000   0.02862   0.02862   1.83787
    R3        2.88374  -0.00967   0.00000  -0.03182  -0.03182   2.85192
    R4        2.30958  -0.01676   0.00000  -0.01764  -0.01764   2.29194
    R5        2.93076  -0.00967   0.00000  -0.03432  -0.03432   2.89643
    R6        2.05937   0.00137   0.00000   0.00386   0.00386   2.06324
    R7        2.05856   0.00485   0.00000   0.01367   0.01367   2.07222
    R8        2.92349  -0.00765   0.00000  -0.02684  -0.02684   2.89665
    R9        2.06401   0.00238   0.00000   0.00676   0.00676   2.07077
   R10        2.06184   0.00317   0.00000   0.00898   0.00898   2.07082
   R11        2.91629  -0.00464   0.00000  -0.01610  -0.01610   2.90018
   R12        2.06227   0.00435   0.00000   0.01235   0.01235   2.07462
   R13        2.06245   0.00386   0.00000   0.01096   0.01096   2.07340
   R14        2.91144  -0.00463   0.00000  -0.01593  -0.01593   2.89551
   R15        2.06254   0.00388   0.00000   0.01102   0.01102   2.07356
   R16        2.06250   0.00397   0.00000   0.01126   0.01126   2.07375
   R17        2.91152  -0.00460   0.00000  -0.01583  -0.01583   2.89568
   R18        2.06101   0.00438   0.00000   0.01241   0.01241   2.07342
   R19        2.06130   0.00465   0.00000   0.01318   0.01318   2.07447
   R20        2.91305  -0.00322   0.00000  -0.01111  -0.01111   2.90194
   R21        2.06273   0.00443   0.00000   0.01257   0.01257   2.07530
   R22        2.06272   0.00418   0.00000   0.01187   0.01187   2.07459
   R23        2.91085  -0.00444   0.00000  -0.01527  -0.01527   2.89559
   R24        2.06269   0.00461   0.00000   0.01308   0.01308   2.07577
   R25        2.06259   0.00430   0.00000   0.01219   0.01219   2.07478
   R26        2.90122  -0.00185   0.00000  -0.00627  -0.00627   2.89495
   R27        2.06231   0.00425   0.00000   0.01205   0.01205   2.07436
   R28        2.06112   0.00384   0.00000   0.01087   0.01087   2.07200
   R29        2.06112   0.00317   0.00000   0.00898   0.00898   2.07010
   R30        2.06117   0.00315   0.00000   0.00891   0.00891   2.07008
   R31        2.06085   0.00294   0.00000   0.00831   0.00831   2.06915
    A1        1.81658   0.00695   0.00000   0.04190   0.04190   1.85848
    A2        1.96504  -0.00100   0.00000  -0.00356  -0.00434   1.96070
    A3        2.15298  -0.00615   0.00000  -0.02368  -0.02444   2.12854
    A4        2.16504   0.00716   0.00000   0.02831   0.02749   2.19254
    A5        2.00895  -0.00608   0.00000  -0.03621  -0.03653   1.97243
    A6        1.88566  -0.00123   0.00000  -0.02432  -0.02434   1.86132
    A7        1.87155   0.00397   0.00000   0.02003   0.01977   1.89132
    A8        1.92378   0.00392   0.00000   0.02034   0.01968   1.94347
    A9        1.92229  -0.00129   0.00000  -0.01200  -0.01207   1.91022
   A10        1.84362   0.00130   0.00000   0.03836   0.03839   1.88202
   A11        2.02166  -0.00763   0.00000  -0.04254  -0.04281   1.97885
   A12        1.90548   0.00252   0.00000   0.00626   0.00615   1.91163
   A13        1.89859  -0.00025   0.00000  -0.01584  -0.01571   1.88288
   A14        1.89892   0.00157   0.00000   0.00422   0.00386   1.90278
   A15        1.90351   0.00423   0.00000   0.02343   0.02273   1.92623
   A16        1.82558   0.00034   0.00000   0.03218   0.03196   1.85754
   A17        2.01700  -0.00222   0.00000  -0.01449  -0.01455   2.00245
   A18        1.90585   0.00065   0.00000  -0.00107  -0.00110   1.90475
   A19        1.89967  -0.00094   0.00000  -0.01240  -0.01235   1.88733
   A20        1.89699   0.00023   0.00000  -0.00078  -0.00089   1.89611
   A21        1.90150   0.00190   0.00000   0.01274   0.01260   1.91410
   A22        1.83406   0.00065   0.00000   0.01936   0.01932   1.85337
   A23        1.99389  -0.00024   0.00000  -0.00334  -0.00337   1.99052
   A24        1.91519   0.00004   0.00000  -0.00314  -0.00319   1.91201
   A25        1.89120  -0.00005   0.00000   0.00133   0.00133   1.89254
   A26        1.91728  -0.00040   0.00000  -0.00672  -0.00675   1.91053
   A27        1.90166   0.00021   0.00000   0.00312   0.00313   1.90478
   A28        1.83788   0.00051   0.00000   0.01009   0.01010   1.84798
   A29        1.96557  -0.00021   0.00000  -0.00101  -0.00101   1.96456
   A30        1.90390  -0.00026   0.00000  -0.00140  -0.00140   1.90249
   A31        1.91468   0.00062   0.00000   0.00454   0.00454   1.91922
   A32        1.91727   0.00043   0.00000   0.00317   0.00317   1.92044
   A33        1.90310  -0.00054   0.00000  -0.00535  -0.00535   1.89776
   A34        1.85613  -0.00003   0.00000   0.00015   0.00016   1.85628
   A35        1.99375   0.00019   0.00000  -0.00100  -0.00104   1.99271
   A36        1.91595  -0.00061   0.00000  -0.01043  -0.01047   1.90548
   A37        1.90012  -0.00053   0.00000  -0.00175  -0.00175   1.89837
   A38        1.91138  -0.00015   0.00000  -0.00433  -0.00439   1.90699
   A39        1.89212   0.00065   0.00000   0.01006   0.01006   1.90218
   A40        1.84440   0.00051   0.00000   0.00856   0.00856   1.85296
   A41        1.99358   0.00064   0.00000   0.00116   0.00113   1.99472
   A42        1.91144  -0.00026   0.00000  -0.00447  -0.00451   1.90693
   A43        1.89209   0.00049   0.00000   0.00922   0.00922   1.90131
   A44        1.91549  -0.00077   0.00000  -0.01101  -0.01104   1.90446
   A45        1.90070  -0.00066   0.00000  -0.00240  -0.00242   1.89828
   A46        1.84443   0.00059   0.00000   0.00842   0.00842   1.85285
   A47        1.96555   0.00043   0.00000   0.00167   0.00168   1.96723
   A48        1.91427  -0.00107   0.00000  -0.01128  -0.01129   1.90298
   A49        1.92110  -0.00048   0.00000  -0.00435  -0.00436   1.91673
   A50        1.90619   0.00062   0.00000   0.00622   0.00622   1.91241
   A51        1.89965   0.00029   0.00000   0.00594   0.00594   1.90558
   A52        1.85364   0.00021   0.00000   0.00200   0.00193   1.85557
   A53        1.94320  -0.00058   0.00000  -0.00485  -0.00488   1.93833
   A54        1.94380  -0.00068   0.00000  -0.00516  -0.00518   1.93862
   A55        1.93712   0.00087   0.00000   0.00766   0.00766   1.94479
   A56        1.88199   0.00013   0.00000  -0.00367  -0.00372   1.87827
   A57        1.87764   0.00009   0.00000   0.00257   0.00257   1.88021
   A58        1.87709   0.00020   0.00000   0.00369   0.00370   1.88079
    D1       -3.13921  -0.00064   0.00000  -0.03793  -0.03699   3.10699
    D2       -0.01371   0.00053   0.00000   0.03398   0.03303   0.01932
    D3       -1.07651   0.00149   0.00000   0.04674   0.04745  -1.02907
    D4        3.04859   0.00159   0.00000   0.06454   0.06445   3.11304
    D5        1.06877  -0.00126   0.00000   0.02206   0.02231   1.09108
    D6        2.08130   0.00045   0.00000  -0.02519  -0.02506   2.05623
    D7       -0.07678   0.00055   0.00000  -0.00739  -0.00806  -0.08484
    D8       -2.05661  -0.00230   0.00000  -0.04987  -0.05019  -2.10680
    D9       -1.02056   0.00170   0.00000   0.05011   0.05051  -0.97006
   D10        1.12953   0.00024   0.00000   0.02961   0.02990   1.15942
   D11        3.11197   0.00182   0.00000   0.06252   0.06248  -3.10874
   D12        1.11720  -0.00130   0.00000   0.00729   0.00736   1.12456
   D13       -3.01589  -0.00276   0.00000  -0.01320  -0.01325  -3.02915
   D14       -1.03346  -0.00118   0.00000   0.01971   0.01933  -1.01413
   D15       -3.13852   0.00183   0.00000   0.05891   0.05901  -3.07950
   D16       -0.98843   0.00036   0.00000   0.03842   0.03840  -0.95002
   D17        0.99401   0.00195   0.00000   0.07133   0.07098   1.06500
   D18       -0.99091   0.00112   0.00000   0.04170   0.04190  -0.94901
   D19        1.15353   0.00033   0.00000   0.02934   0.02953   1.18306
   D20       -3.13642   0.00095   0.00000   0.04507   0.04518  -3.09125
   D21        3.13874   0.00205   0.00000   0.06092   0.06102  -3.08342
   D22       -1.00000   0.00126   0.00000   0.04855   0.04865  -0.95135
   D23        0.99323   0.00188   0.00000   0.06429   0.06430   1.05753
   D24        1.15716  -0.00138   0.00000   0.00851   0.00831   1.16547
   D25       -2.98158  -0.00217   0.00000  -0.00385  -0.00406  -2.98564
   D26       -0.98835  -0.00155   0.00000   0.01188   0.01158  -0.97677
   D27       -1.06937   0.00068   0.00000   0.02698   0.02702  -1.04234
   D28        1.09241   0.00000   0.00000   0.01321   0.01326   1.10567
   D29        3.09054   0.00060   0.00000   0.02424   0.02429   3.11483
   D30        3.06469   0.00122   0.00000   0.03939   0.03940   3.10409
   D31       -1.05671   0.00055   0.00000   0.02561   0.02563  -1.03108
   D32        0.94142   0.00115   0.00000   0.03665   0.03666   0.97808
   D33        1.07518  -0.00066   0.00000   0.01029   0.01022   1.08540
   D34       -3.04623  -0.00133   0.00000  -0.00349  -0.00354  -3.04977
   D35       -1.04810  -0.00073   0.00000   0.00755   0.00749  -1.04061
   D36       -3.08060  -0.00032   0.00000  -0.00568  -0.00567  -3.08627
   D37       -0.94715  -0.00009   0.00000  -0.00332  -0.00331  -0.95045
   D38        1.07956   0.00007   0.00000  -0.00139  -0.00137   1.07818
   D39        1.04193   0.00012   0.00000   0.00619   0.00617   1.04810
   D40       -3.10781   0.00035   0.00000   0.00855   0.00854  -3.09927
   D41       -1.08111   0.00051   0.00000   0.01049   0.01048  -1.07063
   D42       -0.96308  -0.00039   0.00000  -0.00394  -0.00394  -0.96702
   D43        1.17037  -0.00016   0.00000  -0.00158  -0.00157   1.16879
   D44       -3.08612   0.00000   0.00000   0.00036   0.00036  -3.08576
   D45       -3.07065  -0.00051   0.00000  -0.00952  -0.00951  -3.08016
   D46        1.05805   0.00003   0.00000   0.00502   0.00500   1.06305
   D47       -0.95318   0.00005   0.00000   0.00147   0.00147  -0.95171
   D48        1.08665  -0.00036   0.00000  -0.00930  -0.00929   1.07736
   D49       -1.06785   0.00019   0.00000   0.00524   0.00522  -1.06262
   D50       -3.07907   0.00021   0.00000   0.00169   0.00169  -3.07738
   D51       -0.94106  -0.00025   0.00000  -0.00820  -0.00818  -0.94924
   D52       -3.09555   0.00029   0.00000   0.00634   0.00632  -3.08923
   D53        1.17641   0.00032   0.00000   0.00279   0.00279   1.17920
   D54       -1.15724   0.00054   0.00000   0.02411   0.02411  -1.13312
   D55        0.99905  -0.00021   0.00000   0.00702   0.00702   1.00607
   D56        3.00345   0.00061   0.00000   0.01966   0.01965   3.02311
   D57        0.99972  -0.00025   0.00000   0.00631   0.00632   1.00603
   D58       -3.12718  -0.00100   0.00000  -0.01078  -0.01078  -3.13796
   D59       -1.12278  -0.00018   0.00000   0.00186   0.00186  -1.12092
   D60        3.00407   0.00063   0.00000   0.01965   0.01965   3.02371
   D61       -1.12283  -0.00013   0.00000   0.00256   0.00256  -1.12028
   D62        0.88157   0.00069   0.00000   0.01520   0.01519   0.89676
   D63       -3.07482  -0.00038   0.00000  -0.01040  -0.01039  -3.08521
   D64       -0.94814  -0.00006   0.00000  -0.00934  -0.00934  -0.95749
   D65        1.08520  -0.00071   0.00000  -0.01606  -0.01603   1.06917
   D66        1.05426   0.00010   0.00000   0.00318   0.00317   1.05743
   D67       -3.10225   0.00042   0.00000   0.00424   0.00422  -3.09803
   D68       -1.06890  -0.00023   0.00000  -0.00248  -0.00247  -1.07137
   D69       -0.95707   0.00019   0.00000   0.00048   0.00048  -0.95660
   D70        1.16960   0.00051   0.00000   0.00154   0.00152   1.17113
   D71       -3.08024  -0.00014   0.00000  -0.00517  -0.00516  -3.08540
   D72       -1.04868   0.00016   0.00000   0.00253   0.00251  -1.04616
   D73        1.05251  -0.00053   0.00000  -0.00898  -0.00897   1.04354
   D74       -3.13983  -0.00015   0.00000  -0.00261  -0.00261   3.14074
   D75        3.10327   0.00080   0.00000   0.01137   0.01137   3.11463
   D76       -1.07874   0.00011   0.00000  -0.00014  -0.00011  -1.07885
   D77        1.01212   0.00049   0.00000   0.00623   0.00624   1.01836
   D78        1.08662   0.00004   0.00000   0.00233   0.00231   1.08892
   D79       -3.09539  -0.00065   0.00000  -0.00918  -0.00917  -3.10456
   D80       -1.00453  -0.00027   0.00000  -0.00281  -0.00282  -1.00735
         Item               Value     Threshold  Converged?
 Maximum Force            0.016757     0.000450     NO 
 RMS     Force            0.003042     0.000300     NO 
 Maximum Displacement     0.378623     0.001800     NO 
 RMS     Displacement     0.085488     0.001200     NO 
 Predicted change in Energy=-3.175913D-03
 GradGradGradGradGradGradGradGradGradGradGradGradGradGradGradGradGradGrad

                          Input orientation:                          
 ---------------------------------------------------------------------
 Center     Atomic      Atomic             Coordinates (Angstroms)
 Number     Number       Type             X           Y           Z
 ---------------------------------------------------------------------
      1          8           0        5.028975   -0.485645    1.082981
      2          6           0        4.624796   -0.214946   -0.179486
      3          6           0        3.235316   -0.732666   -0.460403
      4          6           0        3.110389   -2.248180   -0.268400
      5          6           0        4.115086   -3.051757   -1.101739
      6          6           0        4.093497   -2.744394   -2.605201
      7          6           0        2.742925   -3.011485   -3.277786
      8          6           0        2.780862   -2.767653   -4.790115
      9          6           0        1.424834   -2.941936   -5.489409
     10          6           0        0.873368   -4.370937   -5.447986
     11          6           0       -0.439855   -4.520885   -6.222463
     12          8           0        5.351122    0.330896   -0.982915
     13          1           0        5.937197   -0.146574    1.160641
     14          1           0        2.993731   -0.440418   -1.484266
     15          1           0        2.533933   -0.220758    0.209288
     16          1           0        3.245846   -2.495651    0.790467
     17          1           0        2.084862   -2.536486   -0.525340
     18          1           0        5.127914   -2.867310   -0.720408
     19          1           0        3.916895   -4.118721   -0.940024
     20          1           0        4.383973   -1.699253   -2.770518
     21          1           0        4.865461   -3.351646   -3.094655
     22          1           0        2.439178   -4.045386   -3.071265
     23          1           0        1.970629   -2.368306   -2.836234
     24          1           0        3.513774   -3.446237   -5.246629
     25          1           0        3.149799   -1.750292   -4.974723
     26          1           0        0.692737   -2.260501   -5.035240
     27          1           0        1.522113   -2.631185   -6.537937
     28          1           0        1.624389   -5.056586   -5.861279
     29          1           0        0.715085   -4.678345   -4.407479
     30          1           0       -1.216000   -3.865942   -5.811785
     31          1           0       -0.307382   -4.256961   -7.277349
     32          1           0       -0.814249   -5.548955   -6.179841
 ---------------------------------------------------------------------
                    Distance matrix (angstroms):
                    1          2          3          4          5
     1  O    0.000000
     2  C    1.352946   0.000000
     3  C    2.379131   1.509173   0.000000
     4  C    2.934915   2.536804   1.532727   0.000000
     5  C    3.491866   3.026195   2.561931   1.532843   0.000000
     6  C    4.424901   3.544641   3.063279   2.583286   1.534711
     7  C    5.533731   4.578377   3.656926   3.126351   2.572865
     8  C    6.689905   5.583396   4.805632   4.563370   3.932555
     9  C    7.887934   6.772851   5.783564   5.530039   5.147929
[...]
 Alpha virt. eigenvalues --    3.99278   4.01753   4.02052   4.04131   4.06600
 Alpha virt. eigenvalues --    4.08643   4.13563   4.15280   4.16958   4.17104
 Alpha virt. eigenvalues --    4.20016   4.24281   4.28971   4.31006   4.32923
 Alpha virt. eigenvalues --    4.33724   4.35384   4.39343   4.41116   4.43911
 Alpha virt. eigenvalues --    4.46848   4.48848   4.49772   4.53159   4.54049
 Alpha virt. eigenvalues --    4.56610   4.58443   4.60301   4.61706   4.63863
 Alpha virt. eigenvalues --    4.65674   4.67855   4.68929   4.71213   4.73780
 Alpha virt. eigenvalues --    4.77804   4.78567   4.82488   4.84188   4.87955
 Alpha virt. eigenvalues --    4.91506   5.07341   5.15153   5.17012   5.21001
 Alpha virt. eigenvalues --    5.22608   5.39175   5.39976   5.51013   5.59395
 Alpha virt. eigenvalues --    5.73430   5.84794   5.87288   6.15698   6.19322
 Alpha virt. eigenvalues --    6.33427   6.34227   6.45625   6.48599   6.63947
 Alpha virt. eigenvalues --    6.69585   6.73700   6.82712   6.88153   7.07229
 Alpha virt. eigenvalues --    7.08940   7.27707  22.41179  22.49213  22.52319
 Alpha virt. eigenvalues --   22.59477  22.59765  22.60173  22.62187  22.64266
 Alpha virt. eigenvalues --   22.68168  23.28567  43.96406  44.01014
          Condensed to atoms (all electrons):
               1          2          3          4          5          6
     1  O    7.954643   0.352940  -0.114405   0.011602  -0.010238   0.001648
     2  C    0.352940   4.520916   0.245900  -0.029624   0.016945   0.003635
     3  C   -0.114405   0.245900   5.369589   0.168648  -0.057988   0.032897
     4  C    0.011602  -0.029624   0.168648   5.316477   0.204288  -0.074622
     5  C   -0.010238   0.016945  -0.057988   0.204288   5.288875   0.180052
     6  C    0.001648   0.003635   0.032897  -0.074622   0.180052   5.386422
     7  C   -0.000139  -0.002871  -0.007049   0.033349  -0.040168   0.122848
     8  C    0.000002   0.000365  -0.000581  -0.002137   0.010516  -0.029862
     9  C   -0.000000  -0.000021   0.000186   0.000143  -0.001140   0.006343
    10  C   -0.000000   0.000001  -0.000042   0.000119  -0.000012   0.000252
    11  C   -0.000000  -0.000000   0.000001  -0.000000  -0.000000   0.000002
    12  O   -0.090827   0.652262  -0.091998  -0.001398   0.005666  -0.007373
    13  H    0.287794  -0.024161   0.016505  -0.001699   0.000540  -0.000053
    14  H    0.004483  -0.049954   0.426560  -0.023220  -0.011267   0.001232
    15  H    0.003331  -0.020686   0.402600  -0.043505   0.010100  -0.001195
    16  H    0.003984  -0.007668  -0.026769   0.431938  -0.053710   0.009776
    17  H   -0.000108   0.007803  -0.057403   0.430947  -0.033284  -0.006117
    18  H    0.002856   0.005651  -0.011134  -0.036473   0.446153  -0.070360
    19  H   -0.000247  -0.000603   0.011316  -0.061336   0.432597  -0.031119
    20  H    0.000236  -0.000336   0.000757  -0.014257  -0.026829   0.444678
    21  H    0.000015   0.000044  -0.001570   0.011612  -0.047126   0.428425
    22  H    0.000001   0.000072   0.000631  -0.006407   0.007831  -0.040939
    23  H   -0.000008  -0.000577  -0.002074   0.011314  -0.015114  -0.040316
    24  H   -0.000000  -0.000012   0.000065  -0.000137  -0.000299  -0.004829
    25  H    0.000000   0.000051  -0.000322   0.000244  -0.000161  -0.000521
    26  H    0.000000   0.000000   0.000047  -0.000145   0.000111  -0.000472
    27  H    0.000000  -0.000000  -0.000001   0.000007   0.000010  -0.000362
    28  H    0.000000  -0.000000   0.000001  -0.000012   0.000037  -0.000213
    29  H   -0.000000  -0.000000  -0.000015   0.000119  -0.000149   0.000961
    30  H   -0.000000  -0.000000   0.000000  -0.000000   0.000001  -0.000007
    31  H   -0.000000   0.000000  -0.000000   0.000000  -0.000000   0.000004
    32  H    0.000000  -0.000000  -0.000000   0.000000   0.000000  -0.000005
               7          8          9         10         11         12
     1  O   -0.000139   0.000002  -0.000000  -0.000000  -0.000000  -0.090827
     2  C   -0.002871   0.000365  -0.000021   0.000001  -0.000000   0.652262
     3  C   -0.007049  -0.000581   0.000186  -0.000042   0.000001  -0.091998
     4  C    0.033349  -0.002137   0.000143   0.000119  -0.000000  -0.001398
     5  C   -0.040168   0.010516  -0.001140  -0.000012  -0.000000   0.005666
     6  C    0.122848  -0.029862   0.006343   0.000252   0.000002  -0.007373
     7  C    5.466364   0.177712  -0.046489   0.018567  -0.000467   0.000140
     8  C    0.177712   5.197539   0.246321  -0.053751   0.010433   0.000096
     9  C   -0.046489   0.246321   5.218521   0.232137  -0.051075   0.000002
    10  C    0.018567  -0.053751   0.232137   5.191880   0.265826  -0.000000
    11  C   -0.000467   0.010433  -0.051075   0.265826   5.030398  -0.000000
    12  O    0.000140   0.000096   0.000002  -0.000000  -0.000000   7.843275
    13  H    0.000002  -0.000000  -0.000000   0.000000  -0.000000   0.006585
    14  H   -0.000662   0.000231  -0.000022   0.000022  -0.000000   0.006351
    15  H    0.000161  -0.000012   0.000000  -0.000000   0.000000   0.003498
    16  H   -0.000506   0.000055  -0.000003   0.000001  -0.000000   0.000139
    17  H   -0.002579   0.000552  -0.000081   0.000025  -0.000000  -0.000487
    18  H    0.011742  -0.000661   0.000017   0.000003   0.000000  -0.002996
    19  H   -0.008000  -0.000195   0.000074  -0.000047  -0.000000   0.000048
    20  H   -0.067870  -0.001986  -0.000182  -0.000131   0.000003   0.008906
    21  H   -0.039474  -0.005988   0.000316   0.000096  -0.000000   0.000340
    22  H    0.418547  -0.032834  -0.009398   0.000071   0.000592  -0.000023
    23  H    0.418643  -0.048904   0.006659  -0.003472  -0.000097   0.000019
    24  H   -0.069431   0.446498  -0.033841  -0.010707  -0.000177   0.000001
    25  H   -0.046650   0.439185  -0.049493   0.008999  -0.000413  -0.000042
    26  H   -0.014535  -0.028883   0.428131  -0.059181  -0.002906   0.000000
    27  H    0.012019  -0.052510   0.433370  -0.040929  -0.004962   0.000000
    28  H   -0.005280   0.008845  -0.056597   0.418332  -0.036989   0.000000
    29  H    0.005967  -0.012482  -0.046856   0.425937  -0.037378   0.000000
    30  H   -0.000036   0.000119  -0.006510  -0.040236   0.413253  -0.000000
    31  H    0.000012  -0.000443  -0.007067  -0.044704   0.419895   0.000000
    32  H    0.000064  -0.000854   0.012475  -0.051970   0.422598   0.000000
              13         14         15         16         17         18
     1  O    0.287794   0.004483   0.003331   0.003984  -0.000108   0.002856
     2  C   -0.024161  -0.049954  -0.020686  -0.007668   0.007803   0.005651
     3  C    0.016505   0.426560   0.402600  -0.026769  -0.057403  -0.011134
     4  C   -0.001699  -0.023220  -0.043505   0.431938   0.430947  -0.036473
     5  C    0.000540  -0.011267   0.010100  -0.053710  -0.033284   0.446153
     6  C   -0.000053   0.001232  -0.001195   0.009776  -0.006117  -0.070360
     7  C    0.000002  -0.000662   0.000161  -0.000506  -0.002579   0.011742
     8  C   -0.000000   0.000231  -0.000012   0.000055   0.000552  -0.000661
     9  C   -0.000000  -0.000022   0.000000  -0.000003  -0.000081   0.000017
    10  C    0.000000   0.000022  -0.000000   0.000001   0.000025   0.000003
    11  C   -0.000000  -0.000000   0.000000  -0.000000  -0.000000   0.000000
    12  O    0.006585   0.006351   0.003498   0.000139  -0.000487  -0.002996
    13  H    0.380618  -0.000823  -0.000820  -0.000287   0.000078  -0.000021
    14  H   -0.000823   0.494291  -0.014660   0.004229  -0.004936   0.000739
    15  H   -0.000820  -0.014660   0.502234  -0.004190  -0.004950  -0.000447
    16  H   -0.000287   0.004229  -0.004190   0.499786  -0.016937  -0.003479
    17  H    0.000078  -0.004936  -0.004950  -0.016937   0.523836   0.005194
    18  H   -0.000021   0.000739  -0.000447  -0.003479   0.005194   0.511889
    19  H    0.000007  -0.000525  -0.000223  -0.005007  -0.002697  -0.016472
    20  H   -0.000034  -0.005862   0.000663  -0.000702   0.001143  -0.001806
    21  H   -0.000007   0.000505   0.000031  -0.000119  -0.000711  -0.006628
    22  H    0.000000   0.000032  -0.000007  -0.000209   0.001895   0.000217
    23  H    0.000001   0.001061  -0.000058   0.000615  -0.008369  -0.000699
    24  H   -0.000000  -0.000009   0.000000   0.000002  -0.000033  -0.000041
    25  H    0.000000   0.000377  -0.000005  -0.000001   0.000009   0.000004
    26  H   -0.000000  -0.000025   0.000001  -0.000000   0.000029  -0.000001
    27  H   -0.000000   0.000001   0.000000   0.000000  -0.000001  -0.000000
    28  H    0.000000  -0.000001  -0.000000  -0.000000   0.000001  -0.000001
    29  H   -0.000000   0.000007  -0.000000   0.000001  -0.000017   0.000001
    30  H    0.000000  -0.000000  -0.000000   0.000000   0.000000  -0.000000
    31  H   -0.000000   0.000000  -0.000000   0.000000  -0.000000   0.000000
    32  H   -0.000000   0.000000   0.000000   0.000000  -0.000000  -0.000000
              19         20         21         22         23         24
     1  O   -0.000247   0.000236   0.000015   0.000001  -0.000008  -0.000000
     2  C   -0.000603  -0.000336   0.000044   0.000072  -0.000577  -0.000012
     3  C    0.011316   0.000757  -0.001570   0.000631  -0.002074   0.000065
     4  C   -0.061336  -0.014257   0.011612  -0.006407   0.011314  -0.000137
     5  C    0.432597  -0.026829  -0.047126   0.007831  -0.015114  -0.000299
     6  C   -0.031119   0.444678   0.428425  -0.040939  -0.040316  -0.004829
     7  C   -0.008000  -0.067870  -0.039474   0.418547   0.418643  -0.069431
     8  C   -0.000195  -0.001986  -0.005988  -0.032834  -0.048904   0.446498
     9  C    0.000074  -0.000182   0.000316  -0.009398   0.006659  -0.033841
    10  C   -0.000047  -0.000131   0.000096   0.000071  -0.003472  -0.010707
    11  C   -0.000000   0.000003  -0.000000   0.000592  -0.000097  -0.000177
    12  O    0.000048   0.008906   0.000340  -0.000023   0.000019   0.000001
    13  H    0.000007  -0.000034  -0.000007   0.000000   0.000001  -0.000000
    14  H   -0.000525  -0.005862   0.000505   0.000032   0.001061  -0.000009
    15  H   -0.000223   0.000663   0.000031  -0.000007  -0.000058   0.000000
    16  H   -0.005007  -0.000702  -0.000119  -0.000209   0.000615   0.000002
    17  H   -0.002697   0.001143  -0.000711   0.001895  -0.008369  -0.000033
    18  H   -0.016472  -0.001806  -0.006628   0.000217  -0.000699  -0.000041
    19  H    0.526049   0.004118  -0.002944   0.000600   0.001841   0.000167
    20  H    0.004118   0.479537  -0.015052   0.005432  -0.001561   0.000891
    21  H   -0.002944  -0.015052   0.527027  -0.002270   0.004979   0.001234
    22  H    0.000600   0.005432  -0.002270   0.534486  -0.029521  -0.002090
    23  H    0.001841  -0.001561   0.004979  -0.029521   0.557635   0.006957
    24  H    0.000167   0.000891   0.001234  -0.002090   0.006957   0.529998
    25  H   -0.000021   0.000699   0.000949   0.005057  -0.002270  -0.020313
    26  H    0.000003   0.000172  -0.000039   0.001854   0.001352   0.005823
    27  H   -0.000000  -0.000050   0.000014  -0.000612   0.000367  -0.001764
    28  H    0.000005   0.000019  -0.000019   0.001423   0.000169   0.001214
    29  H    0.000018  -0.000043   0.000036  -0.008034   0.000965   0.001770
    30  H    0.000000   0.000000   0.000000   0.000070  -0.000015  -0.000039
    31  H    0.000000  -0.000000  -0.000000  -0.000056   0.000008   0.000117
    32  H   -0.000000  -0.000000   0.000000  -0.000024   0.000009   0.000023
              25         26         27         28         29         30
     1  O    0.000000   0.000000   0.000000   0.000000  -0.000000  -0.000000
     2  C    0.000051   0.000000  -0.000000  -0.000000  -0.000000  -0.000000
     3  C   -0.000322   0.000047  -0.000001   0.000001  -0.000015   0.000000
     4  C    0.000244  -0.000145   0.000007  -0.000012   0.000119  -0.000000
     5  C   -0.000161   0.000111   0.000010   0.000037  -0.000149   0.000001
     6  C   -0.000521  -0.000472  -0.000362  -0.000213   0.000961  -0.000007
     7  C   -0.046650  -0.014535   0.012019  -0.005280   0.005967  -0.000036
     8  C    0.439185  -0.028883  -0.052510   0.008845  -0.012482   0.000119
     9  C   -0.049493   0.428131   0.433370  -0.056597  -0.046856  -0.006510
    10  C    0.008999  -0.059181  -0.040929   0.418332   0.425937  -0.040236
    11  C   -0.000413  -0.002906  -0.004962  -0.036989  -0.037378   0.413253
    12  O   -0.000042   0.000000   0.000000   0.000000   0.000000  -0.000000
    13  H    0.000000  -0.000000  -0.000000   0.000000  -0.000000   0.000000
    14  H    0.000377  -0.000025   0.000001  -0.000001   0.000007  -0.000000
    15  H   -0.000005   0.000001   0.000000  -0.000000  -0.000000  -0.000000
    16  H   -0.000001  -0.000000   0.000000  -0.000000   0.000001   0.000000
    17  H    0.000009   0.000029  -0.000001   0.000001  -0.000017   0.000000
    18  H    0.000004  -0.000001  -0.000000  -0.000001   0.000001  -0.000000
    19  H   -0.000021   0.000003  -0.000000   0.000005   0.000018   0.000000
    20  H    0.000699   0.000172  -0.000050   0.000019  -0.000043   0.000000
    21  H    0.000949  -0.000039   0.000014  -0.000019   0.000036   0.000000
    22  H    0.005057   0.001854  -0.000612   0.001423  -0.008034   0.000070
    23  H   -0.002270   0.001352   0.000367   0.000169   0.000965  -0.000015
    24  H   -0.020313   0.005823  -0.001764   0.001214   0.001770  -0.000039
    25  H    0.527684  -0.001832  -0.008278   0.000311  -0.000715   0.000022
    26  H   -0.001832   0.544464  -0.023095   0.007519  -0.002637   0.002641
    27  H   -0.008278  -0.023095   0.539619  -0.003248   0.006313   0.000157
    28  H    0.000311   0.007519  -0.003248   0.567994  -0.032935   0.007720
    29  H   -0.000715  -0.002637   0.006313  -0.032935   0.568886  -0.006288
    30  H    0.000022   0.002641   0.000157   0.007720  -0.006288   0.550510
    31  H   -0.000048   0.000285   0.003258  -0.006276   0.008023  -0.032158
    32  H    0.000014  -0.000224  -0.000062  -0.004406  -0.004274  -0.024861
              31         32
     1  O   -0.000000   0.000000
     2  C    0.000000  -0.000000
     3  C   -0.000000  -0.000000
     4  C    0.000000   0.000000
     5  C   -0.000000   0.000000
     6  C    0.000004  -0.000005
     7  C    0.000012   0.000064
     8  C   -0.000443  -0.000854
     9  C   -0.007067   0.012475
    10  C   -0.044704  -0.051970
    11  C    0.419895   0.422598
    12  O    0.000000   0.000000
    13  H   -0.000000  -0.000000
    14  H    0.000000   0.000000
    15  H   -0.000000   0.000000
    16  H    0.000000   0.000000
    17  H   -0.000000  -0.000000
    18  H    0.000000  -0.000000
    19  H    0.000000  -0.000000
    20  H   -0.000000  -0.000000
    21  H   -0.000000   0.000000
    22  H   -0.000056  -0.000024
    23  H    0.000008   0.000009
    24  H    0.000117   0.000023
    25  H   -0.000048   0.000014
    26  H    0.000285  -0.000224
    27  H    0.003258  -0.000062
    28  H   -0.006276  -0.004406
    29  H    0.008023  -0.004274
    30  H   -0.032158  -0.024861
    31  H    0.546895  -0.024926
    32  H   -0.024926   0.535506
 Mulliken charges:
               1
     1  O   -0.407563
     2  C    0.329927
     3  C   -0.304350
     4  C   -0.325836
     5  C   -0.306239
     6  C   -0.310809
     7  C   -0.333931
     8  C   -0.266386
     9  C   -0.275919
    10  C   -0.257085
    11  C   -0.428535
    12  O   -0.332184
    13  H    0.335775
    14  H    0.171847
    15  H    0.168142
    16  H    0.169062
    17  H    0.167199
    18  H    0.166753
    19  H    0.152591
    20  H    0.189449
    21  H    0.146327
    22  H    0.153610
    23  H    0.140461
    24  H    0.148965
    25  H    0.147480
    26  H    0.141544
    27  H    0.140742
    28  H    0.132387
    29  H    0.132817
    30  H    0.135658
    31  H    0.137183
    32  H    0.140916
 Sum of Mulliken charges =  -0.00000
 Mulliken charges with hydrogens summed into heavy atoms:
               1
     1  O   -0.071788
     2  C    0.329927
     3  C    0.035640
     4  C    0.010426
     5  C    0.013105
     6  C    0.024966
     7  C   -0.039859
     8  C    0.030059
     9  C    0.006367
    10  C    0.008119
    11  C   -0.014778
    12  O   -0.332184
 Electronic spatial extent (au):  <R**2>=           4193.9459
 Charge=             -0.0000 electrons
 Dipole moment (field-independent basis, Debye):
    X=              0.0566    Y=             -1.6737    Z=             -0.0549  Tot=              1.6755
 Quadrupole moment (field-independent basis, Debye-Ang):
   XX=            -74.1232   YY=            -82.4706   ZZ=            -75.8156
   XY=              3.7330   XZ=             -0.3771   YZ=              0.4310
 Traceless Quadrupole moment (field-independent basis, Debye-Ang):
   XX=              3.3466   YY=             -5.0008   ZZ=              1.6542
   XY=              3.7330   XZ=             -0.3771   YZ=              0.4310
 Octapole moment (field-independent basis, Debye-Ang**2):
  XXX=            -90.6928  YYY=             -6.3010  ZZZ=             -3.4560  XYY=              7.1767
  XXY=              1.6518  XXZ=             14.7771  XZZ=            -16.3520  YZZ=              0.3621
  YYZ=             -0.0908  XYZ=             -1.0060
 Hexadecapole moment (field-independent basis, Debye-Ang**3):
 XXXX=          -4422.9029 YYYY=           -487.1406 ZZZZ=           -367.9159 XXXY=            -45.4209
 XXXZ=            -35.2888 YYYX=             20.6428 YYYZ=             -1.9998 ZZZX=             17.7928
 ZZZY=              4.5558 XXYY=           -927.6469 XXZZ=           -850.0780 YYZZ=           -141.8938
 XXYZ=              1.3005 YYXZ=              2.7709 ZZXY=             -3.6910
 N-N= 7.167581775560D+02 E-N=-2.698408189274D+03  KE= 5.405742746930D+02
 Unable to Open any file for archive entry.
 1\1\GINC-NOTCH075\SP\RM062X\def2TZVP\C10H20O2\U6032257\03-Feb-2022\0\\
 # M062X/def2tzvp int=(grid=ultrafine) nmr=giao guess=read geom=check\\
 Ac1.xyz\\0,1\O,0,4.9553412406,-0.3370911808,1.1065804287\C,0,4.5931635
 432,-0.2245933136,-0.19732259\C,0,3.2012580547,-0.7544951887,-0.439199
 8108\C,0,3.129260424,-2.2853766165,-0.2633116707\C,0,4.1473331857,-3.0
 631250626,-1.1112329949\C,0,4.1162082114,-2.7558194263,-2.6151267423\C
 ,0,2.7636187457,-3.0166917561,-3.2844876326\C,0,2.8011289896,-2.789983
 0359,-4.7995959882\C,0,1.4444023929,-2.9429396829,-5.4989055156\C,0,0.
 8518091959,-4.354957466,-5.43441647\C,0,-0.4578383424,-4.4830136836,-6
 .2153113697\O,0,5.341802918,0.2236589068,-1.0384387544\H,0,5.867915418
 9,-0.0062959093,1.1587793936\H,0,2.9167727965,-0.4603446714,-1.4508197
 12\H,0,2.5145868303,-0.2755774215,0.2664005498\H,0,3.2846897848,-2.526
 4416184,0.7932906709\H,0,2.1106920911,-2.6031586642,-0.5107819755\H,0,
 5.1566845554,-2.8602132061,-0.731251942\H,0,3.9743059628,-4.1356334495
 ,-0.954619004\H,0,4.4177600914,-1.7148398363,-2.7826610541\H,0,4.88041
 0765,-3.3702087671,-3.1085267359\H,0,2.4465971397,-4.0445795183,-3.064
 9786407\H,0,1.9950611321,-2.3631941493,-2.8492542227\H,0,3.5225805995,
 -3.4858735864,-5.2504061237\H,0,3.1912003319,-1.7822115693,-4.99366305
 93\H,0,0.7285378442,-2.2314368237,-5.0628703226\H,0,1.5527258174,-2.65
 47699552,-6.5530536339\H,0,1.5870084885,-5.070763602,-5.8268604128\H,0
 ,0.6789829177,-4.6388783657,-4.3893165124\H,0,-1.2173270976,-3.7959503
 557,-5.825371162\H,0,-0.3105189396,-4.2428923638,-7.2742688857\H,0,-0.
 8649550895,-5.4974086607,-6.1564981044\\Version=ES64L-G16RevC.01\State
 =1-A\HF=-543.5431331\RMSD=2.337e-09\Dipole=-0.3446233,-0.3743443,0.419
 1063\Quadrupole=-0.5313277,-1.9875969,2.5189246,-2.4759444,1.9444726,1
 .8565707\PG=C01 [X(C10H20O2)]\\@
 The archive entry for this job was punched.


 WHEN ALL ELSE FAILS, TRY THE BOSS'S SUGGESTION.
 Job cpu time:       0 days  0 hours 37 minutes 57.2 seconds.
 Elapsed time:       0 days  0 hours  1 minutes 21.5 seconds.
 File lengths (MBytes):  RWF=    140 Int=      0 D2E=      0 Chk=     24 Scr=      1
 Normal termination of Gaussian 16 at Thu Feb  3 09:46:56 2022.
