 Entering Gaussian System, Link 0=/uufs/chpc.utah.edu/sys/installdir/gaussian16/C01/AVX2/g16/g16
 Input=Ac1_clust-38.com
 Output=Ac1_clust-38.log
 Initial command:
 /uufs/chpc.utah.edu/sys/installdir/gaussian16/C01/AVX2/g16/l1.exe "/scratch/general/lustre/u6032257/3857495/notchpeak.peaks/Gau-45364.inp" -scrdir="/scratch/general/lustre/u6032257/3857495/notchpeak.peaks/"
 Entering Link 1 = /uufs/chpc.utah.edu/sys/installdir/gaussian16/C01/AVX2/g16/l1.exe PID=     45366.
  
 Copyright (c) 1988-2019, Gaussian, Inc.  All Rights Reserved.
  
 This is part of the Gaussian(R) 16 program.  It is based on
 the Gaussian(R) 09 system (copyright 2009, Gaussian, Inc.),
 the Gaussian(R) 03 system (copyright 2003, Gaussian, Inc.),
 the Gaussian(R) 98 system (copyright 1998, Gaussian, Inc.),
 the Gaussian(R) 94 system (copyright 1995, Gaussian, Inc.),
 the Gaussian 92(TM) system (copyright 1992, Gaussian, Inc.),
 the Gaussian 90(TM) system (copyright 1990, Gaussian, Inc.),
 the Gaussian 88(TM) system (copyright 1988, Gaussian, Inc.),
 the Gaussian 86(TM) system (copyright 1986, Carnegie Mellon
 University), and the Gaussian 82(TM) system (copyright 1983,
 Carnegie Mellon University). Gaussian is a federally registered
 trademark of Gaussian, Inc.
  
 This software contains proprietary and confidential information,
 including trade secrets, belonging to Gaussian, Inc.
  
 This software is provided under written license and may be
 used, copied, transmitted, or stored only in accord with that
 written license.
  
 The following legend is applicable only to US Government
 contracts under FAR:
  
                    RESTRICTED RIGHTS LEGEND
  
 Use, reproduction and disclosure by the US Government is
 subject to restrictions as set forth in subparagraphs (a)
 and (c) of the Commercial Computer Software - Restricted
 Rights clause in FAR 52.227-19.
  
 Gaussian, Inc.
 340 Quinnipiac St., Bldg. 40, Wallingford CT 06492
  
  
 ---------------------------------------------------------------
 Warning -- This program may not be used in any manner that
 competes with the business of Gaussian, Inc. or will provide
 assistance to any competitor of Gaussian, Inc.  The licensee
 of this program is prohibited from giving any competitor of
 Gaussian, Inc. access to this program.  By using this program,
 the user acknowledges that Gaussian, Inc. is engaged in the
 business of creating and licensing software in the field of
 computational chemistry and represents and warrants to the
 licensee that it is not a competitor of Gaussian, Inc. and that
 it will not use this program in any manner prohibited above.
 ---------------------------------------------------------------
  

 Cite this work as:
 Gaussian 16, Revision C.01,
 M. J. Frisch, G. W. Trucks, H. B. Schlegel, G. E. Scuseria, 
 M. A. Robb, J. R. Cheeseman, G. Scalmani, V. Barone, 
 G. A. Petersson, H. Nakatsuji, X. Li, M. Caricato, A. V. Marenich, 
 J. Bloino, B. G. Janesko, R. Gomperts, B. Mennucci, H. P. Hratchian, 
 J. V. Ortiz, A. F. Izmaylov, J. L. Sonnenberg, D. Williams-Young, 
 F. Ding, F. Lipparini, F. Egidi, J. Goings, B. Peng, A. Petrone, 
 T. Henderson, D. Ranasinghe, V. G. Zakrzewski, J. Gao, N. Rega, 
 G. Zheng, W. Liang, M. Hada, M. Ehara, K. Toyota, R. Fukuda, 
 J. Hasegawa, M. Ishida, T. Nakajima, Y. Honda, O. Kitao, H. Nakai, 
 T. Vreven, K. Throssell, J. A. Montgomery, Jr., J. E. Peralta, 
 F. Ogliaro, M. J. Bearpark, J. J. Heyd, E. N. Brothers, K. N. Kudin, 
 V. N. Staroverov, T. A. Keith, R. Kobayashi, J. Normand, 
 K. Raghavachari, A. P. Rendell, J. C. Burant, S. S. Iyengar, 
 J. Tomasi, M. Cossi, J. M. Millam, M. Klene, C. Adamo, R. Cammi, 
 J. W. Ochterski, R. L. Martin, K. Morokuma, O. Farkas, 
 J. B. Foresman, and D. J. Fox, Gaussian, Inc., Wallingford CT, 2019.
 
 ******************************************
 Gaussian 16:  ES64L-G16RevC.01  3-Jul-2019
                 3-Feb-2022 
 ******************************************
 %NProcShared=32
 Will use up to   32 processors via shared memory.
 %mem=16GB
 %chk=Ac1_clust-38.chk
 ----------------------------------------------------------------------
 # B3LYP/6-31G(d,p) empiricaldispersion=GD3BJ int=(grid=ultrafine) opt 
 freq=noraman
 ----------------------------------------------------------------------
 1/18=20,19=15,26=4,38=1/1,3;
 2/9=110,12=2,17=6,18=5,40=1/2;
 3/5=1,6=6,7=101,11=2,25=1,30=1,71=1,74=-5,75=-5,124=41/1,2,3;
 4//1;
 5/5=2,38=5/2;
 6/7=2,8=2,9=2,10=2,28=1/1;
 7//1,2,3,16;
 1/18=20,19=15,26=4/3(2);
 2/9=110/2;
 99//99;
 2/9=110/2;
 3/5=1,6=6,7=101,11=2,25=1,30=1,71=1,74=-5,75=-5,124=41/1,2,3;
 4/5=5,16=3,69=1/1;
 5/5=2,38=5/2;
 7//1,2,3,16;
 1/18=20,19=15,26=4/3(-5);
 2/9=110/2;
 6/7=2,8=2,9=2,10=2,19=2,28=1/1;
 99/9=1/99;
 -------
 Ac1.xyz
 -------
 Symbolic Z-matrix:
 Charge =  0 Multiplicity = 1
 O                     5.4344    0.0091    1.0687 
 C                     5.3974   -0.3465   -0.2337 
 C                     4.6826   -1.6744   -0.4567 
 C                     3.1562   -1.5962   -0.2163 
 C                     2.4369   -2.9562   -0.3392 
 C                     2.5485   -3.6528   -1.7123 
 C                     1.9575   -2.8438   -2.8828 
 C                     1.9975   -3.6114   -4.2159 
 C                     1.4107   -2.8002   -5.3871 
 C                     1.5091   -3.505    -6.7537 
 C                     0.6572   -4.7796   -6.8657 
 O                     5.8915    0.3243   -1.1277 
 H                     5.9033    0.844     1.0706 
 H                     5.1447   -2.4147    0.1958 
 H                     4.8903   -1.9822   -1.4811 
 H                     2.963    -1.2027    0.7845 
 H                     2.7044   -0.8787   -0.9044 
 H                     2.8217   -3.6298    0.4286 
 H                     1.3812   -2.8189   -0.0985 
 H                     3.5911   -3.8958   -1.9219 
 H                     2.0348   -4.6139   -1.6513 
 H                     0.9265   -2.5697   -2.652 
 H                     2.5052   -1.9068   -2.9953 
 H                     1.4498   -4.5484   -4.106 
 H                     3.0287   -3.8858   -4.4458 
 H                     0.3681   -2.5531   -5.1788 
 H                     1.9336   -1.8443   -5.453 
 H                     1.196    -2.8068   -7.5318 
 H                     2.5519   -3.7415   -6.9723 
 H                     0.9969   -5.5539   -6.1777 
 H                    -0.3922   -4.576    -6.6496 
 H                     0.7109   -5.1952   -7.8724 
 

 GradGradGradGradGradGradGradGradGradGradGradGradGradGradGradGradGradGrad
 Berny optimization.
 Initialization pass.
                           ----------------------------
                           !    Initial Parameters    !
                           ! (Angstroms and Degrees)  !
 --------------------------                            --------------------------
 ! Name  Definition              Value          Derivative Info.                !
 --------------------------------------------------------------------------------
 ! R1    R(1,2)                  1.3506         estimate D2E/DX2                !
 ! R2    R(1,13)                 0.9576         estimate D2E/DX2                !
 ! R3    R(2,3)                  1.5245         estimate D2E/DX2                !
 ! R4    R(2,12)                 1.222          estimate D2E/DX2                !
 ! R5    R(3,4)                  1.5472         estimate D2E/DX2                !
 ! R6    R(3,14)                 1.0896         estimate D2E/DX2                !
 ! R7    R(3,15)                 1.0896         estimate D2E/DX2                !
 ! R8    R(4,5)                  1.5434         estimate D2E/DX2                !
 ! R9    R(4,16)                 1.0926         estimate D2E/DX2                !
 ! R10   R(4,17)                 1.092          estimate D2E/DX2                !
 ! R11   R(5,6)                  1.5437         estimate D2E/DX2                !
 ! R12   R(5,18)                 1.0915         estimate D2E/DX2                !
 ! R13   R(5,19)                 1.0915         estimate D2E/DX2                !
 ! R14   R(6,7)                  1.5407         estimate D2E/DX2                !
 ! R15   R(6,20)                 1.0909         estimate D2E/DX2                !
 ! R16   R(6,21)                 1.0915         estimate D2E/DX2                !
 ! R17   R(7,8)                  1.5388         estimate D2E/DX2                !
 ! R18   R(7,22)                 1.0915         estimate D2E/DX2                !
 ! R19   R(7,23)                 1.0911         estimate D2E/DX2                !
 ! R20   R(8,9)                  1.5408         estimate D2E/DX2                !
 ! R21   R(8,24)                 1.0909         estimate D2E/DX2                !
 ! R22   R(8,25)                 1.0916         estimate D2E/DX2                !
 ! R23   R(9,10)                 1.5408         estimate D2E/DX2                !
 ! R24   R(9,26)                 1.0915         estimate D2E/DX2                !
 ! R25   R(9,27)                 1.0916         estimate D2E/DX2                !
 ! R26   R(10,11)                1.5372         estimate D2E/DX2                !
 ! R27   R(10,28)                1.0913         estimate D2E/DX2                !
 ! R28   R(10,29)                1.0914         estimate D2E/DX2                !
 ! R29   R(11,30)                1.0901         estimate D2E/DX2                !
 ! R30   R(11,31)                1.0906         estimate D2E/DX2                !
 ! R31   R(11,32)                1.0904         estimate D2E/DX2                !
 ! A1    A(2,1,13)             104.1756         estimate D2E/DX2                !
 ! A2    A(1,2,3)              112.5354         estimate D2E/DX2                !
 ! A3    A(1,2,12)             123.3581         estimate D2E/DX2                !
 ! A4    A(3,2,12)             124.1054         estimate D2E/DX2                !
 ! A5    A(2,3,4)              113.3178         estimate D2E/DX2                !
 ! A6    A(2,3,14)             107.7793         estimate D2E/DX2                !
 ! A7    A(2,3,15)             107.11           estimate D2E/DX2                !
 ! A8    A(4,3,14)             111.0804         estimate D2E/DX2                !
 ! A9    A(4,3,15)             110.3901         estimate D2E/DX2                !
 ! A10   A(14,3,15)            106.8711         estimate D2E/DX2                !
 ! A11   A(3,4,5)              113.758          estimate D2E/DX2                !
 ! A12   A(3,4,16)             109.5711         estimate D2E/DX2                !
 ! A13   A(3,4,17)             110.0893         estimate D2E/DX2                !
 ! A14   A(5,4,16)             107.9317         estimate D2E/DX2                !
 ! A15   A(5,4,17)             109.6323         estimate D2E/DX2                !
 ! A16   A(16,4,17)            105.5093         estimate D2E/DX2                !
 ! A17   A(4,5,6)              115.7699         estimate D2E/DX2                !
 ! A18   A(4,5,18)             108.874          estimate D2E/DX2                !
 ! A19   A(4,5,19)             108.8063         estimate D2E/DX2                !
 ! A20   A(6,5,18)             108.7674         estimate D2E/DX2                !
 ! A21   A(6,5,19)             108.8349         estimate D2E/DX2                !
 ! A22   A(18,5,19)            105.2778         estimate D2E/DX2                !
 ! A23   A(5,6,7)              114.2719         estimate D2E/DX2                !
 ! A24   A(5,6,20)             109.9082         estimate D2E/DX2                !
 ! A25   A(5,6,21)             108.2768         estimate D2E/DX2                !
 ! A26   A(7,6,20)             109.7312         estimate D2E/DX2                !
 ! A27   A(7,6,21)             108.9221         estimate D2E/DX2                !
 ! A28   A(20,6,21)            105.3319         estimate D2E/DX2                !
 ! A29   A(6,7,8)              112.7215         estimate D2E/DX2                !
 ! A30   A(6,7,22)             109.484          estimate D2E/DX2                !
 ! A31   A(6,7,23)             109.6752         estimate D2E/DX2                !
 ! A32   A(8,7,22)             109.4512         estimate D2E/DX2                !
 ! A33   A(8,7,23)             109.0255         estimate D2E/DX2                !
 ! A34   A(22,7,23)            106.2771         estimate D2E/DX2                !
 ! A35   A(7,8,9)              112.7048         estimate D2E/DX2                !
 ! A36   A(7,8,24)             109.1554         estimate D2E/DX2                !
 ! A37   A(7,8,25)             109.4151         estimate D2E/DX2                !
 ! A38   A(9,8,24)             109.7296         estimate D2E/DX2                !
 ! A39   A(9,8,25)             109.3921         estimate D2E/DX2                !
 ! A40   A(24,8,25)            106.2364         estimate D2E/DX2                !
 ! A41   A(8,9,10)             114.1446         estimate D2E/DX2                !
 ! A42   A(8,9,26)             109.7485         estimate D2E/DX2                !
 ! A43   A(8,9,27)             108.9352         estimate D2E/DX2                !
 ! A44   A(10,9,26)            109.5001         estimate D2E/DX2                !
 ! A45   A(10,9,27)            108.4476         estimate D2E/DX2                !
 ! A46   A(26,9,27)            105.7141         estimate D2E/DX2                !
 ! A47   A(9,10,11)            114.1122         estimate D2E/DX2                !
 ! A48   A(9,10,28)            108.7485         estimate D2E/DX2                !
 ! A49   A(9,10,29)            109.7424         estimate D2E/DX2                !
 ! A50   A(11,10,28)           108.6356         estimate D2E/DX2                !
 ! A51   A(11,10,29)           109.5877         estimate D2E/DX2                !
 ! A52   A(28,10,29)           105.6617         estimate D2E/DX2                !
 ! A53   A(10,11,30)           111.7336         estimate D2E/DX2                !
 ! A54   A(10,11,31)           111.348          estimate D2E/DX2                !
 ! A55   A(10,11,32)           110.855          estimate D2E/DX2                !
 ! A56   A(30,11,31)           107.9028         estimate D2E/DX2                !
 ! A57   A(30,11,32)           107.254          estimate D2E/DX2                !
 ! A58   A(31,11,32)           107.546          estimate D2E/DX2                !
 ! D1    D(13,1,2,3)           179.8772         estimate D2E/DX2                !
 ! D2    D(13,1,2,12)            0.2633         estimate D2E/DX2                !
 ! D3    D(1,2,3,4)             70.1641         estimate D2E/DX2                !
 ! D4    D(1,2,3,14)           -53.1707         estimate D2E/DX2                !
 ! D5    D(1,2,3,15)          -167.8539         estimate D2E/DX2                !
 ! D6    D(12,2,3,4)          -110.2253         estimate D2E/DX2                !
 ! D7    D(12,2,3,14)          126.4399         estimate D2E/DX2                !
 ! D8    D(12,2,3,15)           11.7567         estimate D2E/DX2                !
 ! D9    D(2,3,4,5)           -175.8096         estimate D2E/DX2                !
 ! D10   D(2,3,4,16)           -54.9119         estimate D2E/DX2                !
 ! D11   D(2,3,4,17)            60.6954         estimate D2E/DX2                !
 ! D12   D(14,3,4,5)           -54.3088         estimate D2E/DX2                !
 ! D13   D(14,3,4,16)           66.5889         estimate D2E/DX2                !
 ! D14   D(14,3,4,17)         -177.8037         estimate D2E/DX2                !
 ! D15   D(15,3,4,5)            64.0575         estimate D2E/DX2                !
 ! D16   D(15,3,4,16)         -175.0448         estimate D2E/DX2                !
 ! D17   D(15,3,4,17)          -59.4374         estimate D2E/DX2                !
 ! D18   D(3,4,5,6)            -60.371          estimate D2E/DX2                !
 ! D19   D(3,4,5,18)            62.49           estimate D2E/DX2                !
 ! D20   D(3,4,5,19)           176.7327         estimate D2E/DX2                !
 ! D21   D(16,4,5,6)           177.8179         estimate D2E/DX2                !
 ! D22   D(16,4,5,18)          -59.3212         estimate D2E/DX2                !
 ! D23   D(16,4,5,19)           54.9215         estimate D2E/DX2                !
 ! D24   D(17,4,5,6)            63.3723         estimate D2E/DX2                !
 ! D25   D(17,4,5,18)         -173.7668         estimate D2E/DX2                !
 ! D26   D(17,4,5,19)          -59.5241         estimate D2E/DX2                !
 ! D27   D(4,5,6,7)            -60.6698         estimate D2E/DX2                !
 ! D28   D(4,5,6,20)            63.1918         estimate D2E/DX2                !
 ! D29   D(4,5,6,21)           177.7593         estimate D2E/DX2                !
 ! D30   D(18,5,6,7)           176.413          estimate D2E/DX2                !
 ! D31   D(18,5,6,20)          -59.7254         estimate D2E/DX2                !
 ! D32   D(18,5,6,21)           54.8422         estimate D2E/DX2                !
 ! D33   D(19,5,6,7)            62.2115         estimate D2E/DX2                !
 ! D34   D(19,5,6,20)         -173.9268         estimate D2E/DX2                !
 ! D35   D(19,5,6,21)          -59.3593         estimate D2E/DX2                !
 ! D36   D(5,6,7,8)           -175.9443         estimate D2E/DX2                !
 ! D37   D(5,6,7,22)           -53.864          estimate D2E/DX2                !
 ! D38   D(5,6,7,23)            62.3835         estimate D2E/DX2                !
 ! D39   D(20,6,7,8)            60.0992         estimate D2E/DX2                !
 ! D40   D(20,6,7,22)         -177.8205         estimate D2E/DX2                !
 ! D41   D(20,6,7,23)          -61.573          estimate D2E/DX2                !
 ! D42   D(21,6,7,8)           -54.7293         estimate D2E/DX2                !
 ! D43   D(21,6,7,22)           67.351          estimate D2E/DX2                !
 ! D44   D(21,6,7,23)         -176.4015         estimate D2E/DX2                !
 ! D45   D(6,7,8,9)           -179.8077         estimate D2E/DX2                !
 ! D46   D(6,7,8,24)            58.0023         estimate D2E/DX2                !
 ! D47   D(6,7,8,25)           -57.8635         estimate D2E/DX2                !
 ! D48   D(22,7,8,9)            58.0936         estimate D2E/DX2                !
 ! D49   D(22,7,8,24)          -64.0964         estimate D2E/DX2                !
 ! D50   D(22,7,8,25)         -179.9622         estimate D2E/DX2                !
 ! D51   D(23,7,8,9)           -57.7683         estimate D2E/DX2                !
 ! D52   D(23,7,8,24)         -179.9583         estimate D2E/DX2                !
 ! D53   D(23,7,8,25)           64.1759         estimate D2E/DX2                !
 ! D54   D(7,8,9,10)           176.6123         estimate D2E/DX2                !
 ! D55   D(7,8,9,26)           -60.0482         estimate D2E/DX2                !
 ! D56   D(7,8,9,27)            55.2536         estimate D2E/DX2                !
 ! D57   D(24,8,9,10)          -61.5217         estimate D2E/DX2                !
 ! D58   D(24,8,9,26)           61.8178         estimate D2E/DX2                !
 ! D59   D(24,8,9,27)          177.1196         estimate D2E/DX2                !
 ! D60   D(25,8,9,10)           54.6551         estimate D2E/DX2                !
 ! D61   D(25,8,9,26)          177.9946         estimate D2E/DX2                !
 ! D62   D(25,8,9,27)          -66.7036         estimate D2E/DX2                !
 ! D63   D(8,9,10,11)           66.1176         estimate D2E/DX2                !
 ! D64   D(8,9,10,28)         -172.4407         estimate D2E/DX2                !
 ! D65   D(8,9,10,29)          -57.3088         estimate D2E/DX2                !
 ! D66   D(26,9,10,11)         -57.3561         estimate D2E/DX2                !
 ! D67   D(26,9,10,28)          64.0856         estimate D2E/DX2                !
 ! D68   D(26,9,10,29)         179.2175         estimate D2E/DX2                !
 ! D69   D(27,9,10,11)        -172.2545         estimate D2E/DX2                !
 ! D70   D(27,9,10,28)         -50.8128         estimate D2E/DX2                !
 ! D71   D(27,9,10,29)          64.3191         estimate D2E/DX2                !
 ! D72   D(9,10,11,30)         -64.4076         estimate D2E/DX2                !
 ! D73   D(9,10,11,31)          56.3301         estimate D2E/DX2                !
 ! D74   D(9,10,11,32)         176.0178         estimate D2E/DX2                !
 ! D75   D(28,10,11,30)        174.0882         estimate D2E/DX2                !
 ! D76   D(28,10,11,31)        -65.1741         estimate D2E/DX2                !
 ! D77   D(28,10,11,32)         54.5137         estimate D2E/DX2                !
 ! D78   D(29,10,11,30)         59.1024         estimate D2E/DX2                !
 ! D79   D(29,10,11,31)        179.8402         estimate D2E/DX2                !
 ! D80   D(29,10,11,32)        -60.4721         estimate D2E/DX2                !
 --------------------------------------------------------------------------------
 Trust Radius=3.00D-01 FncErr=1.00D-07 GrdErr=1.00D-06 EigMax=2.50D+02 EigMin=1.00D-04
 Number of steps in this run=    179 maximum allowed number of steps=    192.
 GradGradGradGradGradGradGradGradGradGradGradGradGradGradGradGradGradGrad

                          Input orientation:                          
 ---------------------------------------------------------------------
 Center     Atomic      Atomic             Coordinates (Angstroms)
 Number     Number       Type             X           Y           Z
 ---------------------------------------------------------------------
      1          8           0        5.434400    0.009100    1.068700
      2          6           0        5.397400   -0.346500   -0.233700
      3          6           0        4.682600   -1.674400   -0.456700
      4          6           0        3.156200   -1.596200   -0.216300
      5          6           0        2.436900   -2.956200   -0.339200
      6          6           0        2.548500   -3.652800   -1.712300
      7          6           0        1.957500   -2.843800   -2.882800
      8          6           0        1.997500   -3.611400   -4.215900
      9          6           0        1.410700   -2.800200   -5.387100
     10          6           0        1.509100   -3.505000   -6.753700
     11          6           0        0.657200   -4.779600   -6.865700
     12          8           0        5.891500    0.324300   -1.127700
     13          1           0        5.903300    0.844000    1.070600
     14          1           0        5.144700   -2.414700    0.195800
     15          1           0        4.890300   -1.982200   -1.481100
     16          1           0        2.963000   -1.202700    0.784500
     17          1           0        2.704400   -0.878700   -0.904400
     18          1           0        2.821700   -3.629800    0.428600
     19          1           0        1.381200   -2.818900   -0.098500
     20          1           0        3.591100   -3.895800   -1.921900
     21          1           0        2.034800   -4.613900   -1.651300
     22          1           0        0.926500   -2.569700   -2.652000
     23          1           0        2.505200   -1.906800   -2.995300
     24          1           0        1.449800   -4.548400   -4.106000
     25          1           0        3.028700   -3.885800   -4.445800
     26          1           0        0.368100   -2.553100   -5.178800
     27          1           0        1.933600   -1.844300   -5.453000
     28          1           0        1.196000   -2.806800   -7.531800
     29          1           0        2.551900   -3.741500   -6.972300
     30          1           0        0.996900   -5.553900   -6.177700
     31          1           0       -0.392200   -4.576000   -6.649600
     32          1           0        0.710900   -5.195200   -7.872400
 ---------------------------------------------------------------------
                    Distance matrix (angstroms):
                    1          2          3          4          5
     1  O    0.000000
     2  C    1.350580   0.000000
     3  C    2.392952   1.524463   0.000000
     4  C    3.068943   2.566131   1.547192   0.000000
     5  C    4.445244   3.947939   2.588433   1.543404   0.000000
     6  C    5.428802   4.608048   3.169382   2.614750   1.543732
     7  C    5.986838   5.008707   3.831400   3.178618   2.590822
     8  C    7.269615   6.170641   5.009323   4.626058   3.956155
     9  C    8.109234   6.962180   6.023421   5.588699   5.153515
    10  C    9.431162   8.222250   7.285218   7.006715   6.504445
    11  C   10.426312   9.279294   8.180550   7.784186   7.006235
    12  O    2.265494   1.222024   2.430325   3.464222   4.828838
    13  H    0.957564   1.836960   3.188274   3.893231   5.333384
    14  H    2.592429   2.127388   1.089650   2.189498   2.812762
    15  H    3.280671   2.118649   1.089622   2.180784   2.876071
    16  H    2.767137   2.774187   2.172580   1.092597   2.148079
    17  H    3.483420   2.825832   2.178726   1.091976   2.169565
    18  H    4.525210   4.225273   2.840826   2.159471   1.091478
    19  H    5.078225   4.718146   3.512468   2.158587   1.091462
    20  H    5.252589   4.325537   2.876248   2.895923   2.172548
    21  H    6.350418   5.614924   4.132623   3.524667   2.152036
    22  H    6.388660   5.547949   4.441755   3.442659   2.789217
    23  H    5.363486   4.292527   3.352547   2.871082   2.856707
    24  H    7.964004   6.945086   5.659352   5.172722   4.206929
    25  H    7.167102   5.989922   4.851659   4.811153   4.251887
    26  H    8.441772   7.390329   6.456412   5.771964   5.278651
    27  H    7.630417   6.440684   5.705163   5.383245   5.257431
    28  H    9.993094   8.773090   7.968422   7.669712   7.300387
    29  H    9.329174   8.064219   7.160016   7.114143   6.680414
    30  H   10.156214   9.045029   7.833565   7.474239   6.550552
    31  H   10.702549   9.621430   8.516155   7.928285   7.102725
    32  H   11.372751  10.189353   9.119377   8.806143   8.046198
                    6          7          8          9         10
     6  C    0.000000
     7  C    1.540725   0.000000
     8  C    2.563850   1.538819   0.000000
     9  C    3.940263   2.563671   1.540808   0.000000
    10  C    5.149554   3.952482   2.586558   1.540786   0.000000
    11  C    5.603947   4.615365   3.191009   2.583030   1.537167
    12  O    5.228263   5.347297   6.339554   6.926944   8.094495
    13  H    6.262621   6.693174   7.940588   8.669806   9.972084
    14  H    3.451665   4.451983   5.549780   6.727566   7.918453
    15  H    2.885894   3.362801   4.301362   5.294674   6.446064
    16  H    3.522614   4.141658   5.633651   6.561272   8.014915
    17  H    2.893551   2.886788   4.351251   5.045832   6.522308
    18  H    2.158384   3.511411   4.717099   6.041649   7.302323
    19  H    2.159243   2.843425   4.238026   5.288715   6.691695
    20  H    1.090869   2.167644   2.807647   4.238171   5.275769
    21  H    1.091477   2.157735   2.753828   4.199430   5.247905
    22  H    2.164954   1.091495   2.162860   2.787176   4.247135
    23  H    2.167136   1.091146   2.157147   2.777913   4.203811
    24  H    2.781913   2.158620   1.090881   2.167706   2.846492
    25  H    2.785122   2.162453   1.091569   2.163908   2.789372
    26  H    4.240296   2.807546   2.168437   1.091541   2.165249
    27  H    4.200192   2.757807   2.158041   1.091564   2.151731
    28  H    6.034199   4.711099   3.504993   2.155430   1.091309
    29  H    5.260749   4.228852   2.814609   2.168235   1.091398
    30  H    5.095237   4.373072   2.936523   2.894675   2.189090
    31  H    5.820391   4.765542   3.544575   2.828042   2.184678
    32  H    6.610794   5.655016   4.187333   3.521713   2.178391
                   11         12         13         14         15
    11  C    0.000000
    12  O    9.293672   0.000000
    13  H   11.051303   2.258927   0.000000
    14  H    8.694549   3.132329   3.458305   0.000000
    15  H    7.398547   2.539141   3.940146   1.750363   0.000000
    16  H    8.754227   3.816327   3.593911   2.564240   3.074906
    17  H    7.412499   3.413895   4.135370   3.086227   2.515642
    18  H    7.695058   5.242199   5.470220   2.631918   3.262000
    19  H    7.082621   5.593010   5.935741   3.796567   3.863345
    20  H    5.816359   4.871533   6.063582   3.015292   2.354589
    21  H    5.395851   6.287616   7.222375   4.233171   3.886990
    22  H    4.765653   5.945583   7.090814   5.091876   4.174670
    23  H    5.162178   4.464612   5.970388   4.172295   2.826161
    24  H    2.880558   7.234789   8.701082   6.058915   5.031155
    25  H    3.504113   6.077035   7.814410   5.309053   3.984808
    26  H    2.808294   7.429589   9.012976   7.191758   5.869345
    27  H    3.498700   6.251081   8.095853   6.522688   4.953492
    28  H    2.150799   8.536041  10.463666   8.686874   7.137141
    29  H    2.163077   7.864032   9.846163   7.737226   6.222261
    30  H    1.090083   9.165852  10.841759   8.226805   7.069205
    31  H    1.090593   9.694803  11.340688   9.065759   7.832369
    32  H    1.090437  10.138761  11.975400   9.616944   8.284894
                   16         17         18         19         20
    16  H    0.000000
    17  H    1.739032   0.000000
    18  H    2.457121   3.059281   0.000000
    19  H    2.427732   2.482883   1.735060   0.000000
    20  H    3.869354   3.305213   2.487485   3.060745   0.000000
    21  H    4.293130   3.867550   2.431799   2.461789   1.735212
    22  H    4.222032   3.012394   3.769044   2.605612   3.064585
    23  H    3.871980   2.338489   3.846036   3.238326   2.507486
    24  H    6.115593   5.029012   4.825819   4.365310   3.127514
    25  H    5.878723   4.657181   4.885505   4.769858   2.585820
    26  H    6.642141   5.150962   6.214690   5.187145   4.774722
    27  H    6.354347   4.713415   6.210471   5.470435   4.407338
    28  H    8.651952   7.065074   8.166284   7.435617   6.196241
    29  H    8.172053   6.711057   7.406658   7.033552   5.158516
    30  H    8.442199   7.251258   7.118655   6.677169   5.252714
    31  H    8.826232   7.501085   7.831051   7.010653   6.219365
    32  H    9.795608   8.435594   8.707041   8.156569   6.737391
                   21         22         23         24         25
    21  H    0.000000
    22  H    2.531498   0.000000
    23  H    3.058758   1.746306   0.000000
    24  H    2.524295   2.510620   3.053780   0.000000
    25  H    3.054046   3.060896   2.508873   1.745688   0.000000
    26  H    4.412260   2.587818   3.122911   2.510418   3.064665
    27  H    4.704662   3.063667   2.524069   3.059514   2.526147
    28  H    6.208822   4.892984   4.806645   3.851453   3.747856
    29  H    5.416781   4.762356   4.380050   3.175120   2.575143
    30  H    4.738052   4.619628   5.069909   2.346932   3.148054
    31  H    5.556507   4.663155   5.373403   3.140641   4.127429
    32  H    6.386917   5.847419   6.149731   3.892312   4.339160
                   26         27         28         29         30
    26  H    0.000000
    27  H    1.740222   0.000000
    28  H    2.507268   2.406630   0.000000
    29  H    3.065603   2.507974   1.739301   0.000000
    30  H    3.224592   3.894063   3.069167   2.516785   0.000000
    31  H    2.614084   3.781981   2.535887   3.077052   1.763116
    32  H    3.788626   4.310107   2.460850   2.512510   1.755696
                   31         32
    31  H    0.000000
    32  H    1.759397   0.000000
 Stoichiometry    C10H20O2
 Framework group  C1[X(C10H20O2)]
 Deg. of freedom    90
 Full point group                 C1      NOp   1
 Largest Abelian subgroup         C1      NOp   1
 Largest concise Abelian subgroup C1      NOp   1
                         Standard orientation:                         
 ---------------------------------------------------------------------
 Center     Atomic      Atomic             Coordinates (Angstroms)
 Number     Number       Type             X           Y           Z
 ---------------------------------------------------------------------
      1          8           0       -4.868317   -0.325783    0.144397
      2          6           0       -3.697908   -0.924561   -0.164918
      3          6           0       -2.624761    0.072874   -0.586185
      4          6           0       -2.111055    0.949117    0.580909
      5          6           0       -1.099336    2.031114    0.147545
      6          6           0        0.197763    1.512475   -0.509461
      7          6           0        1.042157    0.593976    0.394525
      8          6           0        2.372650    0.178425   -0.257452
      9          6           0        3.214644   -0.743925    0.644992
     10          6           0        4.516515   -1.246980   -0.007762
     11          6           0        5.547474   -0.141274   -0.286005
     12          8           0       -3.528508   -2.133837   -0.116984
     13          1           0       -5.445863   -1.050434    0.385746
     14          1           0       -3.037327    0.687615   -1.385696
     15          1           0       -1.805876   -0.501019   -1.019025
     16          1           0       -2.954774    1.450495    1.061041
     17          1           0       -1.666415    0.319973    1.354785
     18          1           0       -1.591708    2.718847   -0.542324
     19          1           0       -0.836381    2.635567    1.017477
     20          1           0       -0.038389    0.996312   -1.441021
     21          1           0        0.801445    2.373582   -0.801670
     22          1           0        1.243336    1.099503    1.340744
     23          1           0        0.471980   -0.302804    0.642080
     24          1           0        2.944830    1.073556   -0.505186
     25          1           0        2.170808   -0.326456   -1.203960
     26          1           0        3.450072   -0.230990    1.579301
     27          1           0        2.612513   -1.609729    0.926656
     28          1           0        4.972096   -1.991817    0.646927
     29          1           0        4.284463   -1.772761   -0.935585
     30          1           0        5.180552    0.577627   -1.018692
     31          1           0        5.798459    0.405537    0.623609
     32          1           0        6.471913   -0.563099   -0.681643
 ---------------------------------------------------------------------
 Rotational constants (GHZ):           1.7888099           0.2539802           0.2308939
 Standard basis: 6-31G(d,p) (6D, 7F)
 There are   280 symmetry adapted cartesian basis functions of A   symmetry.
 There are   280 symmetry adapted basis functions of A   symmetry.
   280 basis functions,   476 primitive gaussians,   280 cartesian basis functions
    48 alpha electrons       48 beta electrons
       nuclear repulsion energy       694.5069427929 Hartrees.
 NAtoms=   32 NActive=   32 NUniq=   32 SFac= 1.00D+00 NAtFMM=   60 NAOKFM=F Big=F
 Integral buffers will be    131072 words long.
 Raffenetti 2 integral format.
 Two-electron integral symmetry is turned on.
 Nuclear repulsion after empirical dispersion term =      694.4600309802 Hartrees.
 One-electron integrals computed using PRISM.
 NBasis=   280 RedAO= T EigKep=  2.90D-03  NBF=   280
 NBsUse=   280 1.00D-06 EigRej= -1.00D+00 NBFU=   280
 ExpMin= 1.61D-01 ExpMax= 5.48D+03 ExpMxC= 8.25D+02 IAcc=3 IRadAn=         5 AccDes= 0.00D+00
 Harris functional with IExCor=  402 and IRadAn=       5 diagonalized for initial guess.
 HarFok:  IExCor=  402 AccDes= 0.00D+00 IRadAn=         5 IDoV= 1 UseB2=F ITyADJ=14
 ICtDFT=  3500011 ScaDFX=  1.000000  1.000000  1.000000  1.000000
 FoFCou: FMM=F IPFlag=           0 FMFlag=      100000 FMFlg1=           0
         NFxFlg=           0 DoJE=T BraDBF=F KetDBF=T FulRan=T
         wScrn=  0.000000 ICntrl=       500 IOpCl=  0 I1Cent=   200000004 NGrid=           0
         NMat0=    1 NMatS0=      1 NMatT0=    0 NMatD0=    1 NMtDS0=    0 NMtDT0=    0
 Petite list used in FoFCou.
 Requested convergence on RMS density matrix=1.00D-08 within 128 cycles.
 Requested convergence on MAX density matrix=1.00D-06.
 Requested convergence on             energy=1.00D-06.
 No special actions if energy rises.
 Integral accuracy reduced to 1.0D-05 until final iterations.
 Initial convergence to 1.0D-05 achieved.  Increase integral accuracy.
 SCF Done:  E(RB3LYP) =  -543.664481463     A.U. after   13 cycles
            NFock= 13  Conv=0.77D-08     -V/T= 2.0096

 **********************************************************************

            Population analysis using the SCF Density.

 **********************************************************************

 Orbital symmetries:
       Occupied  (A) (A) (A) (A) (A) (A) (A) (A) (A) (A) (A) (A)
                 (A) (A) (A) (A) (A) (A) (A) (A) (A) (A) (A) (A)
                 (A) (A) (A) (A) (A) (A) (A) (A) (A) (A) (A) (A)
                 (A) (A) (A) (A) (A) (A) (A) (A) (A) (A) (A) (A)
       Virtual   (A) (A) (A) (A) (A) (A) (A) (A) (A) (A) (A) (A)
                 (A) (A) (A) (A) (A) (A) (A) (A) (A) (A) (A) (A)
                 (A) (A) (A) (A) (A) (A) (A) (A) (A) (A) (A) (A)
                 (A) (A) (A) (A) (A) (A) (A) (A) (A) (A) (A) (A)
                 (A) (A) (A) (A) (A) (A) (A) (A) (A) (A) (A) (A)
                 (A) (A) (A) (A) (A) (A) (A) (A) (A) (A) (A) (A)
                 (A) (A) (A) (A) (A) (A) (A) (A) (A) (A) (A) (A)
                 (A) (A) (A) (A) (A) (A) (A) (A) (A) (A) (A) (A)
                 (A) (A) (A) (A) (A) (A) (A) (A) (A) (A) (A) (A)
                 (A) (A) (A) (A) (A) (A) (A) (A) (A) (A) (A) (A)
                 (A) (A) (A) (A) (A) (A) (A) (A) (A) (A) (A) (A)
                 (A) (A) (A) (A) (A) (A) (A) (A) (A) (A) (A) (A)
                 (A) (A) (A) (A) (A) (A) (A) (A) (A) (A) (A) (A)
                 (A) (A) (A) (A) (A) (A) (A) (A) (A) (A) (A) (A)
                 (A) (A) (A) (A) (A) (A) (A) (A) (A) (A) (A) (A)
                 (A) (A) (A) (A) (A) (A) (A) (A) (A) (A) (A) (A)
                 (A) (A) (A) (A) (A) (A) (A) (A) (A) (A) (A) (A)
                 (A) (A) (A) (A) (A) (A) (A) (A) (A) (A) (A) (A)
                 (A) (A) (A) (A) (A) (A) (A) (A) (A) (A) (A) (A)
                 (A) (A) (A) (A)
 The electronic state is 1-A.
 Alpha  occ. eigenvalues --  -19.19842 -19.13562 -10.31928 -10.19805 -10.19154
 Alpha  occ. eigenvalues --  -10.18382 -10.17917 -10.17649 -10.17574 -10.17471
 Alpha  occ. eigenvalues --  -10.17384 -10.16882  -1.10675  -1.00975  -0.81444
 Alpha  occ. eigenvalues --   -0.79517  -0.76579  -0.72932  -0.68647  -0.64749
 Alpha  occ. eigenvalues --   -0.61223  -0.59852  -0.56561  -0.56051  -0.49110
 Alpha  occ. eigenvalues --   -0.48367  -0.47158  -0.45813  -0.45013  -0.44362
 Alpha  occ. eigenvalues --   -0.43290  -0.42186  -0.40152  -0.39731  -0.39392
 Alpha  occ. eigenvalues --   -0.38340  -0.36846  -0.36158  -0.35724  -0.34210
 Alpha  occ. eigenvalues --   -0.33697  -0.32535  -0.32386  -0.31987  -0.31528
 Alpha  occ. eigenvalues --   -0.31312  -0.29765  -0.26785
 Alpha virt. eigenvalues --    0.00884   0.07259   0.09096   0.09722   0.11108
 Alpha virt. eigenvalues --    0.11698   0.12573   0.13941   0.14294   0.14601
 Alpha virt. eigenvalues --    0.16201   0.16585   0.16929   0.17307   0.18497
 Alpha virt. eigenvalues --    0.18764   0.18974   0.19586   0.19953   0.21110
 Alpha virt. eigenvalues --    0.22071   0.22517   0.22979   0.23912   0.24734
 Alpha virt. eigenvalues --    0.25793   0.26501   0.26903   0.28799   0.30645
 Alpha virt. eigenvalues --    0.32363   0.35163   0.48843   0.49610   0.49872
 Alpha virt. eigenvalues --    0.52141   0.52360   0.53175   0.54395   0.54905
 Alpha virt. eigenvalues --    0.56253   0.57292   0.57805   0.59221   0.61897
 Alpha virt. eigenvalues --    0.64092   0.64377   0.65739   0.66275   0.67457
 Alpha virt. eigenvalues --    0.68087   0.69369   0.71022   0.71718   0.74498
 Alpha virt. eigenvalues --    0.75154   0.77857   0.78876   0.79948   0.81686
 Alpha virt. eigenvalues --    0.82285   0.83558   0.84768   0.85702   0.86172
 Alpha virt. eigenvalues --    0.87005   0.87499   0.88199   0.89358   0.89895
 Alpha virt. eigenvalues --    0.91182   0.91457   0.92304   0.93171   0.94407
 Alpha virt. eigenvalues --    0.94611   0.95109   0.95804   0.96213   0.98043
 Alpha virt. eigenvalues --    0.98483   1.00125   1.01890   1.03551   1.05234
 Alpha virt. eigenvalues --    1.06455   1.07328   1.10385   1.11602   1.18190
 Alpha virt. eigenvalues --    1.22619   1.27630   1.27842   1.31249   1.33524
 Alpha virt. eigenvalues --    1.37837   1.39308   1.40799   1.43504   1.46218
 Alpha virt. eigenvalues --    1.48341   1.50027   1.53313   1.56011   1.57557
 Alpha virt. eigenvalues --    1.58746   1.61328   1.62103   1.66455   1.67647
 Alpha virt. eigenvalues --    1.68245   1.70945   1.71375   1.71687   1.74398
 Alpha virt. eigenvalues --    1.76366   1.77874   1.80117   1.81702   1.82102
 Alpha virt. eigenvalues --    1.84227   1.85599   1.86076   1.86682   1.88528
 Alpha virt. eigenvalues --    1.89534   1.90557   1.90944   1.94771   1.95494
 Alpha virt. eigenvalues --    1.98926   2.00384   2.05917   2.07123   2.08951
 Alpha virt. eigenvalues --    2.09767   2.10211   2.11807   2.12558   2.15183
 Alpha virt. eigenvalues --    2.15416   2.15576   2.17267   2.18573   2.19813
 Alpha virt. eigenvalues --    2.22779   2.23414   2.25436   2.26594   2.26848
 Alpha virt. eigenvalues --    2.27743   2.28697   2.29876   2.31638   2.31971
 Alpha virt. eigenvalues --    2.34838   2.35671   2.37741   2.38651   2.40269
 Alpha virt. eigenvalues --    2.42607   2.43191   2.44754   2.47709   2.49047
 Alpha virt. eigenvalues --    2.53767   2.54209   2.55800   2.56382   2.59096
 Alpha virt. eigenvalues --    2.60524   2.61750   2.63311   2.64552   2.66135
 Alpha virt. eigenvalues --    2.69425   2.70821   2.72609   2.73058   2.73971
 Alpha virt. eigenvalues --    2.75872   2.78767   2.79623   2.82205   2.82414
 Alpha virt. eigenvalues --    2.85170   2.86323   2.86943   2.89830   2.90308
 Alpha virt. eigenvalues --    2.90666   2.90783   2.91551   2.91709   2.93020
 Alpha virt. eigenvalues --    2.93576   2.94992   2.95443   3.02524   3.11629
 Alpha virt. eigenvalues --    3.20483   3.24827   3.27966   3.30135   3.30963
 Alpha virt. eigenvalues --    3.33475   3.34218   3.35516   3.36827   3.38586
 Alpha virt. eigenvalues --    3.43610   3.44332   3.45246   3.47364   3.49735
 Alpha virt. eigenvalues --    3.52654   3.56194   3.57189   3.59517   3.60533
 Alpha virt. eigenvalues --    3.92014   4.10951   4.23999   4.30341   4.35572
 Alpha virt. eigenvalues --    4.41805   4.49229   4.56988   4.61734   4.65783
 Alpha virt. eigenvalues --    4.72293   4.76737
          Condensed to atoms (all electrons):
               1          2          3          4          5          6
     1  O    8.118773   0.248685  -0.099290   0.001184  -0.000013  -0.000002
     2  C    0.248685   4.388829   0.341117  -0.023196   0.002588   0.000106
     3  C   -0.099290   0.341117   5.091038   0.352102  -0.038565  -0.003582
     4  C    0.001184  -0.023196   0.352102   4.905192   0.371071  -0.044115
     5  C   -0.000013   0.002588  -0.038565   0.371071   4.921985   0.364525
     6  C   -0.000002   0.000106  -0.003582  -0.044115   0.364525   4.920005
     7  C   -0.000000  -0.000010  -0.001652  -0.004011  -0.039314   0.372455
     8  C   -0.000000   0.000000  -0.000002   0.000151   0.003525  -0.034334
     9  C    0.000000   0.000000   0.000000   0.000002  -0.000122   0.003379
    10  C   -0.000000   0.000000   0.000000   0.000000   0.000001  -0.000122
    11  C    0.000000  -0.000000   0.000000  -0.000000   0.000000   0.000002
    12  O   -0.083543   0.575673  -0.074118  -0.000844  -0.000039  -0.000004
    13  H    0.268788  -0.009982   0.010822  -0.000132   0.000012   0.000000
    14  H    0.002660  -0.025177   0.356566  -0.030422  -0.005005  -0.000919
    15  H    0.003390  -0.031133   0.374541  -0.030035  -0.004981   0.002731
    16  H    0.005070  -0.005270  -0.040859   0.382610  -0.030035   0.004672
    17  H   -0.000032  -0.000650  -0.043224   0.385761  -0.037814  -0.007196
    18  H    0.000007  -0.000007  -0.006573  -0.039909   0.376514  -0.032976
    19  H   -0.000001  -0.000088   0.004691  -0.033668   0.378710  -0.038074
    20  H   -0.000000  -0.000030   0.003796  -0.008133  -0.037889   0.382410
    21  H    0.000000  -0.000003   0.000011   0.005049  -0.032080   0.379645
    22  H   -0.000000   0.000001   0.000112  -0.001129  -0.002486  -0.041216
    23  H    0.000000  -0.000047   0.000219   0.002541  -0.004739  -0.038109
    24  H   -0.000000  -0.000000  -0.000001   0.000003   0.000006  -0.003910
    25  H   -0.000000  -0.000000   0.000004  -0.000017   0.000086  -0.003670
    26  H   -0.000000  -0.000000  -0.000000   0.000000   0.000002   0.000035
    27  H   -0.000000  -0.000000   0.000000  -0.000003   0.000003   0.000074
    28  H    0.000000  -0.000000  -0.000000   0.000000  -0.000000   0.000001
    29  H   -0.000000  -0.000000  -0.000000   0.000000   0.000000  -0.000001
    30  H   -0.000000  -0.000000  -0.000000   0.000000  -0.000000   0.000006
    31  H    0.000000   0.000000  -0.000000   0.000000  -0.000000   0.000000
    32  H   -0.000000  -0.000000  -0.000000   0.000000   0.000000  -0.000000
               7          8          9         10         11         12
     1  O   -0.000000  -0.000000   0.000000  -0.000000   0.000000  -0.083543
     2  C   -0.000010   0.000000   0.000000   0.000000  -0.000000   0.575673
     3  C   -0.001652  -0.000002   0.000000   0.000000   0.000000  -0.074118
     4  C   -0.004011   0.000151   0.000002   0.000000  -0.000000  -0.000844
     5  C   -0.039314   0.003525  -0.000122   0.000001   0.000000  -0.000039
     6  C    0.372455  -0.034334   0.003379  -0.000122   0.000002  -0.000004
     7  C    4.901819   0.375138  -0.034540   0.003527   0.000137   0.000000
     8  C    0.375138   4.896526   0.376345  -0.038777  -0.004862  -0.000000
     9  C   -0.034540   0.376345   4.901609   0.373140  -0.045714  -0.000000
    10  C    0.003527  -0.038777   0.373140   4.876485   0.375868   0.000000
    11  C    0.000137  -0.004862  -0.045714   0.375868   4.915390   0.000000
    12  O    0.000000  -0.000000  -0.000000   0.000000   0.000000   8.032479
    13  H    0.000000   0.000000   0.000000   0.000000  -0.000000   0.011385
    14  H    0.000096  -0.000000   0.000000  -0.000000   0.000000   0.002383
    15  H    0.000385  -0.000052  -0.000001  -0.000000  -0.000000   0.002465
    16  H    0.000075  -0.000002  -0.000000   0.000000   0.000000  -0.000008
    17  H    0.003803  -0.000114   0.000007  -0.000000   0.000000   0.001044
    18  H    0.004558  -0.000131   0.000001  -0.000000   0.000000  -0.000000
    19  H   -0.006613   0.000033  -0.000001   0.000000   0.000000   0.000001
    20  H   -0.039912  -0.003455   0.000025   0.000002   0.000000   0.000001
    21  H   -0.040321  -0.004491   0.000062   0.000002  -0.000003  -0.000000
    22  H    0.382968  -0.038849  -0.003432   0.000071  -0.000014   0.000000
    23  H    0.384266  -0.038214  -0.003776   0.000010   0.000002  -0.000000
    24  H   -0.038928   0.383796  -0.038778  -0.003990   0.002670   0.000000
    25  H   -0.038945   0.382754  -0.040330  -0.003273  -0.000695   0.000000
    26  H   -0.003766  -0.040117   0.381008  -0.038198  -0.007106  -0.000000
    27  H   -0.004716  -0.040207   0.379734  -0.033456   0.005076   0.000000
    28  H   -0.000138   0.004525  -0.031695   0.380459  -0.039773  -0.000000
    29  H    0.000051  -0.007592  -0.038068   0.385493  -0.040085  -0.000000
    30  H   -0.000102   0.002442  -0.004651  -0.035086   0.388410  -0.000000
    31  H   -0.000024  -0.000665  -0.004630  -0.035781   0.386838   0.000000
    32  H   -0.000001   0.000133   0.004319  -0.028179   0.381072  -0.000000
              13         14         15         16         17         18
     1  O    0.268788   0.002660   0.003390   0.005070  -0.000032   0.000007
     2  C   -0.009982  -0.025177  -0.031133  -0.005270  -0.000650  -0.000007
     3  C    0.010822   0.356566   0.374541  -0.040859  -0.043224  -0.006573
     4  C   -0.000132  -0.030422  -0.030035   0.382610   0.385761  -0.039909
     5  C    0.000012  -0.005005  -0.004981  -0.030035  -0.037814   0.376514
     6  C    0.000000  -0.000919   0.002731   0.004672  -0.007196  -0.032976
     7  C    0.000000   0.000096   0.000385   0.000075   0.003803   0.004558
     8  C    0.000000  -0.000000  -0.000052  -0.000002  -0.000114  -0.000131
     9  C    0.000000   0.000000  -0.000001  -0.000000   0.000007   0.000001
    10  C    0.000000  -0.000000  -0.000000   0.000000  -0.000000  -0.000000
    11  C   -0.000000   0.000000  -0.000000   0.000000   0.000000   0.000000
    12  O    0.011385   0.002383   0.002465  -0.000008   0.001044  -0.000000
    13  H    0.401723  -0.000524  -0.000348  -0.000206  -0.000061  -0.000000
    14  H   -0.000524   0.605987  -0.033937  -0.004368   0.005732   0.004737
    15  H   -0.000348  -0.033937   0.583016   0.005303  -0.005768  -0.000215
    16  H   -0.000206  -0.004368   0.005303   0.617605  -0.037761  -0.004242
    17  H   -0.000061   0.005732  -0.005768  -0.037761   0.621418   0.005872
    18  H   -0.000000   0.004737  -0.000215  -0.004242   0.005872   0.646420
    19  H   -0.000000   0.000077  -0.000000  -0.003824  -0.003373  -0.038063
    20  H   -0.000000   0.000456   0.001314  -0.000025   0.000074  -0.003525
    21  H   -0.000000  -0.000041  -0.000073  -0.000144  -0.000007  -0.003743
    22  H   -0.000000  -0.000001  -0.000025  -0.000041   0.000558   0.000028
    23  H   -0.000000  -0.000025   0.000989  -0.000027   0.001463  -0.000050
    24  H    0.000000  -0.000000   0.000002   0.000000  -0.000000  -0.000005
    25  H   -0.000000  -0.000000   0.000013  -0.000000   0.000008   0.000004
    26  H    0.000000  -0.000000   0.000000  -0.000000   0.000001   0.000000
    27  H    0.000000   0.000000  -0.000000   0.000000  -0.000002   0.000000
    28  H   -0.000000   0.000000   0.000000  -0.000000   0.000000   0.000000
    29  H    0.000000   0.000000   0.000000   0.000000   0.000000  -0.000000
    30  H    0.000000   0.000000   0.000000  -0.000000   0.000000   0.000000
    31  H   -0.000000   0.000000   0.000000   0.000000  -0.000000   0.000000
    32  H    0.000000  -0.000000   0.000000   0.000000  -0.000000  -0.000000
              19         20         21         22         23         24
     1  O   -0.000001  -0.000000   0.000000  -0.000000   0.000000  -0.000000
     2  C   -0.000088  -0.000030  -0.000003   0.000001  -0.000047  -0.000000
     3  C    0.004691   0.003796   0.000011   0.000112   0.000219  -0.000001
     4  C   -0.033668  -0.008133   0.005049  -0.001129   0.002541   0.000003
     5  C    0.378710  -0.037889  -0.032080  -0.002486  -0.004739   0.000006
     6  C   -0.038074   0.382410   0.379645  -0.041216  -0.038109  -0.003910
     7  C   -0.006613  -0.039912  -0.040321   0.382968   0.384266  -0.038928
     8  C    0.000033  -0.003455  -0.004491  -0.038849  -0.038214   0.383796
     9  C   -0.000001   0.000025   0.000062  -0.003432  -0.003776  -0.038778
    10  C    0.000000   0.000002   0.000002   0.000071   0.000010  -0.003990
    11  C    0.000000   0.000000  -0.000003  -0.000014   0.000002   0.002670
    12  O    0.000001   0.000001  -0.000000   0.000000  -0.000000   0.000000
    13  H   -0.000000  -0.000000  -0.000000  -0.000000  -0.000000   0.000000
    14  H    0.000077   0.000456  -0.000041  -0.000001  -0.000025  -0.000000
    15  H   -0.000000   0.001314  -0.000073  -0.000025   0.000989   0.000002
    16  H   -0.003824  -0.000025  -0.000144  -0.000041  -0.000027   0.000000
    17  H   -0.003373   0.000074  -0.000007   0.000558   0.001463  -0.000000
    18  H   -0.038063  -0.003525  -0.003743   0.000028  -0.000050  -0.000005
    19  H    0.639914   0.005960  -0.004442   0.005098  -0.000286   0.000001
    20  H    0.005960   0.643093  -0.040067   0.006149  -0.006503  -0.000566
    21  H   -0.004442  -0.040067   0.644256  -0.005358   0.006070   0.005555
    22  H    0.005098   0.006149  -0.005358   0.645798  -0.042018  -0.006052
    23  H   -0.000286  -0.006503   0.006070  -0.042018   0.635737   0.005998
    24  H    0.000001  -0.000566   0.005555  -0.006052   0.005998   0.641800
    25  H    0.000007   0.004749  -0.000574   0.006078  -0.006059  -0.042148
    26  H   -0.000001   0.000005   0.000003   0.004748  -0.000554  -0.006125
    27  H    0.000000   0.000003   0.000009  -0.000557   0.005512   0.006104
    28  H   -0.000000   0.000000   0.000000   0.000004  -0.000005  -0.000026
    29  H   -0.000000  -0.000001   0.000000   0.000008   0.000002  -0.000240
    30  H    0.000000   0.000001  -0.000003   0.000010  -0.000001   0.001886
    31  H   -0.000000  -0.000000   0.000000   0.000001   0.000000   0.000387
    32  H    0.000000  -0.000000   0.000000  -0.000000   0.000000  -0.000120
              25         26         27         28         29         30
     1  O   -0.000000  -0.000000  -0.000000   0.000000  -0.000000  -0.000000
     2  C   -0.000000  -0.000000  -0.000000  -0.000000  -0.000000  -0.000000
     3  C    0.000004  -0.000000   0.000000  -0.000000  -0.000000  -0.000000
     4  C   -0.000017   0.000000  -0.000003   0.000000   0.000000   0.000000
     5  C    0.000086   0.000002   0.000003  -0.000000   0.000000  -0.000000
     6  C   -0.003670   0.000035   0.000074   0.000001  -0.000001   0.000006
     7  C   -0.038945  -0.003766  -0.004716  -0.000138   0.000051  -0.000102
     8  C    0.382754  -0.040117  -0.040207   0.004525  -0.007592   0.002442
     9  C   -0.040330   0.381008   0.379734  -0.031695  -0.038068  -0.004651
    10  C   -0.003273  -0.038198  -0.033456   0.380459   0.385493  -0.035086
    11  C   -0.000695  -0.007106   0.005076  -0.039773  -0.040085   0.388410
    12  O    0.000000  -0.000000   0.000000  -0.000000  -0.000000  -0.000000
    13  H   -0.000000   0.000000   0.000000  -0.000000   0.000000   0.000000
    14  H   -0.000000  -0.000000   0.000000   0.000000   0.000000   0.000000
    15  H    0.000013   0.000000  -0.000000   0.000000   0.000000   0.000000
    16  H   -0.000000  -0.000000   0.000000  -0.000000   0.000000  -0.000000
    17  H    0.000008   0.000001  -0.000002   0.000000   0.000000   0.000000
    18  H    0.000004   0.000000   0.000000   0.000000  -0.000000   0.000000
    19  H    0.000007  -0.000001   0.000000  -0.000000  -0.000000   0.000000
    20  H    0.004749   0.000005   0.000003   0.000000  -0.000001   0.000001
    21  H   -0.000574   0.000003   0.000009   0.000000   0.000000  -0.000003
    22  H    0.006078   0.004748  -0.000557   0.000004   0.000008   0.000010
    23  H   -0.006059  -0.000554   0.005512  -0.000005   0.000002  -0.000001
    24  H   -0.042148  -0.006125   0.006104  -0.000026  -0.000240   0.001886
    25  H    0.645706   0.006131  -0.005444   0.000034   0.005580   0.000427
    26  H    0.006131   0.648433  -0.040481  -0.003149   0.006087  -0.000150
    27  H   -0.005444  -0.040481   0.646440  -0.004433  -0.003198  -0.000023
    28  H    0.000034  -0.003149  -0.004433   0.646523  -0.039851   0.005531
    29  H    0.005580   0.006087  -0.003198  -0.039851   0.641746  -0.005246
    30  H    0.000427  -0.000150  -0.000023   0.005531  -0.005246   0.608008
    31  H    0.000081   0.005408   0.000031  -0.004410   0.005523  -0.034102
    32  H   -0.000024   0.000007  -0.000184  -0.004149  -0.002587  -0.032156
              31         32
     1  O    0.000000  -0.000000
     2  C    0.000000  -0.000000
     3  C   -0.000000  -0.000000
     4  C    0.000000   0.000000
     5  C   -0.000000   0.000000
     6  C    0.000000  -0.000000
     7  C   -0.000024  -0.000001
     8  C   -0.000665   0.000133
     9  C   -0.004630   0.004319
    10  C   -0.035781  -0.028179
    11  C    0.386838   0.381072
    12  O    0.000000  -0.000000
    13  H   -0.000000   0.000000
    14  H    0.000000  -0.000000
    15  H    0.000000   0.000000
    16  H    0.000000   0.000000
    17  H   -0.000000  -0.000000
    18  H    0.000000  -0.000000
    19  H   -0.000000   0.000000
    20  H   -0.000000  -0.000000
    21  H    0.000000   0.000000
    22  H    0.000001  -0.000000
    23  H    0.000000   0.000000
    24  H    0.000387  -0.000120
    25  H    0.000081  -0.000024
    26  H    0.005408   0.000007
    27  H    0.000031  -0.000184
    28  H   -0.004410  -0.004149
    29  H    0.005523  -0.002587
    30  H   -0.034102  -0.032156
    31  H    0.612550  -0.032504
    32  H   -0.032504   0.614623
 Mulliken charges:
               1
     1  O   -0.465676
     2  C    0.538593
     3  C   -0.227155
     4  C   -0.190053
     5  C   -0.185945
     6  C   -0.181818
     7  C   -0.176285
     8  C   -0.173503
     9  C   -0.173893
    10  C   -0.178195
    11  C   -0.317213
    12  O   -0.466874
    13  H    0.318523
    14  H    0.121726
    15  H    0.132420
    16  H    0.111476
    17  H    0.110262
    18  H    0.091299
    19  H    0.093940
    20  H    0.092069
    21  H    0.090686
    22  H    0.089548
    23  H    0.097603
    24  H    0.092679
    25  H    0.089518
    26  H    0.087780
    27  H    0.089717
    28  H    0.090551
    29  H    0.092378
    30  H    0.104800
    31  H    0.101296
    32  H    0.099749
 Sum of Mulliken charges =  -0.00000
 Mulliken charges with hydrogens summed into heavy atoms:
               1
     1  O   -0.147154
     2  C    0.538593
     3  C    0.026991
     4  C    0.031684
     5  C   -0.000705
     6  C    0.000937
     7  C    0.010865
     8  C    0.008694
     9  C    0.003603
    10  C    0.004734
    11  C   -0.011368
    12  O   -0.466874
 Electronic spatial extent (au):  <R**2>=           4681.7360
 Charge=             -0.0000 electrons
 Dipole moment (field-independent basis, Debye):
    X=             -0.1106    Y=              1.6691    Z=              0.1514  Tot=              1.6796
 Quadrupole moment (field-independent basis, Debye-Ang):
   XX=            -70.7852   YY=            -81.9211   ZZ=            -74.9929
   XY=             -2.6570   XZ=             -1.1097   YZ=             -0.6385
 Traceless Quadrupole moment (field-independent basis, Debye-Ang):
   XX=              5.1145   YY=             -6.0214   ZZ=              0.9068
   XY=             -2.6570   XZ=             -1.1097   YZ=             -0.6385
 Octapole moment (field-independent basis, Debye-Ang**2):
  XXX=            -98.2363  YYY=              9.1356  ZZZ=              0.0071  XYY=              5.2782
  XXY=            -14.3446  XXZ=             11.1944  XZZ=            -16.2361  YZZ=             -3.4047
  YYZ=              1.9639  XYZ=              5.0728
 Hexadecapole moment (field-independent basis, Debye-Ang**3):
 XXXX=          -4723.5420 YYYY=           -765.8671 ZZZZ=           -222.2984 XXXY=            156.5304
 XXXZ=            -64.9034 YYYX=            -20.4287 YYYZ=             -2.9558 ZZZX=              1.0548
 ZZZY=              2.5632 XXYY=          -1020.3573 XXZZ=           -877.3115 YYZZ=           -154.5593
 XXYZ=            -20.3582 YYXZ=             -6.9696 ZZXY=             14.7602
 N-N= 6.944600309802D+02 E-N=-2.652147991347D+03  KE= 5.384946875692D+02
 Calling FoFJK, ICntrl=      2127 FMM=F ISym2X=0 I1Cent= 0 IOpClX= 0 NMat=1 NMatS=1 NMatT=0.
 ***** Axes restored to original set *****
 -------------------------------------------------------------------
 Center     Atomic                   Forces (Hartrees/Bohr)
 Number     Number              X              Y              Z
 -------------------------------------------------------------------
      1        8          -0.005533314   -0.009065417   -0.002137008
      2        6          -0.000369591   -0.006539989   -0.022040650
      3        6          -0.002212764    0.006645270   -0.001475067
      4        6          -0.000470212   -0.004786728    0.003450065
      5        6           0.004986063    0.000516855   -0.006060565
      6        6          -0.004462601    0.007571350    0.001605243
      7        6           0.005703749   -0.008779961   -0.000095002
      8        6          -0.005383096    0.008935848    0.000395923
      9        6           0.006287039   -0.006825898   -0.001613849
     10        6          -0.006624199   -0.001711216    0.004126571
     11        6           0.004669342    0.003285238   -0.000341593
     12        8          -0.005632628   -0.004791932    0.016137340
     13        1           0.007157240    0.014277310    0.003692195
     14        1          -0.001356116   -0.003084413    0.005143202
     15        1           0.000455124    0.001838073   -0.001875189
     16        1           0.001812205    0.000741233    0.002290188
     17        1           0.001578295    0.001650696   -0.003284743
     18        1           0.002830731   -0.002377526    0.002610509
     19        1          -0.003734134    0.002421636   -0.000142270
     20        1           0.004394501    0.000154032   -0.001564587
     21        1          -0.002450238   -0.003195187    0.000371117
     22        1          -0.004302134    0.000806084    0.001259649
     23        1           0.001922019    0.003583510   -0.000770140
     24        1          -0.002058636   -0.003471019    0.000796969
     25        1           0.004326396   -0.000654722   -0.001171490
     26        1          -0.004617220   -0.000312160    0.001163849
     27        1           0.002676470    0.003400858    0.000485929
     28        1          -0.001475622    0.002823167   -0.002299508
     29        1           0.004178186   -0.001258387    0.000520192
     30        1           0.000516729   -0.001860666    0.002280602
     31        1          -0.002986193    0.001176878    0.001226928
     32        1           0.000174612   -0.001112818   -0.002684810
 -------------------------------------------------------------------
 Cartesian Forces:  Max     0.022040650 RMS     0.004777490

 GradGradGradGradGradGradGradGradGradGradGradGradGradGradGradGradGradGrad
 Berny optimization.
 FormGI is forming the generalized inverse of G from B-inverse, IUseBI=4.
 Internal  Forces:  Max     0.016712205 RMS     0.002759915
 Search for a local minimum.
 Step number   1 out of a maximum of  179
 All quantities printed in internal units (Hartrees-Bohrs-Radians)
 Mixed Optimization -- RFO/linear search
 Second derivative matrix not updated -- first step.
 ITU=  0
     Eigenvalues ---    0.00230   0.00230   0.00230   0.00230   0.00230
     Eigenvalues ---    0.00230   0.00252   0.00274   0.00442   0.00912
     Eigenvalues ---    0.02346   0.03105   0.03227   0.03256   0.03274
     Eigenvalues ---    0.03279   0.03414   0.03414   0.03901   0.04646
     Eigenvalues ---    0.04679   0.04689   0.04689   0.04705   0.04734
     Eigenvalues ---    0.04734   0.05169   0.05350   0.05458   0.08298
     Eigenvalues ---    0.08299   0.08494   0.08548   0.08555   0.08584
     Eigenvalues ---    0.08832   0.09532   0.12191   0.12192   0.12337
     Eigenvalues ---    0.12376   0.12379   0.12403   0.12572   0.12885
     Eigenvalues ---    0.16000   0.16000   0.16000   0.16000   0.21890
     Eigenvalues ---    0.21894   0.21896   0.21896   0.21905   0.21908
     Eigenvalues ---    0.21928   0.21955   0.25000   0.25000   0.27891
     Eigenvalues ---    0.28191   0.28219   0.28447   0.28449   0.28455
     Eigenvalues ---    0.28624   0.28771   0.29941   0.34514   0.34585
     Eigenvalues ---    0.34632   0.34633   0.34635   0.34640   0.34642
     Eigenvalues ---    0.34643   0.34644   0.34652   0.34662   0.34680
     Eigenvalues ---    0.34711   0.34712   0.34744   0.34762   0.34803
     Eigenvalues ---    0.34853   0.34856   0.54898   0.56001   0.94492
 RFO step:  Lambda=-4.28714472D-03 EMin= 2.30000000D-03
 Linear search not attempted -- first point.
 Iteration  1 RMS(Cart)=  0.05884162 RMS(Int)=  0.00059286
 Iteration  2 RMS(Cart)=  0.00117562 RMS(Int)=  0.00019737
 Iteration  3 RMS(Cart)=  0.00000046 RMS(Int)=  0.00019737
 Variable       Old X    -DE/DX   Delta X   Delta X   Delta X     New X
                                 (Linear)    (Quad)   (Total)
    R1        2.55223   0.00291   0.00000   0.00526   0.00526   2.55749
    R2        1.80953   0.01596   0.00000   0.02829   0.02829   1.83782
    R3        2.88082  -0.00802   0.00000  -0.02641  -0.02641   2.85441
    R4        2.30929  -0.01671   0.00000  -0.01761  -0.01761   2.29168
    R5        2.92377  -0.00694   0.00000  -0.02452  -0.02452   2.89925
    R6        2.05914   0.00460   0.00000   0.01304   0.01304   2.07218
    R7        2.05909   0.00133   0.00000   0.00377   0.00377   2.06286
    R8        2.91661  -0.00488   0.00000  -0.01703  -0.01703   2.89958
    R9        2.06471   0.00204   0.00000   0.00585   0.00585   2.07056
   R10        2.06354   0.00250   0.00000   0.00715   0.00715   2.07068
   R11        2.91723  -0.00441   0.00000  -0.01540  -0.01540   2.90183
   R12        2.06260   0.00430   0.00000   0.01226   0.01226   2.07486
   R13        2.06257   0.00389   0.00000   0.01108   0.01108   2.07365
   R14        2.91155  -0.00469   0.00000  -0.01624  -0.01624   2.89531
   R15        2.06144   0.00446   0.00000   0.01271   0.01271   2.07415
   R16        2.06259   0.00399   0.00000   0.01137   0.01137   2.07396
   R17        2.90795  -0.00371   0.00000  -0.01278  -0.01278   2.89516
   R18        2.06263   0.00453   0.00000   0.01293   0.01293   2.07555
   R19        2.06197   0.00412   0.00000   0.01174   0.01174   2.07371
   R20        2.91171  -0.00451   0.00000  -0.01562  -0.01562   2.89608
   R21        2.06147   0.00410   0.00000   0.01166   0.01166   2.07312
   R22        2.06277   0.00450   0.00000   0.01283   0.01283   2.07559
   R23        2.91166  -0.00322   0.00000  -0.01116  -0.01116   2.90050
   R24        2.06271   0.00456   0.00000   0.01301   0.01301   2.07572
   R25        2.06276   0.00423   0.00000   0.01207   0.01207   2.07482
   R26        2.90482  -0.00258   0.00000  -0.00883  -0.00883   2.89599
   R27        2.06227   0.00387   0.00000   0.01102   0.01102   2.07330
   R28        2.06244   0.00416   0.00000   0.01186   0.01186   2.07430
   R29        2.05996   0.00292   0.00000   0.00830   0.00830   2.06825
   R30        2.06092   0.00334   0.00000   0.00949   0.00949   2.07041
   R31        2.06063   0.00291   0.00000   0.00827   0.00827   2.06890
    A1        1.81821   0.00673   0.00000   0.04095   0.04095   1.85916
    A2        1.96411  -0.00092   0.00000  -0.00347  -0.00438   1.95973
    A3        2.15300  -0.00639   0.00000  -0.02496  -0.02584   2.12717
    A4        2.16605   0.00732   0.00000   0.02892   0.02795   2.19400
    A5        1.97777  -0.00291   0.00000  -0.01877  -0.01893   1.95883
    A6        1.88110   0.00299   0.00000   0.01375   0.01329   1.89439
    A7        1.86942  -0.00054   0.00000  -0.00588  -0.00584   1.86358
    A8        1.93872  -0.00263   0.00000  -0.02700  -0.02702   1.91170
    A9        1.92667   0.00218   0.00000   0.01503   0.01508   1.94175
   A10        1.86525   0.00123   0.00000   0.02618   0.02627   1.89152
   A11        1.98545  -0.00251   0.00000  -0.01576  -0.01584   1.96961
   A12        1.91238  -0.00023   0.00000  -0.00432  -0.00415   1.90822
   A13        1.92142  -0.00123   0.00000  -0.02375  -0.02381   1.89761
   A14        1.88376   0.00191   0.00000   0.02088   0.02079   1.90455
   A15        1.91345   0.00183   0.00000   0.00817   0.00767   1.92112
   A16        1.84149   0.00052   0.00000   0.01824   0.01798   1.85947
   A17        2.02057  -0.00186   0.00000  -0.01261  -0.01268   2.00789
   A18        1.90021   0.00051   0.00000   0.00168   0.00171   1.90192
   A19        1.89903  -0.00056   0.00000  -0.01132  -0.01136   1.88766
   A20        1.89835   0.00046   0.00000   0.00365   0.00363   1.90198
   A21        1.89953   0.00107   0.00000   0.00359   0.00341   1.90294
   A22        1.83744   0.00061   0.00000   0.01804   0.01802   1.85547
   A23        1.99442  -0.00041   0.00000  -0.00405  -0.00408   1.99034
   A24        1.91826   0.00046   0.00000  -0.00015  -0.00023   1.91803
   A25        1.88979   0.00001   0.00000   0.00284   0.00284   1.89263
   A26        1.91517  -0.00073   0.00000  -0.01071  -0.01074   1.90443
   A27        1.90105   0.00034   0.00000   0.00406   0.00408   1.90513
   A28        1.83839   0.00042   0.00000   0.00943   0.00945   1.84783
   A29        1.96736   0.00055   0.00000   0.00242   0.00242   1.96978
   A30        1.91086  -0.00054   0.00000  -0.00502  -0.00502   1.90583
   A31        1.91419   0.00022   0.00000   0.00388   0.00388   1.91807
   A32        1.91028   0.00002   0.00000  -0.00079  -0.00079   1.90950
   A33        1.90285  -0.00043   0.00000  -0.00140  -0.00141   1.90144
   A34        1.85489   0.00015   0.00000   0.00084   0.00084   1.85573
   A35        1.96707   0.00079   0.00000   0.00322   0.00322   1.97029
   A36        1.90512  -0.00054   0.00000  -0.00237  -0.00238   1.90274
   A37        1.90965  -0.00011   0.00000  -0.00154  -0.00154   1.90811
   A38        1.91514   0.00013   0.00000   0.00322   0.00323   1.91837
   A39        1.90925  -0.00057   0.00000  -0.00485  -0.00485   1.90441
   A40        1.85418   0.00028   0.00000   0.00226   0.00226   1.85644
   A41        1.99220   0.00029   0.00000  -0.00074  -0.00078   1.99142
   A42        1.91547  -0.00057   0.00000  -0.01048  -0.01053   1.90494
   A43        1.90128  -0.00054   0.00000  -0.00114  -0.00114   1.90013
   A44        1.91114  -0.00031   0.00000  -0.00616  -0.00623   1.90491
   A45        1.89277   0.00061   0.00000   0.01022   0.01023   1.90300
   A46        1.84506   0.00056   0.00000   0.00945   0.00946   1.85452
   A47        1.99163  -0.00018   0.00000  -0.00294  -0.00299   1.98864
   A48        1.89802  -0.00009   0.00000   0.00199   0.00200   1.90002
   A49        1.91537  -0.00062   0.00000  -0.01115  -0.01120   1.90416
   A50        1.89605   0.00044   0.00000   0.00810   0.00810   1.90415
   A51        1.91267   0.00005   0.00000  -0.00400  -0.00408   1.90858
   A52        1.84414   0.00046   0.00000   0.00928   0.00930   1.85344
   A53        1.95012   0.00013   0.00000   0.00035   0.00033   1.95045
   A54        1.94339  -0.00108   0.00000  -0.00830  -0.00831   1.93508
   A55        1.93478   0.00031   0.00000   0.00399   0.00399   1.93877
   A56        1.88326   0.00007   0.00000  -0.00347  -0.00350   1.87976
   A57        1.87194   0.00013   0.00000   0.00399   0.00398   1.87591
   A58        1.87703   0.00050   0.00000   0.00383   0.00384   1.88087
    D1        3.13945   0.00085   0.00000   0.04981   0.04874  -3.09499
    D2        0.00459  -0.00024   0.00000  -0.02788  -0.02681  -0.02222
    D3        1.22459  -0.00187   0.00000  -0.06791  -0.06834   1.15625
    D4       -0.92800   0.00126   0.00000  -0.03090  -0.03112  -0.95912
    D5       -2.92960  -0.00135   0.00000  -0.06497  -0.06528  -2.99488
    D6       -1.92379  -0.00084   0.00000   0.01022   0.01043  -1.91337
    D7        2.20679   0.00229   0.00000   0.04723   0.04765   2.25444
    D8        0.20519  -0.00031   0.00000   0.01316   0.01349   0.21868
    D9       -3.06846  -0.00073   0.00000  -0.02129  -0.02136  -3.08981
   D10       -0.95839  -0.00014   0.00000  -0.00825  -0.00840  -0.96680
   D11        1.05933  -0.00035   0.00000  -0.00224  -0.00254   1.05679
   D12       -0.94787  -0.00087   0.00000  -0.03684  -0.03654  -0.98441
   D13        1.16220  -0.00028   0.00000  -0.02380  -0.02359   1.13860
   D14       -3.10326  -0.00049   0.00000  -0.01778  -0.01773  -3.12099
   D15        1.11801   0.00039   0.00000  -0.01171  -0.01161   1.10641
   D16       -3.05511   0.00097   0.00000   0.00133   0.00135  -3.05376
   D17       -1.03738   0.00077   0.00000   0.00735   0.00721  -1.03017
   D18       -1.05367   0.00058   0.00000   0.02395   0.02400  -1.02968
   D19        1.09066   0.00025   0.00000   0.02106   0.02107   1.11173
   D20        3.08457   0.00095   0.00000   0.03727   0.03721   3.12178
   D21        3.10351   0.00114   0.00000   0.02474   0.02491   3.12842
   D22       -1.03535   0.00081   0.00000   0.02185   0.02199  -1.01336
   D23        0.95856   0.00151   0.00000   0.03806   0.03813   0.99669
   D24        1.10605  -0.00145   0.00000  -0.01229  -0.01238   1.09368
   D25       -3.03280  -0.00178   0.00000  -0.01519  -0.01530  -3.04810
   D26       -1.03889  -0.00108   0.00000   0.00102   0.00084  -1.03805
   D27       -1.05889   0.00076   0.00000   0.02673   0.02673  -1.03216
   D28        1.10291  -0.00015   0.00000   0.00944   0.00944   1.11235
   D29        3.10249   0.00060   0.00000   0.02212   0.02213   3.12462
   D30        3.07899   0.00106   0.00000   0.03064   0.03067   3.10965
   D31       -1.04240   0.00014   0.00000   0.01336   0.01338  -1.02903
   D32        0.95718   0.00089   0.00000   0.02604   0.02607   0.98324
   D33        1.08580  -0.00047   0.00000   0.00555   0.00552   1.09132
   D34       -3.03560  -0.00138   0.00000  -0.01174  -0.01177  -3.04736
   D35       -1.03602  -0.00063   0.00000   0.00095   0.00092  -1.03509
   D36       -3.07081  -0.00011   0.00000  -0.00553  -0.00551  -3.07632
   D37       -0.94010  -0.00010   0.00000  -0.00849  -0.00847  -0.94858
   D38        1.08880  -0.00009   0.00000  -0.00815  -0.00813   1.08066
   D39        1.04893   0.00017   0.00000   0.00606   0.00604   1.05497
   D40       -3.10355   0.00018   0.00000   0.00310   0.00308  -3.10048
   D41       -1.07465   0.00018   0.00000   0.00345   0.00342  -1.07124
   D42       -0.95521  -0.00013   0.00000  -0.00162  -0.00161  -0.95682
   D43        1.17550  -0.00012   0.00000  -0.00458  -0.00457   1.17092
   D44       -3.07879  -0.00011   0.00000  -0.00424  -0.00424  -3.08302
   D45       -3.13824  -0.00002   0.00000   0.00031   0.00031  -3.13792
   D46        1.01233  -0.00033   0.00000  -0.00428  -0.00428   1.00805
   D47       -1.00991  -0.00030   0.00000  -0.00480  -0.00480  -1.01471
   D48        1.01392   0.00029   0.00000   0.00566   0.00566   1.01959
   D49       -1.11869  -0.00002   0.00000   0.00107   0.00107  -1.11762
   D50       -3.14093   0.00001   0.00000   0.00055   0.00054  -3.14039
   D51       -1.00825   0.00033   0.00000   0.00588   0.00588  -1.00237
   D52       -3.14086   0.00002   0.00000   0.00129   0.00129  -3.13957
   D53        1.12008   0.00005   0.00000   0.00077   0.00076   1.12084
   D54        3.08247   0.00045   0.00000   0.01254   0.01252   3.09498
   D55       -1.04804  -0.00019   0.00000  -0.00420  -0.00418  -1.05222
   D56        0.96436  -0.00013   0.00000   0.00071   0.00071   0.96507
   D57       -1.07376   0.00039   0.00000   0.01400   0.01399  -1.05976
   D58        1.07892  -0.00025   0.00000  -0.00273  -0.00271   1.07622
   D59        3.09132  -0.00019   0.00000   0.00218   0.00218   3.09350
   D60        0.95391   0.00047   0.00000   0.01578   0.01577   0.96968
   D61        3.10659  -0.00017   0.00000  -0.00095  -0.00093   3.10566
   D62       -1.16420  -0.00011   0.00000   0.00396   0.00396  -1.16024
   D63        1.15397  -0.00062   0.00000  -0.02868  -0.02866   1.12531
   D64       -3.00966  -0.00025   0.00000  -0.01880  -0.01879  -3.02845
   D65       -1.00023  -0.00008   0.00000  -0.01267  -0.01270  -1.01293
   D66       -1.00105   0.00015   0.00000  -0.00965  -0.00964  -1.01069
   D67        1.11850   0.00053   0.00000   0.00024   0.00023   1.11874
   D68        3.12793   0.00069   0.00000   0.00636   0.00633   3.13426
   D69       -3.00641  -0.00068   0.00000  -0.02315  -0.02313  -3.02954
   D70       -0.88685  -0.00030   0.00000  -0.01327  -0.01326  -0.90011
   D71        1.12258  -0.00014   0.00000  -0.00714  -0.00716   1.11542
   D72       -1.12413   0.00071   0.00000   0.02013   0.02012  -1.10401
   D73        0.98315   0.00014   0.00000   0.01015   0.01015   0.99330
   D74        3.07209   0.00025   0.00000   0.01215   0.01214   3.08423
   D75        3.03841   0.00063   0.00000   0.01362   0.01361   3.05203
   D76       -1.13750   0.00005   0.00000   0.00364   0.00365  -1.13385
   D77        0.95144   0.00016   0.00000   0.00564   0.00564   0.95708
   D78        1.03153  -0.00019   0.00000   0.00027   0.00027   1.03180
   D79        3.13880  -0.00077   0.00000  -0.00971  -0.00969   3.12911
   D80       -1.05544  -0.00065   0.00000  -0.00770  -0.00770  -1.06314
         Item               Value     Threshold  Converged?
 Maximum Force            0.016712     0.000450     NO 
 RMS     Force            0.002760     0.000300     NO 
 Maximum Displacement     0.231140     0.001800     NO 
 RMS     Displacement     0.059519     0.001200     NO 
 Predicted change in Energy=-2.244010D-03
 GradGradGradGradGradGradGradGradGradGradGradGradGradGradGradGradGradGrad

                          Input orientation:                          
 ---------------------------------------------------------------------
 Center     Atomic      Atomic             Coordinates (Angstroms)
 Number     Number       Type             X           Y           Z
 ---------------------------------------------------------------------
      1          8           0        5.354168    0.015630    0.946386
      2          6           0        5.357018   -0.401486   -0.341094
      3          6           0        4.652697   -1.726280   -0.515538
      4          6           0        3.149311   -1.627004   -0.226057
      5          6           0        2.432220   -2.979656   -0.328384
      6          6           0        2.539665   -3.670546   -1.695549
      7          6           0        1.976277   -2.845985   -2.857497
      8          6           0        2.013677   -3.596184   -4.192786
      9          6           0        1.455012   -2.770098   -5.356467
     10          6           0        1.538670   -3.470852   -6.719478
     11          6           0        0.685507   -4.739951   -6.819663
     12          8           0        5.815836    0.279123   -1.233795
     13          1           0        5.786232    0.886865    0.955803
     14          1           0        5.109415   -2.456070    0.163607
     15          1           0        4.837603   -2.048658   -1.541945
     16          1           0        2.999719   -1.216549    0.778777
     17          1           0        2.703005   -0.910926   -0.925149
     18          1           0        2.827684   -3.652638    0.443777
     19          1           0        1.372827   -2.824046   -0.088396
     20          1           0        3.587479   -3.919996   -1.906663
     21          1           0        2.007657   -4.629027   -1.642902
     22          1           0        0.940889   -2.559795   -2.628576
     23          1           0        2.539822   -1.909857   -2.958891
     24          1           0        1.448835   -4.531380   -4.093383
     25          1           0        3.049384   -3.882811   -4.419819
     26          1           0        0.407576   -2.514453   -5.146559
     27          1           0        1.999114   -1.817919   -5.409390
     28          1           0        1.226880   -2.766095   -7.500390
     29          1           0        2.586547   -3.719260   -6.931932
     30          1           0        1.020123   -5.510108   -6.117693
     31          1           0       -0.365396   -4.522231   -6.599272
     32          1           0        0.733946   -5.168657   -7.825884
 ---------------------------------------------------------------------
                    Distance matrix (angstroms):
                    1          2          3          4          5
     1  O    0.000000
     2  C    1.353366   0.000000
     3  C    2.379818   1.510489   0.000000
     4  C    2.989023   2.527666   1.534218   0.000000
     5  C    4.374306   3.898918   2.556657   1.534392   0.000000
     6  C    5.337521   4.523138   3.104432   2.589814   1.535581
     7  C    5.836824   4.872090   3.728503   3.128323   2.573356
     8  C    7.114433   6.018268   4.897256   4.571900   3.935591
     9  C    7.917680   6.781588   5.894858   5.522538   5.126448
    10  C    9.245488   8.042672   7.157484   6.939630   6.471923
[...]
 Alpha virt. eigenvalues --    3.99548   4.00256   4.03326   4.04423   4.06080
 Alpha virt. eigenvalues --    4.07200   4.11433   4.12966   4.15758   4.19981
 Alpha virt. eigenvalues --    4.23319   4.24916   4.28011   4.29811   4.32014
 Alpha virt. eigenvalues --    4.35243   4.38494   4.39794   4.42727   4.44305
 Alpha virt. eigenvalues --    4.47780   4.50658   4.52131   4.55038   4.55834
 Alpha virt. eigenvalues --    4.56991   4.58462   4.59944   4.60708   4.61603
 Alpha virt. eigenvalues --    4.64431   4.64794   4.67241   4.69086   4.71632
 Alpha virt. eigenvalues --    4.73053   4.77492   4.82050   4.83325   4.93945
 Alpha virt. eigenvalues --    5.00378   5.09740   5.13124   5.17195   5.20611
 Alpha virt. eigenvalues --    5.22529   5.38904   5.40419   5.50727   5.59659
 Alpha virt. eigenvalues --    5.73521   5.84780   5.86987   6.15561   6.19369
 Alpha virt. eigenvalues --    6.32097   6.33913   6.45159   6.48385   6.64420
 Alpha virt. eigenvalues --    6.69038   6.73801   6.81202   6.88274   7.07241
 Alpha virt. eigenvalues --    7.07715   7.27700  22.41670  22.44426  22.51807
 Alpha virt. eigenvalues --   22.55904  22.57017  22.59211  22.60268  22.63660
 Alpha virt. eigenvalues --   22.65816  23.28256  43.92180  43.98835
          Condensed to atoms (all electrons):
               1          2          3          4          5          6
     1  O    7.960959   0.369509  -0.129577   0.001443  -0.001134  -0.000019
     2  C    0.369509   4.431283   0.263148  -0.018162   0.004142  -0.002374
     3  C   -0.129577   0.263148   5.401552   0.153579  -0.038428   0.039099
     4  C    0.001443  -0.018162   0.153579   5.361956   0.208764  -0.080179
     5  C   -0.001134   0.004142  -0.038428   0.208764   5.210157   0.210548
     6  C   -0.000019  -0.002374   0.039099  -0.080179   0.210548   5.355287
     7  C   -0.000003  -0.000009  -0.016734   0.041195  -0.047564   0.154076
     8  C    0.000000   0.000001   0.000621  -0.002608   0.011679  -0.035749
     9  C   -0.000000   0.000004  -0.000035   0.000266  -0.001040   0.009996
    10  C    0.000000   0.000000  -0.000005   0.000012   0.000023  -0.000879
    11  C    0.000000  -0.000000   0.000001  -0.000004   0.000017   0.000048
    12  O   -0.093072   0.685505  -0.104267  -0.001189  -0.000554  -0.000211
    13  H    0.289391  -0.027320   0.019441  -0.000546   0.000152  -0.000001
    14  H    0.003389  -0.007466   0.388059  -0.053244   0.006301  -0.006209
    15  H    0.005035  -0.035293   0.410415  -0.021250  -0.017422   0.010894
    16  H    0.006468  -0.005361  -0.036961   0.434181  -0.046046   0.009854
    17  H   -0.000161   0.002655  -0.060069   0.423610  -0.028831  -0.012555
    18  H    0.000111  -0.000098  -0.007832  -0.038163   0.450392  -0.073615
    19  H    0.000008  -0.000220   0.010142  -0.066666   0.442481  -0.034906
    20  H   -0.000031   0.000747  -0.000066  -0.013746  -0.032352   0.441465
    21  H    0.000000  -0.000036  -0.000541   0.010956  -0.048438   0.435158
    22  H   -0.000000   0.000057   0.000397  -0.005989   0.009872  -0.052792
    23  H    0.000017   0.000254  -0.003172   0.010855  -0.015257  -0.036075
    24  H   -0.000000  -0.000001   0.000023  -0.000078  -0.000385  -0.004072
    25  H    0.000000   0.000001  -0.000194   0.000291   0.000172  -0.005444
    26  H    0.000000  -0.000000  -0.000010   0.000066  -0.000075  -0.000582
    27  H    0.000000  -0.000002   0.000029  -0.000112   0.000075  -0.000159
    28  H   -0.000000  -0.000000   0.000000  -0.000000  -0.000001   0.000037
    29  H   -0.000000  -0.000000  -0.000001   0.000002  -0.000005  -0.000020
    30  H    0.000000   0.000000  -0.000000  -0.000000   0.000007   0.000070
    31  H    0.000000   0.000000  -0.000000   0.000000  -0.000002   0.000001
    32  H    0.000000   0.000000   0.000000   0.000000  -0.000000  -0.000002
               7          8          9         10         11         12
     1  O   -0.000003   0.000000  -0.000000   0.000000   0.000000  -0.093072
     2  C   -0.000009   0.000001   0.000004   0.000000  -0.000000   0.685505
     3  C   -0.016734   0.000621  -0.000035  -0.000005   0.000001  -0.104267
     4  C    0.041195  -0.002608   0.000266   0.000012  -0.000004  -0.001189
     5  C   -0.047564   0.011679  -0.001040   0.000023   0.000017  -0.000554
     6  C    0.154076  -0.035749   0.009996  -0.000879   0.000048  -0.000211
     7  C    5.338547   0.205311  -0.034964   0.009237  -0.000051  -0.000303
     8  C    0.205311   5.299767   0.190239  -0.047105   0.016594   0.000015
     9  C   -0.034964   0.190239   5.229026   0.260250  -0.059558   0.000000
    10  C    0.009237  -0.047105   0.260250   5.104939   0.255602   0.000000
    11  C   -0.000051   0.016594  -0.059558   0.255602   5.091850   0.000000
    12  O   -0.000303   0.000015   0.000000   0.000000   0.000000   7.824505
    13  H    0.000004  -0.000000  -0.000000  -0.000000  -0.000000   0.006386
    14  H    0.000446   0.000021   0.000001   0.000000   0.000000   0.002998
    15  H   -0.004024   0.000399  -0.000043   0.000002  -0.000000   0.008846
    16  H   -0.000399   0.000046  -0.000003  -0.000000   0.000000   0.000267
    17  H   -0.000642   0.000711   0.000038   0.000001   0.000000   0.002342
    18  H    0.012581  -0.000865   0.000034  -0.000001   0.000000   0.000004
    19  H   -0.008245  -0.000164  -0.000005  -0.000001   0.000000   0.000008
    20  H   -0.070929   0.001160  -0.000779  -0.000039   0.000035  -0.000063
    21  H   -0.038645  -0.005955   0.000075   0.000049  -0.000056  -0.000002
    22  H    0.422045  -0.032407  -0.006266   0.000018   0.000179   0.000000
    23  H    0.430877  -0.046467  -0.002556   0.000157  -0.000142   0.000752
    24  H   -0.046603   0.436658  -0.043718  -0.004688  -0.000218   0.000000
    25  H   -0.037219   0.417927  -0.043926   0.001944  -0.002114  -0.000001
    26  H    0.000279  -0.072856   0.443955  -0.035622  -0.010906  -0.000000
    27  H   -0.006204  -0.041645   0.426665  -0.040794   0.009179  -0.000001
    28  H   -0.000733   0.013753  -0.062688   0.439027  -0.039303  -0.000000
    29  H   -0.000242  -0.014536  -0.036737   0.430942  -0.055271  -0.000000
    30  H    0.000604   0.008089  -0.014468  -0.041049   0.418190   0.000000
    31  H   -0.000159  -0.005758   0.006651  -0.047848   0.405933  -0.000000
    32  H    0.000041  -0.000523   0.011025  -0.042222   0.414666   0.000000
              13         14         15         16         17         18
     1  O    0.289391   0.003389   0.005035   0.006468  -0.000161   0.000111
     2  C   -0.027320  -0.007466  -0.035293  -0.005361   0.002655  -0.000098
     3  C    0.019441   0.388059   0.410415  -0.036961  -0.060069  -0.007832
     4  C   -0.000546  -0.053244  -0.021250   0.434181   0.423610  -0.038163
     5  C    0.000152   0.006301  -0.017422  -0.046046  -0.028831   0.450392
     6  C   -0.000001  -0.006209   0.010894   0.009854  -0.012555  -0.073615
     7  C    0.000004   0.000446  -0.004024  -0.000399  -0.000642   0.012581
     8  C   -0.000000   0.000021   0.000399   0.000046   0.000711  -0.000865
     9  C   -0.000000   0.000001  -0.000043  -0.000003   0.000038   0.000034
    10  C   -0.000000   0.000000   0.000002  -0.000000   0.000001  -0.000001
    11  C   -0.000000   0.000000  -0.000000   0.000000   0.000000   0.000000
    12  O    0.006386   0.002998   0.008846   0.000267   0.002342   0.000004
    13  H    0.378379  -0.000709  -0.000827  -0.000471  -0.000190  -0.000007
    14  H   -0.000709   0.509861  -0.017478  -0.000619   0.006100   0.000947
    15  H   -0.000827  -0.017478   0.500951   0.003772  -0.000334   0.001254
    16  H   -0.000471  -0.000619   0.003772   0.490595  -0.015872  -0.003264
    17  H   -0.000190   0.006100  -0.000334  -0.015872   0.511374   0.005002
    18  H   -0.000007   0.000947   0.001254  -0.003264   0.005002   0.524193
    19  H   -0.000003   0.000154  -0.000318  -0.006268  -0.001736  -0.016933
    20  H    0.000004   0.001285  -0.009066  -0.000804   0.001920  -0.001181
    21  H    0.000000  -0.000288   0.000499  -0.000008  -0.000791  -0.006588
    22  H    0.000000   0.000024  -0.000069  -0.000295   0.002080   0.000189
    23  H   -0.000004   0.000049   0.001868   0.000696  -0.009158  -0.000667
    24  H   -0.000000  -0.000003   0.000012   0.000004  -0.000049  -0.000034
    25  H   -0.000000   0.000008   0.000171  -0.000002   0.000029   0.000010
    26  H    0.000000  -0.000000   0.000005   0.000000  -0.000007  -0.000000
    27  H    0.000000  -0.000000  -0.000008   0.000000   0.000037   0.000001
    28  H    0.000000   0.000000  -0.000000  -0.000000   0.000000   0.000000
    29  H    0.000000  -0.000000   0.000001   0.000000  -0.000000   0.000000
    30  H    0.000000   0.000000  -0.000000  -0.000000   0.000000  -0.000000
    31  H    0.000000   0.000000   0.000000  -0.000000  -0.000000   0.000000
    32  H    0.000000  -0.000000   0.000000   0.000000  -0.000000  -0.000000
              19         20         21         22         23         24
     1  O    0.000008  -0.000031   0.000000  -0.000000   0.000017  -0.000000
     2  C   -0.000220   0.000747  -0.000036   0.000057   0.000254  -0.000001
     3  C    0.010142  -0.000066  -0.000541   0.000397  -0.003172   0.000023
     4  C   -0.066666  -0.013746   0.010956  -0.005989   0.010855  -0.000078
     5  C    0.442481  -0.032352  -0.048438   0.009872  -0.015257  -0.000385
     6  C   -0.034906   0.441465   0.435158  -0.052792  -0.036075  -0.004072
     7  C   -0.008245  -0.070929  -0.038645   0.422045   0.430877  -0.046603
     8  C   -0.000164   0.001160  -0.005955  -0.032407  -0.046467   0.436658
     9  C   -0.000005  -0.000779   0.000075  -0.006266  -0.002556  -0.043718
    10  C   -0.000001  -0.000039   0.000049   0.000018   0.000157  -0.004688
    11  C    0.000000   0.000035  -0.000056   0.000179  -0.000142  -0.000218
    12  O    0.000008  -0.000063  -0.000002   0.000000   0.000752   0.000000
    13  H   -0.000003   0.000004   0.000000   0.000000  -0.000004  -0.000000
    14  H    0.000154   0.001285  -0.000288   0.000024   0.000049  -0.000003
    15  H   -0.000318  -0.009066   0.000499  -0.000069   0.001868   0.000012
    16  H   -0.006268  -0.000804  -0.000008  -0.000295   0.000696   0.000004
    17  H   -0.001736   0.001920  -0.000791   0.002080  -0.009158  -0.000049
    18  H   -0.016933  -0.001181  -0.006588   0.000189  -0.000667  -0.000034
    19  H    0.525375   0.005313  -0.003753   0.000673   0.001419   0.000136
    20  H    0.005313   0.529326  -0.019452   0.006192  -0.001827   0.000631
    21  H   -0.003753  -0.019452   0.520581  -0.001201   0.004500   0.001160
    22  H    0.000673   0.006192  -0.001201   0.534962  -0.027274  -0.004494
    23  H    0.001419  -0.001827   0.004500  -0.027274   0.535575   0.006754
    24  H    0.000136   0.000631   0.001160  -0.004494   0.006754   0.545352
    25  H   -0.000037   0.000689   0.001231   0.005877  -0.004217  -0.029213
    26  H   -0.000010  -0.000060   0.000140   0.000802   0.000686  -0.001639
    27  H    0.000003   0.000160  -0.000045   0.001039   0.001012   0.005378
    28  H    0.000000   0.000000   0.000001   0.000024  -0.000049  -0.000563
    29  H    0.000000  -0.000023   0.000007  -0.000064   0.000180   0.001600
    30  H   -0.000000   0.000009   0.000020   0.000072  -0.000045  -0.007620
    31  H   -0.000000  -0.000002   0.000006  -0.000039   0.000020   0.000991
    32  H    0.000000  -0.000000   0.000000  -0.000003   0.000003   0.000370
              25         26         27         28         29         30
     1  O    0.000000   0.000000   0.000000  -0.000000  -0.000000   0.000000
     2  C    0.000001  -0.000000  -0.000002  -0.000000  -0.000000   0.000000
     3  C   -0.000194  -0.000010   0.000029   0.000000  -0.000001  -0.000000
     4  C    0.000291   0.000066  -0.000112  -0.000000   0.000002  -0.000000
     5  C    0.000172  -0.000075   0.000075  -0.000001  -0.000005   0.000007
     6  C   -0.005444  -0.000582  -0.000159   0.000037  -0.000020   0.000070
     7  C   -0.037219   0.000279  -0.006204  -0.000733  -0.000242   0.000604
     8  C    0.417927  -0.072856  -0.041645   0.013753  -0.014536   0.008089
     9  C   -0.043926   0.443955   0.426665  -0.062688  -0.036737  -0.014468
    10  C    0.001944  -0.035622  -0.040794   0.439027   0.430942  -0.041049
    11  C   -0.002114  -0.010906   0.009179  -0.039303  -0.055271   0.418190
    12  O   -0.000001  -0.000000  -0.000001  -0.000000  -0.000000   0.000000
    13  H   -0.000000   0.000000   0.000000   0.000000   0.000000   0.000000
    14  H    0.000008  -0.000000  -0.000000   0.000000  -0.000000   0.000000
    15  H    0.000171   0.000005  -0.000008  -0.000000   0.000001  -0.000000
    16  H   -0.000002   0.000000   0.000000  -0.000000   0.000000  -0.000000
    17  H    0.000029  -0.000007   0.000037   0.000000  -0.000000   0.000000
    18  H    0.000010  -0.000000   0.000001   0.000000   0.000000  -0.000000
    19  H   -0.000037  -0.000010   0.000003   0.000000   0.000000  -0.000000
    20  H    0.000689  -0.000060   0.000160   0.000000  -0.000023   0.000009
    21  H    0.001231   0.000140  -0.000045   0.000001   0.000007   0.000020
    22  H    0.005877   0.000802   0.001039   0.000024  -0.000064   0.000072
    23  H   -0.004217   0.000686   0.001012  -0.000049   0.000180  -0.000045
    24  H   -0.029213  -0.001639   0.005378  -0.000563   0.001600  -0.007620
    25  H    0.545842   0.006632  -0.002413   0.000177   0.001672   0.000940
    26  H    0.006632   0.539725  -0.022272  -0.002562   0.006676   0.001351
    27  H   -0.002413  -0.022272   0.538556  -0.007251  -0.002467  -0.000603
    28  H    0.000177  -0.002562  -0.007251   0.551252  -0.024452   0.006400
    29  H    0.001672   0.006676  -0.002467  -0.024452   0.556509  -0.003448
    30  H    0.000940   0.001351  -0.000603   0.006400  -0.003448   0.545959
    31  H    0.000123   0.002289   0.000162  -0.003495   0.007690  -0.031093
    32  H   -0.000093  -0.000244  -0.000281  -0.005628  -0.003663  -0.024499
              31         32
     1  O    0.000000   0.000000
     2  C    0.000000   0.000000
     3  C   -0.000000   0.000000
     4  C    0.000000   0.000000
     5  C   -0.000002  -0.000000
     6  C    0.000001  -0.000002
     7  C   -0.000159   0.000041
     8  C   -0.005758  -0.000523
     9  C    0.006651   0.011025
    10  C   -0.047848  -0.042222
    11  C    0.405933   0.414666
    12  O   -0.000000   0.000000
    13  H    0.000000   0.000000
    14  H    0.000000  -0.000000
    15  H    0.000000   0.000000
    16  H   -0.000000   0.000000
    17  H   -0.000000  -0.000000
    18  H    0.000000  -0.000000
    19  H   -0.000000   0.000000
    20  H   -0.000002  -0.000000
    21  H    0.000006   0.000000
    22  H   -0.000039  -0.000003
    23  H    0.000020   0.000003
    24  H    0.000991   0.000370
    25  H    0.000123  -0.000093
    26  H    0.002289  -0.000244
    27  H    0.000162  -0.000281
    28  H   -0.003495  -0.005628
    29  H    0.007690  -0.003663
    30  H   -0.031093  -0.024499
    31  H    0.550408  -0.023081
    32  H   -0.023081   0.531066
 Mulliken charges:
               1
     1  O   -0.412332
     2  C    0.339035
     3  C   -0.288612
     4  C   -0.345240
     5  C   -0.277249
     6  C   -0.320690
     7  C   -0.301568
     8  C   -0.296353
     9  C   -0.271442
    10  C   -0.241950
    11  C   -0.444671
    12  O   -0.331965
    13  H    0.336324
    14  H    0.166375
    15  H    0.162006
    16  H    0.170490
    17  H    0.174497
    18  H    0.154529
    19  H    0.153555
    20  H    0.161484
    21  H    0.151415
    22  H    0.146392
    23  H    0.151239
    24  H    0.144307
    25  H    0.141137
    26  H    0.144237
    27  H    0.141962
    28  H    0.136055
    29  H    0.135647
    30  H    0.141115
    31  H    0.137203
    32  H    0.143069
 Sum of Mulliken charges =  -0.00000
 Mulliken charges with hydrogens summed into heavy atoms:
               1
     1  O   -0.076009
     2  C    0.339035
     3  C    0.039769
     4  C   -0.000253
     5  C    0.030836
     6  C   -0.007792
     7  C   -0.003937
     8  C   -0.010910
     9  C    0.014757
    10  C    0.029752
    11  C   -0.023284
    12  O   -0.331965
 Electronic spatial extent (au):  <R**2>=           4540.5424
 Charge=             -0.0000 electrons
 Dipole moment (field-independent basis, Debye):
    X=              0.0374    Y=              1.8375    Z=              0.1320  Tot=              1.8426
 Quadrupole moment (field-independent basis, Debye-Ang):
   XX=            -73.0896   YY=            -83.3062   ZZ=            -76.4633
   XY=             -3.0926   XZ=             -1.0224   YZ=             -0.6153
 Traceless Quadrupole moment (field-independent basis, Debye-Ang):
   XX=              4.5301   YY=             -5.6865   ZZ=              1.1564
   XY=             -3.0926   XZ=             -1.0224   YZ=             -0.6153
 Octapole moment (field-independent basis, Debye-Ang**2):
  XXX=            -88.7899  YYY=             11.0981  ZZZ=              0.1446  XYY=              4.7624
  XXY=            -16.0396  XXZ=             12.8239  XZZ=            -15.6613  YZZ=             -3.1372
  YYZ=              2.1366  XYZ=              5.6964
 Hexadecapole moment (field-independent basis, Debye-Ang**3):
 XXXX=          -4690.5923 YYYY=           -809.1974 ZZZZ=           -229.1560 XXXY=            145.3952
 XXXZ=            -72.9127 YYYX=            -22.9923 YYYZ=             -4.1207 ZZZX=              2.4901
 ZZZY=              3.4914 XXYY=          -1001.9842 XXZZ=           -862.7325 YYZZ=           -162.1971
 XXYZ=            -23.7980 YYXZ=             -6.4021 ZZXY=             13.0992
 N-N= 6.999036355812D+02 E-N=-2.664604007075D+03  KE= 5.405752140353D+02
 Unable to Open any file for archive entry.
 1\1\GINC-NOTCH075\SP\RM062X\def2TZVP\C10H20O2\U6032257\03-Feb-2022\0\\
 # M062X/def2tzvp int=(grid=ultrafine) nmr=giao guess=read geom=check\\
 Ac1.xyz\\0,1\O,0,5.376897568,0.0122306671,0.9452819362\C,0,5.325172837
 9,-0.3725176198,-0.3570900007\C,0,4.652402445,-1.7131849154,-0.5164215
 \C,0,3.1439860055,-1.6332880001,-0.2145257708\C,0,2.4345433078,-2.9901
 12452,-0.3226797199\C,0,2.538447531,-3.6787731746,-1.6913035697\C,0,1.
 9905640056,-2.8512782099,-2.8578183297\C,0,2.0119348293,-3.6054662872,
 -4.1901697321\C,0,1.4741790768,-2.7743442159,-5.3592854143\C,0,1.54668
 30228,-3.4764024195,-6.7222840848\C,0,0.6718616887,-4.7291887693,-6.82
 72462656\O,0,5.7554850428,0.3200684091,-1.2526991155\H,0,5.7949150375,
 0.8897059301,0.946418669\H,0,5.1235192618,-2.4294213557,0.1666061828\H
 ,0,4.8320514643,-2.0409892713,-1.5416003717\H,0,3.008106281,-1.2347738
 764,0.7959839973\H,0,2.6833781114,-0.9118749573,-0.8990852043\H,0,2.83
 63065686,-3.6627087874,0.4465119182\H,0,1.3747030088,-2.8429147655,-0.
 0778389357\H,0,3.5831743926,-3.9459775774,-1.8981099846\H,0,1.99422818
 23,-4.6307352993,-1.6419380543\H,0,0.9605872983,-2.5411517965,-2.63089
 35325\H,0,2.5692176337,-1.9245411972,-2.964489701\H,0,1.4290098601,-4.
 5293969376,-4.0865050893\H,0,3.041939548,-3.9185686454,-4.4133036787\H
 ,0,0.4317691234,-2.4928539094,-5.1526386803\H,0,2.0383134384,-1.833803
 9907,-5.4122143322\H,0,1.24769233,-2.7648538043,-7.5018898461\H,0,2.59
 12292623,-3.7405205477,-6.9358276472\H,0,0.9918023914,-5.5082985127,-6
 .1284615028\H,0,-0.3756722542,-4.4952745689,-6.6047215853\H,0,0.710971
 699,-5.155689142,-7.8345610545\\Version=ES64L-G16RevC.01\State=1-A\HF=
 -543.5418562\RMSD=2.454e-09\Dipole=-0.3983327,-0.4070117,0.4485605\Qua
 drupole=-1.7130106,-0.9061306,2.6191411,-2.1706715,2.1364568,2.5432387
 \PG=C01 [X(C10H20O2)]\\@
 The archive entry for this job was punched.


 FESTINA LENTE!
     - IMPERATOR AUGUSTUS 
 Job cpu time:       0 days  0 hours 35 minutes 27.9 seconds.
 Elapsed time:       0 days  0 hours  1 minutes 17.0 seconds.
 File lengths (MBytes):  RWF=    140 Int=      0 D2E=      0 Chk=     24 Scr=      1
 Normal termination of Gaussian 16 at Thu Feb  3 10:42:49 2022.
