 Entering Gaussian System, Link 0=/uufs/chpc.utah.edu/sys/installdir/gaussian16/C01/AVX2/g16/g16
 Input=Ac1_clust-6.com
 Output=Ac1_clust-6.log
 Initial command:
 /uufs/chpc.utah.edu/sys/installdir/gaussian16/C01/AVX2/g16/l1.exe "/scratch/general/lustre/u6032257/3867914/notchpeak.peaks/Gau-114005.inp" -scrdir="/scratch/general/lustre/u6032257/3867914/notchpeak.peaks/"
 Entering Link 1 = /uufs/chpc.utah.edu/sys/installdir/gaussian16/C01/AVX2/g16/l1.exe PID=    114008.
  
 Copyright (c) 1988-2019, Gaussian, Inc.  All Rights Reserved.
  
 This is part of the Gaussian(R) 16 program.  It is based on
 the Gaussian(R) 09 system (copyright 2009, Gaussian, Inc.),
 the Gaussian(R) 03 system (copyright 2003, Gaussian, Inc.),
 the Gaussian(R) 98 system (copyright 1998, Gaussian, Inc.),
 the Gaussian(R) 94 system (copyright 1995, Gaussian, Inc.),
 the Gaussian 92(TM) system (copyright 1992, Gaussian, Inc.),
 the Gaussian 90(TM) system (copyright 1990, Gaussian, Inc.),
 the Gaussian 88(TM) system (copyright 1988, Gaussian, Inc.),
 the Gaussian 86(TM) system (copyright 1986, Carnegie Mellon
 University), and the Gaussian 82(TM) system (copyright 1983,
 Carnegie Mellon University). Gaussian is a federally registered
 trademark of Gaussian, Inc.
  
 This software contains proprietary and confidential information,
 including trade secrets, belonging to Gaussian, Inc.
  
 This software is provided under written license and may be
 used, copied, transmitted, or stored only in accord with that
 written license.
  
 The following legend is applicable only to US Government
 contracts under FAR:
  
                    RESTRICTED RIGHTS LEGEND
  
 Use, reproduction and disclosure by the US Government is
 subject to restrictions as set forth in subparagraphs (a)
 and (c) of the Commercial Computer Software - Restricted
 Rights clause in FAR 52.227-19.
  
 Gaussian, Inc.
 340 Quinnipiac St., Bldg. 40, Wallingford CT 06492
  
  
 ---------------------------------------------------------------
 Warning -- This program may not be used in any manner that
 competes with the business of Gaussian, Inc. or will provide
 assistance to any competitor of Gaussian, Inc.  The licensee
 of this program is prohibited from giving any competitor of
 Gaussian, Inc. access to this program.  By using this program,
 the user acknowledges that Gaussian, Inc. is engaged in the
 business of creating and licensing software in the field of
 computational chemistry and represents and warrants to the
 licensee that it is not a competitor of Gaussian, Inc. and that
 it will not use this program in any manner prohibited above.
 ---------------------------------------------------------------
  

 Cite this work as:
 Gaussian 16, Revision C.01,
 M. J. Frisch, G. W. Trucks, H. B. Schlegel, G. E. Scuseria, 
 M. A. Robb, J. R. Cheeseman, G. Scalmani, V. Barone, 
 G. A. Petersson, H. Nakatsuji, X. Li, M. Caricato, A. V. Marenich, 
 J. Bloino, B. G. Janesko, R. Gomperts, B. Mennucci, H. P. Hratchian, 
 J. V. Ortiz, A. F. Izmaylov, J. L. Sonnenberg, D. Williams-Young, 
 F. Ding, F. Lipparini, F. Egidi, J. Goings, B. Peng, A. Petrone, 
 T. Henderson, D. Ranasinghe, V. G. Zakrzewski, J. Gao, N. Rega, 
 G. Zheng, W. Liang, M. Hada, M. Ehara, K. Toyota, R. Fukuda, 
 J. Hasegawa, M. Ishida, T. Nakajima, Y. Honda, O. Kitao, H. Nakai, 
 T. Vreven, K. Throssell, J. A. Montgomery, Jr., J. E. Peralta, 
 F. Ogliaro, M. J. Bearpark, J. J. Heyd, E. N. Brothers, K. N. Kudin, 
 V. N. Staroverov, T. A. Keith, R. Kobayashi, J. Normand, 
 K. Raghavachari, A. P. Rendell, J. C. Burant, S. S. Iyengar, 
 J. Tomasi, M. Cossi, J. M. Millam, M. Klene, C. Adamo, R. Cammi, 
 J. W. Ochterski, R. L. Martin, K. Morokuma, O. Farkas, 
 J. B. Foresman, and D. J. Fox, Gaussian, Inc., Wallingford CT, 2019.
 
 ******************************************
 Gaussian 16:  ES64L-G16RevC.01  3-Jul-2019
                 5-Feb-2022 
 ******************************************
 %NProcShared=40
 Will use up to   40 processors via shared memory.
 %mem=16GB
 %chk=Ac1_clust-6.chk
 ----------------------------------------------------------------------
 # B3LYP/6-31G(d,p) empiricaldispersion=GD3BJ int=(grid=ultrafine) opt 
 freq=noraman
 ----------------------------------------------------------------------
 1/18=20,19=15,26=4,38=1/1,3;
 2/9=110,12=2,17=6,18=5,40=1/2;
 3/5=1,6=6,7=101,11=2,25=1,30=1,71=1,74=-5,75=-5,124=41/1,2,3;
 4//1;
 5/5=2,38=5/2;
 6/7=2,8=2,9=2,10=2,28=1/1;
 7//1,2,3,16;
 1/18=20,19=15,26=4/3(2);
 2/9=110/2;
 99//99;
 2/9=110/2;
 3/5=1,6=6,7=101,11=2,25=1,30=1,71=1,74=-5,75=-5,124=41/1,2,3;
 4/5=5,16=3,69=1/1;
 5/5=2,38=5/2;
 7//1,2,3,16;
 1/18=20,19=15,26=4/3(-5);
 2/9=110/2;
 6/7=2,8=2,9=2,10=2,19=2,28=1/1;
 99/9=1/99;
 -------
 Ac1.xyz
 -------
 Symbolic Z-matrix:
 Charge =  0 Multiplicity = 1
 O                     5.5089    0.668    -0.2425 
 C                     4.9946   -0.5798   -0.2489 
 C                     3.537    -0.5932    0.214 
 C                     2.7976   -1.9464    0.0626 
 C                     2.5104   -2.3449   -1.3989 
 C                     1.7372   -3.6713   -1.5146 
 C                     1.325    -4.0563   -2.9516 
 C                     2.4998   -4.3244   -3.9215 
 C                     2.9644   -3.1028   -4.7488 
 C                     2.2827   -2.9451   -6.1242 
 C                     0.7718   -2.6744   -6.0669 
 O                     5.6417   -1.5667   -0.5706 
 H                     6.4115    0.5485   -0.5398 
 H                     2.9947    0.1932   -0.3107 
 H                     3.5551   -0.3123    1.2665 
 H                     3.3656   -2.7385    0.5567 
 H                     1.8508   -1.8869    0.6025 
 H                     1.9459   -1.5504   -1.8898 
 H                     3.4536   -2.4325   -1.9397 
 H                     2.3326   -4.4769   -1.081 
 H                     0.8346   -3.6108   -0.904 
 H                     0.7212   -4.9632   -2.89 
 H                     0.6552   -3.2969   -3.3551 
 H                     2.2295   -5.1319   -4.6041 
 H                     3.345    -4.7177   -3.3535 
 H                     2.8516   -2.1814   -4.1773 
 H                     4.0379   -3.1983   -4.9211 
 H                     2.7625   -2.1228   -6.6576 
 H                     2.4682   -3.8343   -6.7291 
 H                     0.5466   -1.805    -5.4483 
 H                     0.3735   -2.4819   -7.0635 
 H                     0.2285   -3.5284   -5.6619 
 

 GradGradGradGradGradGradGradGradGradGradGradGradGradGradGradGradGradGrad
 Berny optimization.
 Initialization pass.
                           ----------------------------
                           !    Initial Parameters    !
                           ! (Angstroms and Degrees)  !
 --------------------------                            --------------------------
 ! Name  Definition              Value          Derivative Info.                !
 --------------------------------------------------------------------------------
 ! R1    R(1,2)                  1.3496         estimate D2E/DX2                !
 ! R2    R(1,13)                 0.9578         estimate D2E/DX2                !
 ! R3    R(2,3)                  1.5294         estimate D2E/DX2                !
 ! R4    R(2,12)                 1.2232         estimate D2E/DX2                !
 ! R5    R(3,4)                  1.5494         estimate D2E/DX2                !
 ! R6    R(3,14)                 1.0899         estimate D2E/DX2                !
 ! R7    R(3,15)                 1.0895         estimate D2E/DX2                !
 ! R8    R(4,5)                  1.5418         estimate D2E/DX2                !
 ! R9    R(4,16)                 1.0928         estimate D2E/DX2                !
 ! R10   R(4,17)                 1.0915         estimate D2E/DX2                !
 ! R11   R(5,6)                  1.5397         estimate D2E/DX2                !
 ! R12   R(5,18)                 1.0913         estimate D2E/DX2                !
 ! R13   R(5,19)                 1.0908         estimate D2E/DX2                !
 ! R14   R(6,7)                  1.5437         estimate D2E/DX2                !
 ! R15   R(6,20)                 1.0916         estimate D2E/DX2                !
 ! R16   R(6,21)                 1.0914         estimate D2E/DX2                !
 ! R17   R(7,8)                  1.5468         estimate D2E/DX2                !
 ! R18   R(7,22)                 1.0913         estimate D2E/DX2                !
 ! R19   R(7,23)                 1.09           estimate D2E/DX2                !
 ! R20   R(8,9)                  1.5468         estimate D2E/DX2                !
 ! R21   R(8,24)                 1.0914         estimate D2E/DX2                !
 ! R22   R(8,25)                 1.0916         estimate D2E/DX2                !
 ! R23   R(9,10)                 1.5431         estimate D2E/DX2                !
 ! R24   R(9,26)                 1.0901         estimate D2E/DX2                !
 ! R25   R(9,27)                 1.0914         estimate D2E/DX2                !
 ! R26   R(10,11)                1.536          estimate D2E/DX2                !
 ! R27   R(10,28)                1.0913         estimate D2E/DX2                !
 ! R28   R(10,29)                1.0913         estimate D2E/DX2                !
 ! R29   R(11,30)                1.0905         estimate D2E/DX2                !
 ! R30   R(11,31)                1.0904         estimate D2E/DX2                !
 ! R31   R(11,32)                1.0902         estimate D2E/DX2                !
 ! A1    A(2,1,13)             104.0213         estimate D2E/DX2                !
 ! A2    A(1,2,3)              111.7057         estimate D2E/DX2                !
 ! A3    A(1,2,12)             123.0652         estimate D2E/DX2                !
 ! A4    A(3,2,12)             125.2204         estimate D2E/DX2                !
 ! A5    A(2,3,4)              115.6504         estimate D2E/DX2                !
 ! A6    A(2,3,14)             108.7952         estimate D2E/DX2                !
 ! A7    A(2,3,15)             105.9203         estimate D2E/DX2                !
 ! A8    A(4,3,14)             110.223          estimate D2E/DX2                !
 ! A9    A(4,3,15)             109.1168         estimate D2E/DX2                !
 ! A10   A(14,3,15)            106.6974         estimate D2E/DX2                !
 ! A11   A(3,4,5)              114.0311         estimate D2E/DX2                !
 ! A12   A(3,4,16)             109.9269         estimate D2E/DX2                !
 ! A13   A(3,4,17)             108.5413         estimate D2E/DX2                !
 ! A14   A(5,4,16)             109.759          estimate D2E/DX2                !
 ! A15   A(5,4,17)             108.7456         estimate D2E/DX2                !
 ! A16   A(16,4,17)            105.4691         estimate D2E/DX2                !
 ! A17   A(4,5,6)              112.7948         estimate D2E/DX2                !
 ! A18   A(4,5,18)             109.5475         estimate D2E/DX2                !
 ! A19   A(4,5,19)             109.2476         estimate D2E/DX2                !
 ! A20   A(6,5,18)             109.4891         estimate D2E/DX2                !
 ! A21   A(6,5,19)             109.1356         estimate D2E/DX2                !
 ! A22   A(18,5,19)            106.4241         estimate D2E/DX2                !
 ! A23   A(5,6,7)              114.7648         estimate D2E/DX2                !
 ! A24   A(5,6,20)             109.3919         estimate D2E/DX2                !
 ! A25   A(5,6,21)             108.9968         estimate D2E/DX2                !
 ! A26   A(7,6,20)             109.3508         estimate D2E/DX2                !
 ! A27   A(7,6,21)             108.2873         estimate D2E/DX2                !
 ! A28   A(20,6,21)            105.6507         estimate D2E/DX2                !
 ! A29   A(6,7,8)              115.0936         estimate D2E/DX2                !
 ! A30   A(6,7,22)             107.6054         estimate D2E/DX2                !
 ! A31   A(6,7,23)             109.5672         estimate D2E/DX2                !
 ! A32   A(8,7,22)             108.1545         estimate D2E/DX2                !
 ! A33   A(8,7,23)             110.8138         estimate D2E/DX2                !
 ! A34   A(22,7,23)            105.0633         estimate D2E/DX2                !
 ! A35   A(7,8,9)              115.2517         estimate D2E/DX2                !
 ! A36   A(7,8,24)             109.4091         estimate D2E/DX2                !
 ! A37   A(7,8,25)             108.9185         estimate D2E/DX2                !
 ! A38   A(9,8,24)             108.9179         estimate D2E/DX2                !
 ! A39   A(9,8,25)             109.2854         estimate D2E/DX2                !
 ! A40   A(24,8,25)            104.5144         estimate D2E/DX2                !
 ! A41   A(8,9,10)             115.1334         estimate D2E/DX2                !
 ! A42   A(8,9,26)             110.8584         estimate D2E/DX2                !
 ! A43   A(8,9,27)             108.105          estimate D2E/DX2                !
 ! A44   A(10,9,26)            109.5837         estimate D2E/DX2                !
 ! A45   A(10,9,27)            107.6222         estimate D2E/DX2                !
 ! A46   A(26,9,27)            104.9811         estimate D2E/DX2                !
 ! A47   A(9,10,11)            114.79           estimate D2E/DX2                !
 ! A48   A(9,10,28)            108.5678         estimate D2E/DX2                !
 ! A49   A(9,10,29)            109.6134         estimate D2E/DX2                !
 ! A50   A(11,10,28)           108.5367         estimate D2E/DX2                !
 ! A51   A(11,10,29)           109.3578         estimate D2E/DX2                !
 ! A52   A(28,10,29)           105.5632         estimate D2E/DX2                !
 ! A53   A(10,11,30)           111.3946         estimate D2E/DX2                !
 ! A54   A(10,11,31)           110.875          estimate D2E/DX2                !
 ! A55   A(10,11,32)           111.4695         estimate D2E/DX2                !
 ! A56   A(30,11,31)           107.5949         estimate D2E/DX2                !
 ! A57   A(30,11,32)           108.1115         estimate D2E/DX2                !
 ! A58   A(31,11,32)           107.2055         estimate D2E/DX2                !
 ! D1    D(13,1,2,3)           179.6042         estimate D2E/DX2                !
 ! D2    D(13,1,2,12)            0.627          estimate D2E/DX2                !
 ! D3    D(1,2,3,4)            172.132          estimate D2E/DX2                !
 ! D4    D(1,2,3,14)            47.4869         estimate D2E/DX2                !
 ! D5    D(1,2,3,15)           -66.8866         estimate D2E/DX2                !
 ! D6    D(12,2,3,4)            -8.9173         estimate D2E/DX2                !
 ! D7    D(12,2,3,14)         -133.5624         estimate D2E/DX2                !
 ! D8    D(12,2,3,15)          112.0641         estimate D2E/DX2                !
 ! D9    D(2,3,4,5)            -69.8669         estimate D2E/DX2                !
 ! D10   D(2,3,4,16)            53.8688         estimate D2E/DX2                !
 ! D11   D(2,3,4,17)           168.7556         estimate D2E/DX2                !
 ! D12   D(14,3,4,5)            54.0359         estimate D2E/DX2                !
 ! D13   D(14,3,4,16)          177.7716         estimate D2E/DX2                !
 ! D14   D(14,3,4,17)          -67.3416         estimate D2E/DX2                !
 ! D15   D(15,3,4,5)           170.8918         estimate D2E/DX2                !
 ! D16   D(15,3,4,16)          -65.3724         estimate D2E/DX2                !
 ! D17   D(15,3,4,17)           49.5144         estimate D2E/DX2                !
 ! D18   D(3,4,5,6)           -178.2245         estimate D2E/DX2                !
 ! D19   D(3,4,5,18)           -56.0001         estimate D2E/DX2                !
 ! D20   D(3,4,5,19)            60.217          estimate D2E/DX2                !
 ! D21   D(16,4,5,6)            57.9492         estimate D2E/DX2                !
 ! D22   D(16,4,5,18)         -179.8264         estimate D2E/DX2                !
 ! D23   D(16,4,5,19)          -63.6093         estimate D2E/DX2                !
 ! D24   D(17,4,5,6)           -56.9603         estimate D2E/DX2                !
 ! D25   D(17,4,5,18)           65.2641         estimate D2E/DX2                !
 ! D26   D(17,4,5,19)         -178.5188         estimate D2E/DX2                !
 ! D27   D(4,5,6,7)            175.2667         estimate D2E/DX2                !
 ! D28   D(4,5,6,20)           -61.4184         estimate D2E/DX2                !
 ! D29   D(4,5,6,21)            53.6469         estimate D2E/DX2                !
 ! D30   D(18,5,6,7)            53.0095         estimate D2E/DX2                !
 ! D31   D(18,5,6,20)          176.3243         estimate D2E/DX2                !
 ! D32   D(18,5,6,21)          -68.6104         estimate D2E/DX2                !
 ! D33   D(19,5,6,7)           -63.1114         estimate D2E/DX2                !
 ! D34   D(19,5,6,20)           60.2034         estimate D2E/DX2                !
 ! D35   D(19,5,6,21)          175.2687         estimate D2E/DX2                !
 ! D36   D(5,6,7,8)             63.8342         estimate D2E/DX2                !
 ! D37   D(5,6,7,22)          -175.5311         estimate D2E/DX2                !
 ! D38   D(5,6,7,23)           -61.8181         estimate D2E/DX2                !
 ! D39   D(20,6,7,8)           -59.5026         estimate D2E/DX2                !
 ! D40   D(20,6,7,22)           61.1321         estimate D2E/DX2                !
 ! D41   D(20,6,7,23)          174.8451         estimate D2E/DX2                !
 ! D42   D(21,6,7,8)          -174.1601         estimate D2E/DX2                !
 ! D43   D(21,6,7,22)          -53.5254         estimate D2E/DX2                !
 ! D44   D(21,6,7,23)           60.1876         estimate D2E/DX2                !
 ! D45   D(6,7,8,9)            -92.7841         estimate D2E/DX2                !
 ! D46   D(6,7,8,24)           144.1056         estimate D2E/DX2                !
 ! D47   D(6,7,8,25)            30.4238         estimate D2E/DX2                !
 ! D48   D(22,7,8,9)           146.8821         estimate D2E/DX2                !
 ! D49   D(22,7,8,24)           23.7719         estimate D2E/DX2                !
 ! D50   D(22,7,8,25)          -89.9099         estimate D2E/DX2                !
 ! D51   D(23,7,8,9)            32.2213         estimate D2E/DX2                !
 ! D52   D(23,7,8,24)          -90.8889         estimate D2E/DX2                !
 ! D53   D(23,7,8,25)          155.4293         estimate D2E/DX2                !
 ! D54   D(7,8,9,10)           -91.7112         estimate D2E/DX2                !
 ! D55   D(7,8,9,26)            33.3857         estimate D2E/DX2                !
 ! D56   D(7,8,9,27)           147.9439         estimate D2E/DX2                !
 ! D57   D(24,8,9,10)           31.6595         estimate D2E/DX2                !
 ! D58   D(24,8,9,26)          156.7564         estimate D2E/DX2                !
 ! D59   D(24,8,9,27)          -88.6854         estimate D2E/DX2                !
 ! D60   D(25,8,9,10)          145.2757         estimate D2E/DX2                !
 ! D61   D(25,8,9,26)          -89.6274         estimate D2E/DX2                !
 ! D62   D(25,8,9,27)           24.9308         estimate D2E/DX2                !
 ! D63   D(8,9,10,11)           64.4639         estimate D2E/DX2                !
 ! D64   D(8,9,10,28)         -173.8981         estimate D2E/DX2                !
 ! D65   D(8,9,10,29)          -59.0528         estimate D2E/DX2                !
 ! D66   D(26,9,10,11)         -61.2931         estimate D2E/DX2                !
 ! D67   D(26,9,10,28)          60.345          estimate D2E/DX2                !
 ! D68   D(26,9,10,29)         175.1902         estimate D2E/DX2                !
 ! D69   D(27,9,10,11)        -174.9268         estimate D2E/DX2                !
 ! D70   D(27,9,10,28)         -53.2888         estimate D2E/DX2                !
 ! D71   D(27,9,10,29)          61.5565         estimate D2E/DX2                !
 ! D72   D(9,10,11,30)          54.9169         estimate D2E/DX2                !
 ! D73   D(9,10,11,31)         174.7105         estimate D2E/DX2                !
 ! D74   D(9,10,11,32)         -65.9375         estimate D2E/DX2                !
 ! D75   D(28,10,11,30)        -66.7381         estimate D2E/DX2                !
 ! D76   D(28,10,11,31)         53.0555         estimate D2E/DX2                !
 ! D77   D(28,10,11,32)        172.4075         estimate D2E/DX2                !
 ! D78   D(29,10,11,30)        178.5698         estimate D2E/DX2                !
 ! D79   D(29,10,11,31)        -61.6366         estimate D2E/DX2                !
 ! D80   D(29,10,11,32)         57.7154         estimate D2E/DX2                !
 --------------------------------------------------------------------------------
 Trust Radius=3.00D-01 FncErr=1.00D-07 GrdErr=1.00D-06 EigMax=2.50D+02 EigMin=1.00D-04
 Number of steps in this run=    179 maximum allowed number of steps=    192.
 GradGradGradGradGradGradGradGradGradGradGradGradGradGradGradGradGradGrad

                          Input orientation:                          
 ---------------------------------------------------------------------
 Center     Atomic      Atomic             Coordinates (Angstroms)
 Number     Number       Type             X           Y           Z
 ---------------------------------------------------------------------
      1          8           0        5.508900    0.668000   -0.242500
      2          6           0        4.994600   -0.579800   -0.248900
      3          6           0        3.537000   -0.593200    0.214000
      4          6           0        2.797600   -1.946400    0.062600
      5          6           0        2.510400   -2.344900   -1.398900
      6          6           0        1.737200   -3.671300   -1.514600
      7          6           0        1.325000   -4.056300   -2.951600
      8          6           0        2.499800   -4.324400   -3.921500
      9          6           0        2.964400   -3.102800   -4.748800
     10          6           0        2.282700   -2.945100   -6.124200
     11          6           0        0.771800   -2.674400   -6.066900
     12          8           0        5.641700   -1.566700   -0.570600
     13          1           0        6.411500    0.548500   -0.539800
     14          1           0        2.994700    0.193200   -0.310700
     15          1           0        3.555100   -0.312300    1.266500
     16          1           0        3.365600   -2.738500    0.556700
     17          1           0        1.850800   -1.886900    0.602500
     18          1           0        1.945900   -1.550400   -1.889800
     19          1           0        3.453600   -2.432500   -1.939700
     20          1           0        2.332600   -4.476900   -1.081000
     21          1           0        0.834600   -3.610800   -0.904000
     22          1           0        0.721200   -4.963200   -2.890000
     23          1           0        0.655200   -3.296900   -3.355100
     24          1           0        2.229500   -5.131900   -4.604100
     25          1           0        3.345000   -4.717700   -3.353500
     26          1           0        2.851600   -2.181400   -4.177300
     27          1           0        4.037900   -3.198300   -4.921100
     28          1           0        2.762500   -2.122800   -6.657600
     29          1           0        2.468200   -3.834300   -6.729100
     30          1           0        0.546600   -1.805000   -5.448300
     31          1           0        0.373500   -2.481900   -7.063500
     32          1           0        0.228500   -3.528400   -5.661900
 ---------------------------------------------------------------------
                    Distance matrix (angstroms):
                    1          2          3          4          5
     1  O    0.000000
     2  C    1.349648   0.000000
     3  C    2.384829   1.529397   0.000000
     4  C    3.778799   2.606039   1.549447   0.000000
     5  C    4.405205   3.257196   2.593030   1.541839   0.000000
     6  C    5.888419   4.665836   3.962580   2.566571   1.539663
     7  C    6.867551   5.732068   5.187199   3.963033   2.597102
     8  C    6.893024   5.808102   5.665686   4.649368   3.206563
     9  C    6.403136   5.544037   5.590648   4.951227   3.464442
    10  C    7.619531   6.889717   6.875862   6.288006   4.768705
    11  C    8.217992   7.487891   7.171292   6.496508   4.992146
    12  O    2.262558   1.223193   2.448073   2.938370   3.331173
    13  H    0.957786   1.834472   3.183464   4.432571   4.932383
    14  H    2.559548   2.144982   1.089874   2.180846   2.803690
    15  H    2.656201   2.107167   1.089490   2.166440   3.511014
    16  H    4.103255   2.821811   2.179251   1.092786   2.170405
    17  H    4.541281   3.509540   2.160524   1.091541   2.156487
    18  H    4.508865   3.595718   2.806030   2.166581   1.091271
    19  H    4.088746   2.943804   2.833444   2.162368   1.090763
    20  H    6.104258   4.792288   4.267403   2.815577   2.162891
    21  H    6.371404   5.188614   4.202237   2.749166   2.157715
    22  H    7.851225   6.667200   6.054787   4.704292   3.504299
    23  H    6.997651   5.988447   5.324776   4.253751   2.859159
    24  H    7.963470   6.880055   6.747106   5.678753   4.256710
    25  H    6.585328   5.429727   5.456686   4.432774   3.185467
    26  H    5.537416   4.752883   4.719711   4.246751   2.804043
    27  H    6.245111   5.440705   5.779853   5.286101   3.932867
    28  H    7.515636   6.959494   7.082260   6.722606   5.269422
    29  H    8.461238   7.679027   7.736517   7.056902   5.534539
    30  H    7.605294   6.951229   6.517100   5.954579   4.532730
    31  H    9.100563   8.450522   8.157017   7.546146   6.055807
    32  H    8.652300   7.791696   7.354439   6.470927   4.978043
                    6          7          8          9         10
     6  C    0.000000
     7  C    1.543730   0.000000
     8  C    2.607924   1.546848   0.000000
     9  C    3.505604   2.612800   1.546798   0.000000
    10  C    4.698228   3.495332   2.607966   1.543149   0.000000
    11  C    4.759122   3.452647   3.211110   2.593918   1.536028
    12  O    4.534931   5.522786   5.357702   5.194699   6.635159
    13  H    6.372286   7.272788   7.105100   6.552112   7.774172
    14  H    4.238519   5.274514   5.804439   5.528224   6.644746
    15  H    4.724633   6.064920   6.642737   6.657301   7.948150
    16  H    2.795011   4.267179   4.828971   5.333105   6.771247
    17  H    2.771119   4.196950   5.179689   5.599547   6.823109
    18  H    2.163919   2.791500   3.482770   3.408984   4.470880
    19  H    2.159019   2.862098   2.901129   2.929106   4.375364
    20  H    1.091559   2.165942   2.849500   3.967377   5.270936
    21  H    1.091412   2.152122   3.519577   4.424545   5.458080
    22  H    2.143125   1.091255   2.153015   3.456613   4.119595
    23  H    2.167565   1.090015   2.186119   2.704160   3.231166
    24  H    3.452640   2.169284   1.091357   2.162929   2.663762
    25  H    2.657353   2.163186   1.091637   2.167861   3.456497
    26  H    3.248332   2.710738   2.186697   1.090098   2.167327
    27  H    4.137776   3.460480   2.152453   1.091426   2.142962
    28  H    5.468047   4.420324   3.521690   2.155152   1.091284
    29  H    5.268011   3.952935   2.850231   2.168616   1.091325
    30  H    4.513823   3.450764   3.534612   2.831844   2.184196
    31  H    5.836492   4.504643   4.217597   3.529322   2.177587
    32  H    4.415506   2.970979   2.970086   2.915482   2.184879
                   11         12         13         14         15
    11  C    0.000000
    12  O    7.426455   0.000000
    13  H    8.528900   2.251136   0.000000
    14  H    6.804282   3.189264   3.442855   0.000000
    15  H    8.191766   3.049976   3.487509   1.748467   0.000000
    16  H    7.113648   2.797240   4.613479   3.079743   2.534990
    17  H    6.801860   3.981157   5.294904   2.543474   2.413483
    18  H    4.482193   3.924219   5.115610   2.575593   3.752952
    19  H    4.927915   2.722467   4.426653   3.123865   3.845162
    20  H    5.526690   4.436205   6.494996   4.779286   4.934486
    21  H    5.247507   5.234282   6.966651   4.414573   4.795028
    22  H    3.915847   6.413045   8.263280   6.197584   6.851157
    23  H    2.784773   5.967597   7.473152   5.188683   6.219039
    24  H    3.209981   6.373608   8.140921   6.882987   7.710363
    25  H    4.261335   4.790424   6.712167   5.787770   6.387182
    26  H    2.852929   4.601174   5.775521   4.539802   5.798569
    27  H    3.500677   4.915399   6.234443   5.817760   6.844595
    28  H    2.148505   6.756523   7.607793   6.760245   8.166853
    29  H    2.159085   7.289735   8.547864   7.595645   8.804286
    30  H    1.090522   7.057534   8.001836   6.031661   7.507847
    31  H    1.090372   8.411259   9.391455   7.721862   9.177072
    32  H    1.090191   7.685853   9.004805   7.080785   8.331404
                   16         17         18         19         20
    16  H    0.000000
    17  H    1.738373   0.000000
    18  H    3.067978   2.516711   0.000000
    19  H    2.516623   3.054411   1.747498   0.000000
    20  H    2.602150   3.126404   3.060735   2.484669   0.000000
    21  H    3.049674   2.504803   2.540086   3.052905   1.739386
    22  H    4.880767   4.789277   3.761315   3.843634   2.470947
    23  H    4.791686   4.368084   2.619785   3.252935   3.062287
    24  H    5.801116   6.146716   4.502776   3.985500   3.584953
    25  H    4.382616   5.088811   3.759214   2.689380   2.499439
    26  H    4.794300   4.892322   2.539903   2.330731   3.889184
    27  H    5.538023   6.083858   4.034950   3.133146   4.391951
    28  H    7.265600   7.320922   4.870975   4.778296   6.068366
    29  H    7.422195   7.610907   5.376599   5.086689   5.686155
    30  H    6.699120   6.190301   3.832204   4.599422   5.422375
    31  H    8.190602   7.829687   5.487012   5.978527   6.603666
    32  H    7.009731   6.676008   4.592460   5.045497   5.129477
                   21         22         23         24         25
    21  H    0.000000
    22  H    2.405419   0.000000
    23  H    2.477622   1.731251   0.000000
    24  H    4.236771   2.289447   2.721332   0.000000
    25  H    3.677959   2.675711   3.041989   1.726239   0.000000
    26  H    4.101947   3.732848   2.597023   3.045426   2.711993
    27  H    5.154452   4.270918   3.728906   2.666385   2.290427
    28  H    6.247788   5.140971   4.089710   3.681798   4.241449
    29  H    6.053957   4.366362   3.867770   2.501273   3.597756
    30  H    4.898420   4.068121   2.572751   3.822707   4.550061
    31  H    6.279050   4.867838   3.807336   4.063974   5.252877
    32  H    4.797057   3.159879   2.357327   2.773834   4.056565
                   26         27         28         29         30
    26  H    0.000000
    27  H    1.730500   0.000000
    28  H    2.482592   2.408065   0.000000
    29  H    3.064434   2.477361   1.738090   0.000000
    30  H    2.658974   3.795840   2.544330   3.074257   0.000000
    31  H    3.815944   4.304757   2.449700   2.515666   1.759838
    32  H    3.301378   3.894776   3.064031   2.499749   1.765480
                   31         32
    31  H    0.000000
    32  H    1.755184   0.000000
 Stoichiometry    C10H20O2
 Framework group  C1[X(C10H20O2)]
 Deg. of freedom    90
 Full point group                 C1      NOp   1
 Largest Abelian subgroup         C1      NOp   1
 Largest concise Abelian subgroup C1      NOp   1
                         Standard orientation:                         
 ---------------------------------------------------------------------
 Center     Atomic      Atomic             Coordinates (Angstroms)
 Number     Number       Type             X           Y           Z
 ---------------------------------------------------------------------
      1          8           0        4.053582   -1.651408   -0.442681
      2          6           0        3.275443   -0.703430    0.120690
      3          6           0        2.960129    0.426320   -0.860786
      4          6           0        1.920585    1.467073   -0.373994
      5          6           0        0.481420    0.921483   -0.282321
      6          6           0       -0.534367    1.989835    0.161938
      7          6           0       -2.006078    1.523833    0.158669
      8          6           0       -2.335775    0.384910    1.152093
      9          6           0       -2.239634   -1.045556    0.571482
     10          6           0       -3.553659   -1.605550   -0.012518
     11          6           0       -4.086387   -0.850617   -1.239571
     12          8           0        2.897835   -0.754018    1.283039
     13          1           0        4.185555   -2.290237    0.258628
     14          1           0        2.641798   -0.009686   -1.807563
     15          1           0        3.907270    0.930080   -1.050887
     16          1           0        2.224482    1.872173    0.594367
     17          1           0        1.931028    2.315458   -1.060723
     18          1           0        0.182649    0.515134   -1.250045
     19          1           0        0.456531    0.089419    0.422530
     20          1           0       -0.270714    2.348359    1.158658
     21          1           0       -0.448254    2.856974   -0.495202
     22          1           0       -2.625754    2.385704    0.411682
     23          1           0       -2.300383    1.251074   -0.854800
     24          1           0       -3.337887    0.535754    1.557160
     25          1           0       -1.675534    0.467899    2.017464
     26          1           0       -1.450751   -1.107935   -0.178243
     27          1           0       -1.921717   -1.715864    1.371998
     28          1           0       -3.393983   -2.648952   -0.289495
     29          1           0       -4.321259   -1.622653    0.763039
     30          1           0       -3.334890   -0.791797   -2.027626
     31          1           0       -4.960925   -1.352235   -1.654869
     32          1           0       -4.388647    0.164932   -0.983027
 ---------------------------------------------------------------------
 Rotational constants (GHZ):           1.3058410           0.3414079           0.3057770
 Standard basis: 6-31G(d,p) (6D, 7F)
 There are   280 symmetry adapted cartesian basis functions of A   symmetry.
 There are   280 symmetry adapted basis functions of A   symmetry.
   280 basis functions,   476 primitive gaussians,   280 cartesian basis functions
    48 alpha electrons       48 beta electrons
       nuclear repulsion energy       718.0518093891 Hartrees.
 NAtoms=   32 NActive=   32 NUniq=   32 SFac= 1.00D+00 NAtFMM=   60 NAOKFM=F Big=F
 Integral buffers will be    131072 words long.
 Raffenetti 2 integral format.
 Two-electron integral symmetry is turned on.
 Nuclear repulsion after empirical dispersion term =      718.0031925770 Hartrees.
 One-electron integrals computed using PRISM.
 NBasis=   280 RedAO= T EigKep=  3.16D-03  NBF=   280
 NBsUse=   280 1.00D-06 EigRej= -1.00D+00 NBFU=   280
 ExpMin= 1.61D-01 ExpMax= 5.48D+03 ExpMxC= 8.25D+02 IAcc=3 IRadAn=         5 AccDes= 0.00D+00
 Harris functional with IExCor=  402 and IRadAn=       5 diagonalized for initial guess.
 HarFok:  IExCor=  402 AccDes= 0.00D+00 IRadAn=         5 IDoV= 1 UseB2=F ITyADJ=14
 ICtDFT=  3500011 ScaDFX=  1.000000  1.000000  1.000000  1.000000
 FoFCou: FMM=F IPFlag=           0 FMFlag=      100000 FMFlg1=           0
         NFxFlg=           0 DoJE=T BraDBF=F KetDBF=T FulRan=T
         wScrn=  0.000000 ICntrl=       500 IOpCl=  0 I1Cent=   200000004 NGrid=           0
         NMat0=    1 NMatS0=      1 NMatT0=    0 NMatD0=    1 NMtDS0=    0 NMtDT0=    0
 Petite list used in FoFCou.
 Requested convergence on RMS density matrix=1.00D-08 within 128 cycles.
 Requested convergence on MAX density matrix=1.00D-06.
 Requested convergence on             energy=1.00D-06.
 No special actions if energy rises.
 Integral accuracy reduced to 1.0D-05 until final iterations.
 Initial convergence to 1.0D-05 achieved.  Increase integral accuracy.
 SCF Done:  E(RB3LYP) =  -543.660962232     A.U. after   13 cycles
            NFock= 13  Conv=0.76D-08     -V/T= 2.0096

 **********************************************************************

            Population analysis using the SCF Density.

 **********************************************************************

 Orbital symmetries:
       Occupied  (A) (A) (A) (A) (A) (A) (A) (A) (A) (A) (A) (A)
                 (A) (A) (A) (A) (A) (A) (A) (A) (A) (A) (A) (A)
                 (A) (A) (A) (A) (A) (A) (A) (A) (A) (A) (A) (A)
                 (A) (A) (A) (A) (A) (A) (A) (A) (A) (A) (A) (A)
       Virtual   (A) (A) (A) (A) (A) (A) (A) (A) (A) (A) (A) (A)
                 (A) (A) (A) (A) (A) (A) (A) (A) (A) (A) (A) (A)
                 (A) (A) (A) (A) (A) (A) (A) (A) (A) (A) (A) (A)
                 (A) (A) (A) (A) (A) (A) (A) (A) (A) (A) (A) (A)
                 (A) (A) (A) (A) (A) (A) (A) (A) (A) (A) (A) (A)
                 (A) (A) (A) (A) (A) (A) (A) (A) (A) (A) (A) (A)
                 (A) (A) (A) (A) (A) (A) (A) (A) (A) (A) (A) (A)
                 (A) (A) (A) (A) (A) (A) (A) (A) (A) (A) (A) (A)
                 (A) (A) (A) (A) (A) (A) (A) (A) (A) (A) (A) (A)
                 (A) (A) (A) (A) (A) (A) (A) (A) (A) (A) (A) (A)
                 (A) (A) (A) (A) (A) (A) (A) (A) (A) (A) (A) (A)
                 (A) (A) (A) (A) (A) (A) (A) (A) (A) (A) (A) (A)
                 (A) (A) (A) (A) (A) (A) (A) (A) (A) (A) (A) (A)
                 (A) (A) (A) (A) (A) (A) (A) (A) (A) (A) (A) (A)
                 (A) (A) (A) (A) (A) (A) (A) (A) (A) (A) (A) (A)
                 (A) (A) (A) (A) (A) (A) (A) (A) (A) (A) (A) (A)
                 (A) (A) (A) (A) (A) (A) (A) (A) (A) (A) (A) (A)
                 (A) (A) (A) (A) (A) (A) (A) (A) (A) (A) (A) (A)
                 (A) (A) (A) (A) (A) (A) (A) (A) (A) (A) (A) (A)
                 (A) (A) (A) (A)
 The electronic state is 1-A.
 Alpha  occ. eigenvalues --  -19.19968 -19.13942 -10.32268 -10.20157 -10.18486
 Alpha  occ. eigenvalues --  -10.17363 -10.17322 -10.17300 -10.17121 -10.17058
 Alpha  occ. eigenvalues --  -10.16974 -10.16717  -1.10913  -1.01207  -0.80781
 Alpha  occ. eigenvalues --   -0.79070  -0.76271  -0.72381  -0.68807  -0.64810
 Alpha  occ. eigenvalues --   -0.61407  -0.57826  -0.56709  -0.55497  -0.49526
 Alpha  occ. eigenvalues --   -0.48231  -0.47160  -0.46374  -0.44277  -0.43888
 Alpha  occ. eigenvalues --   -0.43153  -0.41070  -0.40169  -0.40008  -0.38718
 Alpha  occ. eigenvalues --   -0.38204  -0.36811  -0.35802  -0.35254  -0.33993
 Alpha  occ. eigenvalues --   -0.33555  -0.32392  -0.32127  -0.31665  -0.30661
 Alpha  occ. eigenvalues --   -0.29767  -0.29584  -0.27322
 Alpha virt. eigenvalues --    0.00884   0.08221   0.08800   0.09976   0.11090
 Alpha virt. eigenvalues --    0.11871   0.12617   0.13476   0.14609   0.14973
 Alpha virt. eigenvalues --    0.15800   0.16843   0.17491   0.17825   0.18978
 Alpha virt. eigenvalues --    0.19060   0.19703   0.20115   0.20626   0.20711
 Alpha virt. eigenvalues --    0.21353   0.22984   0.23310   0.23825   0.25569
 Alpha virt. eigenvalues --    0.26468   0.27495   0.29785   0.29866   0.30585
 Alpha virt. eigenvalues --    0.31465   0.36790   0.49321   0.49390   0.50859
 Alpha virt. eigenvalues --    0.52752   0.53476   0.53905   0.54393   0.54923
 Alpha virt. eigenvalues --    0.57095   0.58151   0.58853   0.61116   0.62424
 Alpha virt. eigenvalues --    0.63503   0.65559   0.65799   0.67292   0.67409
 Alpha virt. eigenvalues --    0.69088   0.69465   0.71404   0.72335   0.73074
 Alpha virt. eigenvalues --    0.75108   0.77220   0.79052   0.79454   0.81071
 Alpha virt. eigenvalues --    0.83647   0.84499   0.85306   0.86080   0.86455
 Alpha virt. eigenvalues --    0.87042   0.87892   0.88430   0.89257   0.90590
 Alpha virt. eigenvalues --    0.91642   0.92211   0.92842   0.93331   0.94320
 Alpha virt. eigenvalues --    0.94641   0.95356   0.95612   0.96670   0.97372
 Alpha virt. eigenvalues --    0.98013   0.99384   1.00897   1.02740   1.04380
 Alpha virt. eigenvalues --    1.06264   1.09589   1.10096   1.13992   1.16042
 Alpha virt. eigenvalues --    1.19042   1.27197   1.28358   1.31202   1.35021
 Alpha virt. eigenvalues --    1.38119   1.38728   1.40782   1.44385   1.49549
 Alpha virt. eigenvalues --    1.51766   1.53644   1.54233   1.55604   1.57417
 Alpha virt. eigenvalues --    1.57503   1.60476   1.64458   1.65935   1.67947
 Alpha virt. eigenvalues --    1.69283   1.70481   1.71662   1.73952   1.75685
 Alpha virt. eigenvalues --    1.78254   1.79795   1.80432   1.82227   1.84214
 Alpha virt. eigenvalues --    1.84922   1.86395   1.87734   1.88235   1.89370
 Alpha virt. eigenvalues --    1.89722   1.90929   1.92102   1.92734   1.94815
 Alpha virt. eigenvalues --    1.97639   2.00902   2.02948   2.06129   2.09057
 Alpha virt. eigenvalues --    2.09693   2.12607   2.13441   2.14170   2.14957
 Alpha virt. eigenvalues --    2.15286   2.16790   2.17264   2.19451   2.22131
 Alpha virt. eigenvalues --    2.23137   2.24373   2.25095   2.26001   2.27503
 Alpha virt. eigenvalues --    2.27880   2.29196   2.30182   2.31808   2.32711
 Alpha virt. eigenvalues --    2.33841   2.34418   2.38302   2.40056   2.42132
 Alpha virt. eigenvalues --    2.42826   2.44258   2.45308   2.47086   2.48621
 Alpha virt. eigenvalues --    2.50306   2.53249   2.55531   2.56834   2.58781
 Alpha virt. eigenvalues --    2.61478   2.63502   2.64488   2.65569   2.66432
 Alpha virt. eigenvalues --    2.68240   2.70105   2.71853   2.72148   2.74113
 Alpha virt. eigenvalues --    2.76582   2.77531   2.80665   2.80971   2.81469
 Alpha virt. eigenvalues --    2.84269   2.84717   2.86302   2.88929   2.89102
 Alpha virt. eigenvalues --    2.90134   2.91287   2.92153   2.92511   2.93350
 Alpha virt. eigenvalues --    2.93611   2.95722   2.98068   3.01623   3.15205
 Alpha virt. eigenvalues --    3.20452   3.24890   3.29437   3.31082   3.32217
 Alpha virt. eigenvalues --    3.33026   3.35307   3.36942   3.38620   3.40755
 Alpha virt. eigenvalues --    3.41924   3.44366   3.45487   3.47220   3.47851
 Alpha virt. eigenvalues --    3.53017   3.55813   3.57571   3.59922   3.62001
 Alpha virt. eigenvalues --    3.93142   4.15066   4.24079   4.26985   4.32420
 Alpha virt. eigenvalues --    4.43236   4.52298   4.59939   4.64282   4.69297
 Alpha virt. eigenvalues --    4.70041   4.78323
          Condensed to atoms (all electrons):
               1          2          3          4          5          6
     1  O    8.112500   0.257829  -0.094279   0.002565  -0.000051  -0.000000
     2  C    0.257829   4.379539   0.325419  -0.033500  -0.003052   0.000030
     3  C   -0.094279   0.325419   5.148145   0.335154  -0.034885   0.003348
     4  C    0.002565  -0.033500   0.335154   4.917750   0.372803  -0.032702
     5  C   -0.000051  -0.003052  -0.034885   0.372803   4.909360   0.378380
     6  C   -0.000000   0.000030   0.003348  -0.032702   0.378380   4.890914
     7  C   -0.000000   0.000001  -0.000134   0.003636  -0.041634   0.374648
     8  C   -0.000000  -0.000002   0.000005  -0.000001  -0.002467  -0.037974
     9  C    0.000000  -0.000002   0.000002   0.000085  -0.000554  -0.001919
    10  C    0.000000   0.000000   0.000000  -0.000002   0.000077   0.000075
    11  C   -0.000000  -0.000000   0.000000   0.000000  -0.000026   0.000080
    12  O   -0.079988   0.564277  -0.084972   0.005329  -0.004670   0.000017
    13  H    0.267725  -0.009274   0.011215  -0.000320   0.000012  -0.000000
    14  H    0.002888  -0.025899   0.365327  -0.035510  -0.005240  -0.000004
    15  H    0.001763  -0.026210   0.363795  -0.026733   0.003605  -0.000111
    16  H    0.000107  -0.006015  -0.035559   0.381685  -0.033487  -0.003616
    17  H   -0.000047   0.004658  -0.030076   0.371736  -0.039912  -0.004119
    18  H   -0.000000  -0.000407  -0.003709  -0.042359   0.379264  -0.039994
    19  H   -0.000037   0.004393  -0.005902  -0.036652   0.383400  -0.032192
    20  H   -0.000000  -0.000010   0.000049  -0.003840  -0.040431   0.382059
    21  H   -0.000000  -0.000000   0.000075  -0.005381  -0.042804   0.377186
    22  H    0.000000   0.000000   0.000002  -0.000137   0.004977  -0.032335
    23  H   -0.000000   0.000000  -0.000000   0.000044  -0.007359  -0.036586
    24  H   -0.000000   0.000000  -0.000000   0.000001   0.000063   0.003843
    25  H    0.000000  -0.000001   0.000002  -0.000083  -0.000936  -0.008028
    26  H   -0.000000   0.000002   0.000003  -0.000010   0.001487  -0.000336
    27  H   -0.000000   0.000000  -0.000000  -0.000001  -0.000226   0.000068
    28  H    0.000000  -0.000000  -0.000000   0.000000   0.000005   0.000003
    29  H    0.000000  -0.000000  -0.000000   0.000000  -0.000001  -0.000004
    30  H    0.000000  -0.000000  -0.000000   0.000000  -0.000013  -0.000006
    31  H    0.000000   0.000000   0.000000  -0.000000   0.000000  -0.000003
    32  H   -0.000000   0.000000   0.000000   0.000000   0.000008   0.000059
               7          8          9         10         11         12
     1  O   -0.000000  -0.000000   0.000000   0.000000  -0.000000  -0.079988
     2  C    0.000001  -0.000002  -0.000002   0.000000  -0.000000   0.564277
     3  C   -0.000134   0.000005   0.000002   0.000000   0.000000  -0.084972
     4  C    0.003636  -0.000001   0.000085  -0.000002   0.000000   0.005329
     5  C   -0.041634  -0.002467  -0.000554   0.000077  -0.000026  -0.004670
     6  C    0.374648  -0.037974  -0.001919   0.000075   0.000080   0.000017
     7  C    4.917468   0.367733  -0.033900  -0.002132  -0.000482   0.000002
     8  C    0.367733   4.921253   0.369937  -0.039461  -0.002073  -0.000002
     9  C   -0.033900   0.369937   4.901344   0.385313  -0.048834  -0.000002
    10  C   -0.002132  -0.039461   0.385313   4.865091   0.375516  -0.000000
    11  C   -0.000482  -0.002073  -0.048834   0.375516   4.918990  -0.000000
    12  O    0.000002  -0.000002  -0.000002  -0.000000  -0.000000   8.045405
    13  H    0.000000   0.000000  -0.000000   0.000000  -0.000000   0.011359
    14  H   -0.000000   0.000000  -0.000001   0.000000  -0.000000   0.001887
    15  H    0.000001  -0.000000  -0.000000  -0.000000   0.000000   0.000547
    16  H    0.000050  -0.000009  -0.000002   0.000000  -0.000000   0.005118
    17  H   -0.000032   0.000006  -0.000003   0.000000   0.000000   0.000242
    18  H   -0.002824  -0.001236  -0.000554  -0.000013  -0.000011   0.000120
    19  H   -0.004124   0.003761  -0.001602   0.000051   0.000009   0.007784
    20  H   -0.036258  -0.007271  -0.000184  -0.000004  -0.000001   0.000011
    21  H   -0.033986   0.005007  -0.000107   0.000004   0.000005  -0.000002
    22  H    0.370359  -0.034781   0.004540   0.000061  -0.000225   0.000000
    23  H    0.386764  -0.045110  -0.007519  -0.000301   0.001037   0.000000
    24  H   -0.033161   0.380621  -0.044469  -0.008474  -0.000567  -0.000000
    25  H   -0.044442   0.383194  -0.032583   0.003950  -0.000002  -0.000001
    26  H   -0.007683  -0.045292   0.385920  -0.037125  -0.006756  -0.000011
    27  H    0.004549  -0.034476   0.374093  -0.034600   0.005438   0.000001
    28  H   -0.000093   0.004957  -0.034261   0.382051  -0.040712   0.000000
    29  H   -0.000202  -0.007370  -0.037144   0.384469  -0.040732   0.000000
    30  H   -0.000596  -0.000920  -0.004339  -0.035766   0.386568   0.000000
    31  H    0.000093  -0.000069   0.004576  -0.028396   0.379080  -0.000000
    32  H   -0.001515   0.003519  -0.004661  -0.033167   0.388007   0.000000
              13         14         15         16         17         18
     1  O    0.267725   0.002888   0.001763   0.000107  -0.000047  -0.000000
     2  C   -0.009274  -0.025899  -0.026210  -0.006015   0.004658  -0.000407
     3  C    0.011215   0.365327   0.363795  -0.035559  -0.030076  -0.003709
     4  C   -0.000320  -0.035510  -0.026733   0.381685   0.371736  -0.042359
     5  C    0.000012  -0.005240   0.003605  -0.033487  -0.039912   0.379264
     6  C   -0.000000  -0.000004  -0.000111  -0.003616  -0.004119  -0.039994
     7  C    0.000000  -0.000000   0.000001   0.000050  -0.000032  -0.002824
     8  C    0.000000   0.000000  -0.000000  -0.000009   0.000006  -0.001236
     9  C   -0.000000  -0.000001  -0.000000  -0.000002  -0.000003  -0.000554
    10  C    0.000000   0.000000  -0.000000   0.000000   0.000000  -0.000013
    11  C   -0.000000  -0.000000   0.000000  -0.000000   0.000000  -0.000011
    12  O    0.011359   0.001887   0.000547   0.005118   0.000242   0.000120
    13  H    0.401009  -0.000394  -0.000377  -0.000011   0.000004  -0.000001
    14  H   -0.000394   0.586460  -0.027445   0.005210  -0.002212   0.005145
    15  H   -0.000377  -0.027445   0.581534  -0.001622  -0.004043   0.000040
    16  H   -0.000011   0.005210  -0.001622   0.611690  -0.039656   0.005891
    17  H    0.000004  -0.002212  -0.004043  -0.039656   0.647429  -0.005848
    18  H   -0.000001   0.005145   0.000040   0.005891  -0.005848   0.657264
    19  H    0.000001  -0.000471   0.000090  -0.005879   0.005930  -0.042508
    20  H   -0.000000   0.000007   0.000004   0.004582  -0.000528   0.006274
    21  H    0.000000   0.000004  -0.000002  -0.000549   0.005883  -0.005390
    22  H   -0.000000   0.000000  -0.000000   0.000003  -0.000005   0.000008
    23  H    0.000000  -0.000001   0.000000   0.000006  -0.000001   0.005068
    24  H    0.000000  -0.000000   0.000000  -0.000000   0.000000  -0.000012
    25  H   -0.000000  -0.000000  -0.000000   0.000004   0.000000   0.000173
    26  H    0.000000   0.000003  -0.000000   0.000005   0.000000   0.002556
    27  H    0.000000   0.000000   0.000000   0.000000   0.000000   0.000005
    28  H    0.000000  -0.000000   0.000000   0.000000  -0.000000  -0.000003
    29  H   -0.000000  -0.000000   0.000000  -0.000000  -0.000000   0.000000
    30  H   -0.000000   0.000000   0.000000   0.000000  -0.000000   0.000123
    31  H    0.000000   0.000000  -0.000000   0.000000   0.000000   0.000000
    32  H   -0.000000   0.000000  -0.000000  -0.000000  -0.000000  -0.000008
              19         20         21         22         23         24
     1  O   -0.000037  -0.000000  -0.000000   0.000000  -0.000000  -0.000000
     2  C    0.004393  -0.000010  -0.000000   0.000000   0.000000   0.000000
     3  C   -0.005902   0.000049   0.000075   0.000002  -0.000000  -0.000000
     4  C   -0.036652  -0.003840  -0.005381  -0.000137   0.000044   0.000001
     5  C    0.383400  -0.040431  -0.042804   0.004977  -0.007359   0.000063
     6  C   -0.032192   0.382059   0.377186  -0.032335  -0.036586   0.003843
     7  C   -0.004124  -0.036258  -0.033986   0.370359   0.386764  -0.033161
     8  C    0.003761  -0.007271   0.005007  -0.034781  -0.045110   0.380621
     9  C   -0.001602  -0.000184  -0.000107   0.004540  -0.007519  -0.044469
    10  C    0.000051  -0.000004   0.000004   0.000061  -0.000301  -0.008474
    11  C    0.000009  -0.000001   0.000005  -0.000225   0.001037  -0.000567
    12  O    0.007784   0.000011  -0.000002   0.000000   0.000000  -0.000000
    13  H    0.000001  -0.000000   0.000000  -0.000000   0.000000   0.000000
    14  H   -0.000471   0.000007   0.000004   0.000000  -0.000001  -0.000000
    15  H    0.000090   0.000004  -0.000002  -0.000000   0.000000   0.000000
    16  H   -0.005879   0.004582  -0.000549   0.000003   0.000006  -0.000000
    17  H    0.005930  -0.000528   0.005883  -0.000005  -0.000001   0.000000
    18  H   -0.042508   0.006274  -0.005390   0.000008   0.005068  -0.000012
    19  H    0.600671  -0.006556   0.005873  -0.000050  -0.000273  -0.000060
    20  H   -0.006556   0.642050  -0.041048  -0.004099   0.005798   0.000118
    21  H    0.005873  -0.041048   0.660349  -0.004314  -0.003825  -0.000219
    22  H   -0.000050  -0.004099  -0.004314   0.658823  -0.039678  -0.009720
    23  H   -0.000273   0.005798  -0.003825  -0.039678   0.635615   0.001429
    24  H   -0.000060   0.000118  -0.000219  -0.009720   0.001429   0.647578
    25  H    0.001005   0.005317   0.000231   0.001319   0.005370  -0.038853
    26  H    0.001039   0.000109  -0.000089   0.000172   0.001991   0.005524
    27  H    0.000653   0.000010   0.000005  -0.000216   0.000181   0.001183
    28  H   -0.000004  -0.000000  -0.000000   0.000005  -0.000097   0.000219
    29  H   -0.000000   0.000000  -0.000000   0.000009   0.000113   0.005535
    30  H   -0.000008   0.000000  -0.000003   0.000010   0.002211   0.000164
    31  H   -0.000000   0.000000   0.000000  -0.000003   0.000020  -0.000081
    32  H   -0.000001  -0.000000  -0.000005   0.000678   0.000755   0.000874
              25         26         27         28         29         30
     1  O    0.000000  -0.000000  -0.000000   0.000000   0.000000   0.000000
     2  C   -0.000001   0.000002   0.000000  -0.000000  -0.000000  -0.000000
     3  C    0.000002   0.000003  -0.000000  -0.000000  -0.000000  -0.000000
     4  C   -0.000083  -0.000010  -0.000001   0.000000   0.000000   0.000000
     5  C   -0.000936   0.001487  -0.000226   0.000005  -0.000001  -0.000013
     6  C   -0.008028  -0.000336   0.000068   0.000003  -0.000004  -0.000006
     7  C   -0.044442  -0.007683   0.004549  -0.000093  -0.000202  -0.000596
     8  C    0.383194  -0.045292  -0.034476   0.004957  -0.007370  -0.000920
     9  C   -0.032583   0.385920   0.374093  -0.034261  -0.037144  -0.004339
    10  C    0.003950  -0.037125  -0.034600   0.382051   0.384469  -0.035766
    11  C   -0.000002  -0.006756   0.005438  -0.040712  -0.040732   0.386568
    12  O   -0.000001  -0.000011   0.000001   0.000000   0.000000   0.000000
    13  H   -0.000000   0.000000   0.000000   0.000000  -0.000000  -0.000000
    14  H   -0.000000   0.000003   0.000000  -0.000000  -0.000000   0.000000
    15  H   -0.000000  -0.000000   0.000000   0.000000   0.000000   0.000000
    16  H    0.000004   0.000005   0.000000   0.000000  -0.000000   0.000000
    17  H    0.000000   0.000000   0.000000  -0.000000  -0.000000  -0.000000
    18  H    0.000173   0.002556   0.000005  -0.000003   0.000000   0.000123
    19  H    0.001005   0.001039   0.000653  -0.000004  -0.000000  -0.000008
    20  H    0.005317   0.000109   0.000010  -0.000000   0.000000   0.000000
    21  H    0.000231  -0.000089   0.000005  -0.000000  -0.000000  -0.000003
    22  H    0.001319   0.000172  -0.000216   0.000005   0.000009   0.000010
    23  H    0.005370   0.001991   0.000181  -0.000097   0.000113   0.002211
    24  H   -0.038853   0.005524   0.001183   0.000219   0.005535   0.000164
    25  H    0.637558   0.001221  -0.009473  -0.000220   0.000113  -0.000009
    26  H    0.001221   0.637360  -0.039296  -0.003785   0.005851   0.004955
    27  H   -0.009473  -0.039296   0.652279  -0.004232  -0.004085  -0.000005
    28  H   -0.000220  -0.003785  -0.004232   0.650668  -0.040049  -0.004186
    29  H    0.000113   0.005851  -0.004085  -0.040049   0.644552   0.005651
    30  H   -0.000009   0.004955  -0.000005  -0.004186   0.005651   0.614487
    31  H    0.000003   0.000011  -0.000186  -0.005067  -0.002471  -0.032669
    32  H   -0.000062  -0.000230  -0.000055   0.005673  -0.005843  -0.035410
              31         32
     1  O    0.000000  -0.000000
     2  C    0.000000   0.000000
     3  C    0.000000   0.000000
     4  C   -0.000000   0.000000
     5  C    0.000000   0.000008
     6  C   -0.000003   0.000059
     7  C    0.000093  -0.001515
     8  C   -0.000069   0.003519
     9  C    0.004576  -0.004661
    10  C   -0.028396  -0.033167
    11  C    0.379080   0.388007
    12  O   -0.000000   0.000000
    13  H    0.000000  -0.000000
    14  H    0.000000   0.000000
    15  H   -0.000000  -0.000000
    16  H    0.000000  -0.000000
    17  H    0.000000  -0.000000
    18  H    0.000000  -0.000008
    19  H   -0.000000  -0.000001
    20  H    0.000000  -0.000000
    21  H    0.000000  -0.000005
    22  H   -0.000003   0.000678
    23  H    0.000020   0.000755
    24  H   -0.000081   0.000874
    25  H    0.000003  -0.000062
    26  H    0.000011  -0.000230
    27  H   -0.000186  -0.000055
    28  H   -0.005067   0.005673
    29  H   -0.002471  -0.005843
    30  H   -0.032669  -0.035410
    31  H    0.620959  -0.032423
    32  H   -0.032423   0.606492
 Mulliken charges:
               1
     1  O   -0.470975
     2  C    0.568225
     3  C   -0.263023
     4  C   -0.173557
     5  C   -0.175693
     6  C   -0.180780
     7  C   -0.182104
     8  C   -0.181480
     9  C   -0.173170
    10  C   -0.177216
    11  C   -0.314309
    12  O   -0.472451
    13  H    0.319053
    14  H    0.130246
    15  H    0.135165
    16  H    0.112055
    17  H    0.090594
    18  H    0.082947
    19  H    0.121659
    20  H    0.093844
    21  H    0.083101
    22  H    0.084596
    23  H    0.094347
    24  H    0.088464
    25  H    0.095236
    26  H    0.092404
    27  H    0.088386
    28  H    0.089129
    29  H    0.091609
    30  H    0.099759
    31  H    0.096626
    32  H    0.107314
 Sum of Mulliken charges =  -0.00000
 Mulliken charges with hydrogens summed into heavy atoms:
               1
     1  O   -0.151922
     2  C    0.568225
     3  C    0.002388
     4  C    0.029092
     5  C    0.028913
     6  C   -0.003835
     7  C   -0.003162
     8  C    0.002220
     9  C    0.007619
    10  C    0.003522
    11  C   -0.010610
    12  O   -0.472451
 Electronic spatial extent (au):  <R**2>=           3749.4810
 Charge=             -0.0000 electrons
 Dipole moment (field-independent basis, Debye):
    X=              0.4904    Y=             -0.0645    Z=             -1.1897  Tot=              1.2884
 Quadrupole moment (field-independent basis, Debye-Ang):
   XX=            -72.5104   YY=            -72.4578   ZZ=            -79.2638
   XY=             -1.6563   XZ=             -2.3853   YZ=             -0.9086
 Traceless Quadrupole moment (field-independent basis, Debye-Ang):
   XX=              2.2336   YY=              2.2862   ZZ=             -4.5198
   XY=             -1.6563   XZ=             -2.3853   YZ=             -0.9086
 Octapole moment (field-independent basis, Debye-Ang**2):
  XXX=             54.5836  YYY=            -23.3392  ZZZ=             -1.6524  XYY=             28.0961
  XXY=            -14.6069  XXZ=              5.5922  XZZ=              1.5105  YZZ=              0.1440
  YYZ=              5.0736  XYZ=             -7.5550
 Hexadecapole moment (field-independent basis, Debye-Ang**3):
 XXXX=          -3546.0634 YYYY=           -823.0096 ZZZZ=           -392.9221 XXXY=            -98.7362
 XXXZ=             38.6841 YYYX=            -96.4987 YYYZ=            -12.6520 ZZZX=            -10.7078
 ZZZY=              2.1042 XXYY=           -674.7508 XXZZ=           -708.8192 YYZZ=           -209.8013
 XXYZ=            -34.2469 YYXZ=             21.4812 ZZXY=             -0.7308
 N-N= 7.180031925770D+02 E-N=-2.699463154882D+03  KE= 5.384760830660D+02
 Calling FoFJK, ICntrl=      2127 FMM=F ISym2X=0 I1Cent= 0 IOpClX= 0 NMat=1 NMatS=1 NMatT=0.
 ***** Axes restored to original set *****
 -------------------------------------------------------------------
 Center     Atomic                   Forces (Hartrees/Bohr)
 Number     Number              X              Y              Z
 -------------------------------------------------------------------
      1        8          -0.010367235   -0.001009759    0.002619209
      2        6          -0.009643347   -0.022294142   -0.002152167
      3        6           0.001964643   -0.011594177   -0.002398573
      4        6           0.005932825    0.003652848   -0.007645293
      5        6           0.002322104   -0.005993309    0.005638733
      6        6           0.000243199    0.006524815   -0.006637035
      7        6           0.004639369   -0.004518075    0.003949827
      8        6          -0.003321544    0.008171134    0.000999307
      9        6           0.000907943   -0.006092238   -0.005397146
     10        6          -0.004076312    0.003284313    0.007214720
     11        6           0.004571404   -0.002956566   -0.001524336
     12        8          -0.006764609    0.016520047    0.004038999
     13        1           0.015740033    0.001869053   -0.004204170
     14        1          -0.000334920    0.004024538   -0.001307191
     15        1          -0.000217898    0.003657767    0.004463371
     16        1           0.003561405   -0.000459027   -0.000599449
     17        1          -0.002921766    0.002935008    0.001712521
     18        1          -0.003375503    0.003634913   -0.001372759
     19        1           0.003166002    0.000620870   -0.000160983
     20        1           0.003509573   -0.002855984    0.000746433
     21        1          -0.004049131    0.000979493    0.002535256
     22        1          -0.002286846   -0.003338825    0.001592667
     23        1          -0.000411063    0.004029160   -0.001729804
     24        1          -0.001950770   -0.001441204   -0.003825654
     25        1           0.002350702    0.000074803    0.003497650
     26        1          -0.002796324    0.002577830    0.002512937
     27        1           0.003790639   -0.000224576   -0.001710281
     28        1           0.002229796    0.003417319   -0.001170102
     29        1           0.000577806   -0.004425283   -0.000944095
     30        1          -0.000391736    0.002367107    0.002293197
     31        1          -0.001008068    0.000550452   -0.002918588
     32        1          -0.001590372   -0.001688304    0.001882802
 -------------------------------------------------------------------
 Cartesian Forces:  Max     0.022294142 RMS     0.004988867

 GradGradGradGradGradGradGradGradGradGradGradGradGradGradGradGradGradGrad
 Berny optimization.
 FormGI is forming the generalized inverse of G from B-inverse, IUseBI=4.
 Internal  Forces:  Max     0.017969684 RMS     0.003065222
 Search for a local minimum.
 Step number   1 out of a maximum of  179
 All quantities printed in internal units (Hartrees-Bohrs-Radians)
 Mixed Optimization -- RFO/linear search
 Second derivative matrix not updated -- first step.
 ITU=  0
     Eigenvalues ---    0.00230   0.00230   0.00230   0.00230   0.00230
     Eigenvalues ---    0.00230   0.00241   0.00289   0.00377   0.00855
     Eigenvalues ---    0.02358   0.03120   0.03124   0.03131   0.03206
     Eigenvalues ---    0.03219   0.03253   0.03409   0.03642   0.04634
     Eigenvalues ---    0.04670   0.04672   0.04679   0.04687   0.04695
     Eigenvalues ---    0.04734   0.05194   0.05375   0.05477   0.08302
     Eigenvalues ---    0.08539   0.08654   0.08673   0.08730   0.08740
     Eigenvalues ---    0.08778   0.09815   0.12196   0.12371   0.12449
     Eigenvalues ---    0.12461   0.12517   0.12524   0.12535   0.13122
     Eigenvalues ---    0.16000   0.16000   0.16000   0.16000   0.21886
     Eigenvalues ---    0.21896   0.21904   0.21904   0.21906   0.21917
     Eigenvalues ---    0.21920   0.22003   0.24997   0.25000   0.27698
     Eigenvalues ---    0.27921   0.27925   0.28191   0.28242   0.28357
     Eigenvalues ---    0.28549   0.28874   0.29479   0.34493   0.34624
     Eigenvalues ---    0.34633   0.34635   0.34648   0.34650   0.34656
     Eigenvalues ---    0.34660   0.34665   0.34666   0.34668   0.34725
     Eigenvalues ---    0.34752   0.34770   0.34791   0.34801   0.34811
     Eigenvalues ---    0.34827   0.34872   0.55096   0.55952   0.93982
 RFO step:  Lambda=-5.55374708D-03 EMin= 2.30000000D-03
 Linear search not attempted -- first point.
 Iteration  1 RMS(Cart)=  0.08656498 RMS(Int)=  0.00107596
 Iteration  2 RMS(Cart)=  0.00187476 RMS(Int)=  0.00013267
 Iteration  3 RMS(Cart)=  0.00000138 RMS(Int)=  0.00013267
 Iteration  4 RMS(Cart)=  0.00000000 RMS(Int)=  0.00013267
 Variable       Old X    -DE/DX   Delta X   Delta X   Delta X     New X
                                 (Linear)    (Quad)   (Total)
    R1        2.55047   0.00283   0.00000   0.00509   0.00509   2.55556
    R2        1.80995   0.01590   0.00000   0.02815   0.02815   1.83810
    R3        2.89014  -0.01065   0.00000  -0.03547  -0.03547   2.85468
    R4        2.31150  -0.01797   0.00000  -0.01901  -0.01901   2.29249
    R5        2.92803  -0.01220   0.00000  -0.04317  -0.04317   2.88486
    R6        2.05956   0.00370   0.00000   0.01046   0.01046   2.07002
    R7        2.05884   0.00525   0.00000   0.01482   0.01482   2.07366
    R8        2.91365  -0.00645   0.00000  -0.02232  -0.02232   2.89134
    R9        2.06507   0.00191   0.00000   0.00546   0.00546   2.07052
   R10        2.06271   0.00354   0.00000   0.01006   0.01006   2.07278
   R11        2.90954  -0.00440   0.00000  -0.01511  -0.01511   2.89444
   R12        2.06220   0.00501   0.00000   0.01422   0.01422   2.07643
   R13        2.06124   0.00277   0.00000   0.00784   0.00784   2.06909
   R14        2.91723  -0.00467   0.00000  -0.01626  -0.01626   2.90097
   R15        2.06275   0.00432   0.00000   0.01227   0.01227   2.07502
   R16        2.06247   0.00482   0.00000   0.01369   0.01369   2.07616
   R17        2.92312  -0.00173   0.00000  -0.00609  -0.00609   2.91703
   R18        2.06217   0.00413   0.00000   0.01173   0.01173   2.07390
   R19        2.05983   0.00370   0.00000   0.01046   0.01046   2.07029
   R20        2.92303  -0.00198   0.00000  -0.00695  -0.00695   2.91607
   R21        2.06237   0.00394   0.00000   0.01120   0.01120   2.07356
   R22        2.06290   0.00361   0.00000   0.01027   0.01027   2.07317
   R23        2.91613  -0.00439   0.00000  -0.01524  -0.01524   2.90089
   R24        2.05999   0.00379   0.00000   0.01071   0.01071   2.07069
   R25        2.06250   0.00402   0.00000   0.01141   0.01141   2.07391
   R26        2.90267  -0.00187   0.00000  -0.00635  -0.00635   2.89632
   R27        2.06223   0.00413   0.00000   0.01172   0.01172   2.07395
   R28        2.06231   0.00423   0.00000   0.01200   0.01200   2.07431
   R29        2.06079   0.00327   0.00000   0.00926   0.00926   2.07005
   R30        2.06050   0.00313   0.00000   0.00887   0.00887   2.06937
   R31        2.06016   0.00281   0.00000   0.00796   0.00796   2.06812
    A1        1.81551   0.00719   0.00000   0.04341   0.04341   1.85893
    A2        1.94963   0.00087   0.00000   0.00338   0.00338   1.95301
    A3        2.14789  -0.00445   0.00000  -0.01745  -0.01746   2.13044
    A4        2.18551   0.00357   0.00000   0.01396   0.01395   2.19946
    A5        2.01848  -0.01048   0.00000  -0.04815  -0.04809   1.97039
    A6        1.89883   0.00181   0.00000  -0.00850  -0.00860   1.89024
    A7        1.84866   0.00323   0.00000   0.01780   0.01833   1.86699
    A8        1.92375   0.00434   0.00000   0.01797   0.01723   1.94099
    A9        1.90445   0.00395   0.00000   0.03013   0.03022   1.93466
   A10        1.86222  -0.00242   0.00000  -0.00654  -0.00690   1.85532
   A11        1.99022  -0.00188   0.00000  -0.01458  -0.01475   1.97547
   A12        1.91859  -0.00031   0.00000  -0.01538  -0.01563   1.90295
   A13        1.89440  -0.00074   0.00000  -0.00596  -0.00582   1.88858
   A14        1.91566   0.00022   0.00000  -0.00614  -0.00656   1.90909
   A15        1.89797   0.00191   0.00000   0.02003   0.02000   1.91797
   A16        1.84078   0.00105   0.00000   0.02578   0.02574   1.86652
   A17        1.96864  -0.00082   0.00000  -0.00559  -0.00559   1.96305
   A18        1.91196   0.00018   0.00000  -0.00314  -0.00315   1.90881
   A19        1.90673  -0.00098   0.00000  -0.00996  -0.00993   1.89680
   A20        1.91094  -0.00001   0.00000  -0.00087  -0.00091   1.91003
   A21        1.90478   0.00141   0.00000   0.01256   0.01253   1.91731
   A22        1.85745   0.00028   0.00000   0.00782   0.00778   1.86523
   A23        2.00302  -0.00007   0.00000  -0.00265  -0.00272   2.00031
   A24        1.90925  -0.00044   0.00000  -0.01011  -0.01020   1.89905
   A25        1.90235  -0.00009   0.00000   0.00344   0.00344   1.90579
   A26        1.90853  -0.00035   0.00000  -0.00845  -0.00855   1.89998
   A27        1.88997   0.00044   0.00000   0.00855   0.00856   1.89853
   A28        1.84395   0.00057   0.00000   0.01068   0.01072   1.85467
   A29        2.00876  -0.00219   0.00000  -0.01395  -0.01420   1.99456
   A30        1.87807   0.00000   0.00000   0.00573   0.00582   1.88389
   A31        1.91231   0.00060   0.00000  -0.00985  -0.01030   1.90201
   A32        1.88765   0.00195   0.00000   0.02273   0.02284   1.91049
   A33        1.93407  -0.00048   0.00000  -0.01616  -0.01652   1.91755
   A34        1.83370   0.00039   0.00000   0.01569   0.01582   1.84952
   A35        2.01152   0.00250   0.00000   0.00792   0.00794   2.01946
   A36        1.90955  -0.00035   0.00000  -0.00087  -0.00085   1.90869
   A37        1.90099  -0.00168   0.00000  -0.01156  -0.01155   1.88944
   A38        1.90098  -0.00163   0.00000  -0.01056  -0.01056   1.89042
   A39        1.90739  -0.00036   0.00000  -0.00152  -0.00151   1.90588
   A40        1.82412   0.00144   0.00000   0.01771   0.01772   1.84184
   A41        2.00946  -0.00163   0.00000  -0.01136  -0.01162   1.99784
   A42        1.93484  -0.00073   0.00000  -0.01793  -0.01826   1.91659
   A43        1.88679   0.00163   0.00000   0.02071   0.02080   1.90759
   A44        1.91260   0.00046   0.00000  -0.01015  -0.01058   1.90201
   A45        1.87836   0.00000   0.00000   0.00690   0.00696   1.88532
   A46        1.83227   0.00051   0.00000   0.01596   0.01612   1.84838
   A47        2.00346   0.00067   0.00000   0.00089   0.00083   2.00429
   A48        1.89487  -0.00048   0.00000   0.00038   0.00036   1.89522
   A49        1.91311  -0.00111   0.00000  -0.01522  -0.01527   1.89785
   A50        1.89432   0.00039   0.00000   0.00997   0.00996   1.90428
   A51        1.90865  -0.00014   0.00000  -0.00504  -0.00512   1.90353
   A52        1.84243   0.00069   0.00000   0.01026   0.01027   1.85269
   A53        1.94420  -0.00067   0.00000  -0.00596  -0.00597   1.93824
   A54        1.93513  -0.00002   0.00000   0.00191   0.00190   1.93703
   A55        1.94551   0.00055   0.00000   0.00320   0.00319   1.94870
   A56        1.87789   0.00039   0.00000   0.00257   0.00257   1.88046
   A57        1.88690  -0.00038   0.00000  -0.00599  -0.00600   1.88090
   A58        1.87109   0.00015   0.00000   0.00447   0.00445   1.87554
    D1        3.13468  -0.00038   0.00000  -0.01605  -0.01600   3.11868
    D2        0.01094  -0.00037   0.00000  -0.00976  -0.00981   0.00113
    D3        3.00427  -0.00042   0.00000  -0.01065  -0.01036   2.99391
    D4        0.82880   0.00012   0.00000   0.00820   0.00793   0.83673
    D5       -1.16739   0.00045   0.00000   0.01078   0.01081  -1.15658
    D6       -0.15564  -0.00053   0.00000  -0.01749  -0.01724  -0.17287
    D7       -2.33110   0.00000   0.00000   0.00136   0.00106  -2.33005
    D8        1.95589   0.00034   0.00000   0.00393   0.00393   1.95982
    D9       -1.21941   0.00150   0.00000   0.04536   0.04523  -1.17417
   D10        0.94019   0.00017   0.00000   0.01460   0.01463   0.95482
   D11        2.94534   0.00084   0.00000   0.03374   0.03364   2.97898
   D12        0.94310  -0.00051   0.00000   0.01184   0.01160   0.95470
   D13        3.10270  -0.00184   0.00000  -0.01893  -0.01901   3.08369
   D14       -1.17533  -0.00117   0.00000   0.00021   0.00000  -1.17533
   D15        2.98263   0.00137   0.00000   0.03197   0.03215   3.01477
   D16       -1.14096   0.00004   0.00000   0.00121   0.00155  -1.13942
   D17        0.86419   0.00071   0.00000   0.02035   0.02055   0.88474
   D18       -3.11060  -0.00002   0.00000  -0.01747  -0.01740  -3.12800
   D19       -0.97739  -0.00045   0.00000  -0.02467  -0.02460  -1.00198
   D20        1.05099  -0.00057   0.00000  -0.02269  -0.02264   1.02835
   D21        1.01140   0.00159   0.00000   0.01822   0.01822   1.02963
   D22       -3.13856   0.00116   0.00000   0.01102   0.01102  -3.12754
   D23       -1.11019   0.00104   0.00000   0.01299   0.01298  -1.09721
   D24       -0.99414  -0.00084   0.00000  -0.02028  -0.02035  -1.01449
   D25        1.13907  -0.00127   0.00000  -0.02748  -0.02754   1.11153
   D26       -3.11574  -0.00139   0.00000  -0.02551  -0.02558  -3.14132
   D27        3.05898   0.00070   0.00000   0.02415   0.02415   3.08313
   D28       -1.07195  -0.00015   0.00000   0.00317   0.00321  -1.06875
   D29        0.93631   0.00024   0.00000   0.01228   0.01228   0.94860
   D30        0.92519   0.00103   0.00000   0.03262   0.03261   0.95780
   D31        3.07744   0.00018   0.00000   0.01164   0.01167   3.08911
   D32       -1.19748   0.00057   0.00000   0.02074   0.02075  -1.17673
   D33       -1.10150  -0.00010   0.00000   0.01663   0.01659  -1.08491
   D34        1.05075  -0.00094   0.00000  -0.00435  -0.00435   1.04640
   D35        3.05902  -0.00056   0.00000   0.00476   0.00473   3.06374
   D36        1.11412  -0.00139   0.00000  -0.03944  -0.03937   1.07475
   D37       -3.06360  -0.00031   0.00000  -0.01517  -0.01515  -3.07875
   D38       -1.07893   0.00046   0.00000   0.00132   0.00127  -1.07766
   D39       -1.03852  -0.00049   0.00000  -0.01758  -0.01754  -1.05605
   D40        1.06696   0.00059   0.00000   0.00669   0.00668   1.07363
   D41        3.05162   0.00135   0.00000   0.02318   0.02310   3.07472
   D42       -3.03967  -0.00122   0.00000  -0.03037  -0.03030  -3.06997
   D43       -0.93419  -0.00014   0.00000  -0.00610  -0.00609  -0.94028
   D44        1.05047   0.00062   0.00000   0.01039   0.01034   1.06081
   D45       -1.61939   0.00038   0.00000   0.03418   0.03408  -1.58531
   D46        2.51512   0.00100   0.00000   0.04308   0.04298   2.55809
   D47        0.53100   0.00037   0.00000   0.02875   0.02864   0.55964
   D48        2.56358   0.00037   0.00000   0.01925   0.01925   2.58282
   D49        0.41490   0.00100   0.00000   0.02816   0.02814   0.44304
   D50       -1.56922   0.00037   0.00000   0.01382   0.01381  -1.55541
   D51        0.56237  -0.00095   0.00000  -0.00380  -0.00368   0.55869
   D52       -1.58631  -0.00033   0.00000   0.00511   0.00522  -1.58109
   D53        2.71275  -0.00096   0.00000  -0.00923  -0.00911   2.70364
   D54       -1.60066   0.00031   0.00000   0.02666   0.02657  -1.57409
   D55        0.58269  -0.00098   0.00000  -0.01128  -0.01116   0.57153
   D56        2.58211   0.00018   0.00000   0.01000   0.00999   2.59209
   D57        0.55256   0.00036   0.00000   0.02287   0.02277   0.57533
   D58        2.73592  -0.00093   0.00000  -0.01507  -0.01496   2.72096
   D59       -1.54785   0.00022   0.00000   0.00621   0.00619  -1.54167
   D60        2.53554   0.00101   0.00000   0.03740   0.03731   2.57285
   D61       -1.56429  -0.00028   0.00000  -0.00054  -0.00042  -1.56471
   D62        0.43512   0.00087   0.00000   0.02075   0.02072   0.45585
   D63        1.12511  -0.00144   0.00000  -0.04253  -0.04246   1.08265
   D64       -3.03509  -0.00083   0.00000  -0.02874  -0.02869  -3.06378
   D65       -1.03067  -0.00087   0.00000  -0.02449  -0.02446  -1.05512
   D66       -1.06977   0.00043   0.00000  -0.00103  -0.00106  -1.07083
   D67        1.05322   0.00104   0.00000   0.01276   0.01270   1.06592
   D68        3.05765   0.00100   0.00000   0.01701   0.01694   3.07458
   D69       -3.05305  -0.00040   0.00000  -0.01831  -0.01829  -3.07134
   D70       -0.93006   0.00020   0.00000  -0.00453  -0.00452  -0.93458
   D71        1.07436   0.00017   0.00000  -0.00027  -0.00029   1.07408
   D72        0.95848   0.00030   0.00000   0.01882   0.01883   0.97731
   D73        3.04927   0.00033   0.00000   0.01938   0.01938   3.06865
   D74       -1.15083   0.00087   0.00000   0.02839   0.02840  -1.12243
   D75       -1.16480   0.00017   0.00000   0.01025   0.01025  -1.15455
   D76        0.92599   0.00020   0.00000   0.01081   0.01080   0.93679
   D77        3.00908   0.00074   0.00000   0.01983   0.01982   3.02890
   D78        3.11663  -0.00078   0.00000  -0.00462  -0.00462   3.11201
   D79       -1.07576  -0.00075   0.00000  -0.00406  -0.00407  -1.07983
   D80        1.00732  -0.00021   0.00000   0.00495   0.00496   1.01228
         Item               Value     Threshold  Converged?
 Maximum Force            0.017970     0.000450     NO 
 RMS     Force            0.003065     0.000300     NO 
 Maximum Displacement     0.402350     0.001800     NO 
 RMS     Displacement     0.086950     0.001200     NO 
 Predicted change in Energy=-2.913614D-03
 GradGradGradGradGradGradGradGradGradGradGradGradGradGradGradGradGradGrad

                          Input orientation:                          
 ---------------------------------------------------------------------
 Center     Atomic      Atomic             Coordinates (Angstroms)
 Number     Number       Type             X           Y           Z
 ---------------------------------------------------------------------
      1          8           0        5.490001    0.542211   -0.419888
      2          6           0        4.913882   -0.680286   -0.370710
      3          6           0        3.502799   -0.617020    0.164867
      4          6           0        2.759838   -1.944714    0.039395
      5          6           0        2.476546   -2.341785   -1.410801
      6          6           0        1.714298   -3.666059   -1.517054
      7          6           0        1.333096   -4.071225   -2.947839
      8          6           0        2.537803   -4.290722   -3.887666
      9          6           0        3.004633   -3.050481   -4.678289
     10          6           0        2.328500   -2.876426   -6.045413
     11          6           0        0.809731   -2.677585   -5.991853
     12          8           0        5.506791   -1.685466   -0.702023
     13          1           0        6.394132    0.408492   -0.752715
     14          1           0        2.971764    0.185310   -0.358758
     15          1           0        3.572411   -0.306172    1.214948
     16          1           0        3.349574   -2.731253    0.523202
     17          1           0        1.817615   -1.864055    0.595116
     18          1           0        1.897457   -1.546312   -1.899920
     19          1           0        3.428669   -2.416774   -1.946223
     20          1           0        2.325669   -4.463004   -1.073403
     21          1           0        0.799911   -3.606141   -0.910956
     22          1           0        0.740488   -4.993213   -2.891537
     23          1           0        0.666840   -3.309874   -3.368172
     24          1           0        2.299809   -5.086909   -4.604237
     25          1           0        3.374464   -4.673681   -3.290249
     26          1           0        2.840182   -2.146183   -4.081714
     27          1           0        4.088345   -3.110682   -4.840692
     28          1           0        2.785393   -2.018478   -6.554970
     29          1           0        2.553520   -3.754524   -6.664448
     30          1           0        0.546648   -1.825116   -5.356218
     31          1           0        0.403743   -2.486815   -6.990826
     32          1           0        0.300649   -3.560758   -5.593652
 ---------------------------------------------------------------------
                    Distance matrix (angstroms):
                    1          2          3          4          5
     1  O    0.000000
     2  C    1.352343   0.000000
     3  C    2.373758   1.510629   0.000000
     4  C    3.721496   2.531180   1.526600   0.000000
     5  C    4.287220   3.127775   2.551616   1.530029   0.000000
     6  C    5.759275   4.523967   3.914618   2.545332   1.531670
     7  C    6.704788   5.564358   5.131090   3.934616   2.580876
     8  C    6.640648   5.572250   5.554308   4.579832   3.152296
     9  C    6.100694   5.274304   5.442983   4.851720   3.384908
[...]
 Alpha virt. eigenvalues --    4.07629   4.09203   4.11598   4.16066   4.20863
 Alpha virt. eigenvalues --    4.22438   4.25832   4.28851   4.30234   4.31798
 Alpha virt. eigenvalues --    4.36678   4.39229   4.39844   4.40666   4.43239
 Alpha virt. eigenvalues --    4.43809   4.48654   4.50592   4.52342   4.54965
 Alpha virt. eigenvalues --    4.56075   4.57877   4.59597   4.61739   4.63671
 Alpha virt. eigenvalues --    4.65239   4.66342   4.68253   4.73834   4.77190
 Alpha virt. eigenvalues --    4.78734   4.80305   4.84346   4.87784   4.89038
 Alpha virt. eigenvalues --    4.92565   5.05787   5.08913   5.17081   5.21457
 Alpha virt. eigenvalues --    5.22275   5.38607   5.40866   5.50497   5.59300
 Alpha virt. eigenvalues --    5.74891   5.84428   5.86456   6.15018   6.19173
 Alpha virt. eigenvalues --    6.33151   6.33635   6.44495   6.48881   6.64379
 Alpha virt. eigenvalues --    6.68750   6.73791   6.82183   6.88177   7.07534
 Alpha virt. eigenvalues --    7.09029   7.26683  22.44873  22.49669  22.56470
 Alpha virt. eigenvalues --   22.58343  22.60787  22.61564  22.62817  22.64144
 Alpha virt. eigenvalues --   22.68093  23.27789  43.94192  44.02227
          Condensed to atoms (all electrons):
               1          2          3          4          5          6
     1  O    7.937351   0.376601  -0.125108   0.010788   0.000510   0.000006
     2  C    0.376601   4.493165   0.251848  -0.036090   0.012672   0.000605
     3  C   -0.125108   0.251848   5.389873   0.185512  -0.036722   0.007106
     4  C    0.010788  -0.036090   0.185512   5.186410   0.204014  -0.037233
     5  C    0.000510   0.012672  -0.036722   0.204014   5.414482   0.191251
     6  C    0.000006   0.000605   0.007106  -0.037233   0.191251   5.181794
     7  C   -0.000002   0.000133  -0.001088   0.010351  -0.053955   0.261237
     8  C    0.000002  -0.000070   0.000291  -0.002453   0.020630  -0.027132
     9  C   -0.000000   0.000138  -0.000174   0.001280   0.003183  -0.004531
    10  C   -0.000000   0.000004   0.000002  -0.000007  -0.001087   0.001416
    11  C    0.000000  -0.000000   0.000003  -0.000034  -0.000076  -0.000909
    12  O   -0.088393   0.643510  -0.108205   0.022809  -0.010358   0.000013
    13  H    0.288952  -0.028659   0.020325  -0.002095   0.000273  -0.000014
    14  H    0.005623  -0.033189   0.412416  -0.039597  -0.004803  -0.000297
    15  H    0.002996  -0.019226   0.407186  -0.041860   0.008080  -0.000410
    16  H    0.000202  -0.010517  -0.023384   0.433737  -0.055530  -0.003262
    17  H   -0.000081   0.008271  -0.048128   0.436416  -0.042729  -0.005469
    18  H   -0.000065  -0.001846   0.000323  -0.035969   0.402758  -0.049384
    19  H   -0.000470   0.002058  -0.009538  -0.027627   0.422938  -0.032403
    20  H   -0.000000   0.000174  -0.000369  -0.003501  -0.063900   0.446180
    21  H    0.000000  -0.000121   0.000354  -0.005968  -0.045748   0.437250
    22  H   -0.000000  -0.000001   0.000029  -0.000515   0.011657  -0.052549
    23  H    0.000000   0.000017  -0.000012  -0.000412  -0.010998  -0.038650
    24  H    0.000000   0.000002  -0.000006   0.000079   0.000253   0.005666
    25  H    0.000001  -0.000002   0.000028  -0.000044  -0.009895   0.005802
    26  H    0.000001  -0.000019  -0.000050   0.001365  -0.003085   0.000971
    27  H   -0.000003   0.000034   0.000004  -0.000046  -0.000052  -0.000157
    28  H    0.000000   0.000000  -0.000001  -0.000001   0.000098  -0.000058
    29  H   -0.000000   0.000000  -0.000000   0.000002  -0.000007  -0.000001
    30  H   -0.000000   0.000000  -0.000002   0.000011  -0.000157   0.000328
    31  H   -0.000000  -0.000000   0.000000  -0.000000  -0.000008   0.000004
    32  H   -0.000000   0.000000  -0.000000   0.000002   0.000163   0.000234
               7          8          9         10         11         12
     1  O   -0.000002   0.000002  -0.000000  -0.000000   0.000000  -0.088393
     2  C    0.000133  -0.000070   0.000138   0.000004  -0.000000   0.643510
     3  C   -0.001088   0.000291  -0.000174   0.000002   0.000003  -0.108205
     4  C    0.010351  -0.002453   0.001280  -0.000007  -0.000034   0.022809
     5  C   -0.053955   0.020630   0.003183  -0.001087  -0.000076  -0.010358
     6  C    0.261237  -0.027132  -0.004531   0.001416  -0.000909   0.000013
     7  C    5.218936   0.163622  -0.005656  -0.002447   0.000917   0.000210
     8  C    0.163622   5.405216   0.159251  -0.028140   0.018905  -0.000308
     9  C   -0.005656   0.159251   5.263423   0.256518  -0.056571   0.000013
    10  C   -0.002447  -0.028140   0.256518   5.118695   0.238605   0.000002
    11  C    0.000917   0.018905  -0.056571   0.238605   5.129632  -0.000000
    12  O    0.000210  -0.000308   0.000013   0.000002  -0.000000   7.857063
    13  H    0.000000  -0.000000   0.000000   0.000000  -0.000000   0.006105
    14  H   -0.000057   0.000044   0.000001  -0.000003   0.000001   0.002914
    15  H    0.000028  -0.000007   0.000002   0.000000  -0.000000   0.001799
    16  H   -0.000033   0.000059   0.000019  -0.000001   0.000000   0.004035
    17  H   -0.000256   0.000048  -0.000077   0.000002   0.000000   0.000508
    18  H    0.011690  -0.006940  -0.000117   0.000200  -0.000071   0.000524
    19  H   -0.015179   0.014243  -0.013290   0.000724   0.000038   0.006139
    20  H   -0.034254  -0.017104   0.001912   0.000006  -0.000020   0.000094
    21  H   -0.051490   0.011860  -0.000919  -0.000046   0.000079  -0.000007
    22  H    0.440094  -0.045334   0.005468  -0.000153   0.000030   0.000001
    23  H    0.444630  -0.069927  -0.000558   0.000652  -0.004582  -0.000002
    24  H   -0.046223   0.416618  -0.044037   0.000012  -0.007415   0.000000
    25  H   -0.047780   0.420403  -0.042752   0.004852  -0.000045   0.000201
    26  H   -0.002549  -0.073093   0.444267  -0.040221  -0.009550  -0.000012
    27  H    0.005731  -0.044866   0.428577  -0.041017   0.009803   0.000061
    28  H   -0.000830   0.013231  -0.059886   0.435943  -0.041799  -0.000000
    29  H    0.001718  -0.019311  -0.040761   0.433598  -0.052545   0.000000
    30  H   -0.000140  -0.008583   0.011603  -0.056436   0.412370   0.000000
    31  H    0.000478  -0.001398   0.010903  -0.038511   0.410927  -0.000000
    32  H   -0.011892   0.021056  -0.019446  -0.038263   0.415157   0.000000
              13         14         15         16         17         18
     1  O    0.288952   0.005623   0.002996   0.000202  -0.000081  -0.000065
     2  C   -0.028659  -0.033189  -0.019226  -0.010517   0.008271  -0.001846
     3  C    0.020325   0.412416   0.407186  -0.023384  -0.048128   0.000323
     4  C   -0.002095  -0.039597  -0.041860   0.433737   0.436416  -0.035969
     5  C    0.000273  -0.004803   0.008080  -0.055530  -0.042729   0.402758
     6  C   -0.000014  -0.000297  -0.000410  -0.003262  -0.005469  -0.049384
     7  C    0.000000  -0.000057   0.000028  -0.000033  -0.000256   0.011690
     8  C   -0.000000   0.000044  -0.000007   0.000059   0.000048  -0.006940
     9  C    0.000000   0.000001   0.000002   0.000019  -0.000077  -0.000117
    10  C    0.000000  -0.000003   0.000000  -0.000001   0.000002   0.000200
    11  C   -0.000000   0.000001  -0.000000   0.000000   0.000000  -0.000071
    12  O    0.006105   0.002914   0.001799   0.004035   0.000508   0.000524
    13  H    0.382190  -0.000845  -0.000597  -0.000023   0.000029  -0.000001
    14  H   -0.000845   0.494403  -0.015160   0.005542  -0.001713   0.000741
    15  H   -0.000597  -0.015160   0.487844  -0.002387  -0.004753   0.000238
    16  H   -0.000023   0.005542  -0.002387   0.503705  -0.022595   0.005980
    17  H    0.000029  -0.001713  -0.004753  -0.022595   0.531078  -0.003998
    18  H   -0.000001   0.000741   0.000238   0.005980  -0.003998   0.560153
    19  H   -0.000019   0.000269   0.000150  -0.002526   0.004783  -0.029216
    20  H    0.000000  -0.000052   0.000011   0.000682   0.001026   0.006498
    21  H   -0.000000   0.000129  -0.000026   0.000941   0.001947  -0.003128
    22  H   -0.000000  -0.000000  -0.000000   0.000011  -0.000057   0.000223
    23  H    0.000000  -0.000011  -0.000001  -0.000045   0.000157   0.000987
    24  H   -0.000000   0.000000   0.000000  -0.000006   0.000002  -0.000150
    25  H   -0.000000  -0.000001  -0.000000   0.000040   0.000006   0.000836
    26  H    0.000001   0.000053   0.000001  -0.000014  -0.000036  -0.002082
    27  H    0.000001  -0.000003   0.000000  -0.000001   0.000001   0.000046
    28  H    0.000000  -0.000000   0.000000  -0.000000   0.000000  -0.000027
    29  H   -0.000000   0.000000   0.000000   0.000000  -0.000000   0.000005
    30  H   -0.000000   0.000000   0.000000   0.000000  -0.000001   0.000322
    31  H    0.000000  -0.000000  -0.000000   0.000000   0.000000   0.000003
    32  H    0.000000  -0.000000   0.000000  -0.000000  -0.000000  -0.000056
              19         20         21         22         23         24
     1  O   -0.000470  -0.000000   0.000000  -0.000000   0.000000   0.000000
     2  C    0.002058   0.000174  -0.000121  -0.000001   0.000017   0.000002
     3  C   -0.009538  -0.000369   0.000354   0.000029  -0.000012  -0.000006
     4  C   -0.027627  -0.003501  -0.005968  -0.000515  -0.000412   0.000079
     5  C    0.422938  -0.063900  -0.045748   0.011657  -0.010998   0.000253
     6  C   -0.032403   0.446180   0.437250  -0.052549  -0.038650   0.005666
     7  C   -0.015179  -0.034254  -0.051490   0.440094   0.444630  -0.046223
     8  C    0.014243  -0.017104   0.011860  -0.045334  -0.069927   0.416618
     9  C   -0.013290   0.001912  -0.000919   0.005468  -0.000558  -0.044037
    10  C    0.000724   0.000006  -0.000046  -0.000153   0.000652   0.000012
    11  C    0.000038  -0.000020   0.000079   0.000030  -0.004582  -0.007415
    12  O    0.006139   0.000094  -0.000007   0.000001  -0.000002   0.000000
    13  H   -0.000019   0.000000  -0.000000  -0.000000   0.000000  -0.000000
    14  H    0.000269  -0.000052   0.000129  -0.000000  -0.000011   0.000000
    15  H    0.000150   0.000011  -0.000026  -0.000000  -0.000001   0.000000
    16  H   -0.002526   0.000682   0.000941   0.000011  -0.000045  -0.000006
    17  H    0.004783   0.001026   0.001947  -0.000057   0.000157   0.000002
    18  H   -0.029216   0.006498  -0.003128   0.000223   0.000987  -0.000150
    19  H    0.494690  -0.001407   0.005322  -0.000638   0.001825   0.000153
    20  H   -0.001407   0.525751  -0.023174  -0.003013   0.006299  -0.000150
    21  H    0.005322  -0.023174   0.546156  -0.007251  -0.002461  -0.000277
    22  H   -0.000638  -0.003013  -0.007251   0.536138  -0.022656  -0.010287
    23  H    0.001825   0.006299  -0.002461  -0.022656   0.533098   0.002675
    24  H    0.000153  -0.000150  -0.000277  -0.010287   0.002675   0.536431
    25  H    0.000056   0.002995   0.000208   0.002227   0.005825  -0.018565
    26  H   -0.007019  -0.000025  -0.000127  -0.000040   0.001067   0.006216
    27  H    0.000310  -0.000016   0.000024  -0.000371  -0.000120   0.002133
    28  H   -0.000053   0.000001  -0.000002   0.000027  -0.000161   0.000090
    29  H   -0.000052   0.000001   0.000000  -0.000015   0.000067   0.003978
    30  H   -0.000060   0.000003  -0.000024   0.000021  -0.001628   0.000902
    31  H    0.000004   0.000001   0.000000  -0.000024   0.000830  -0.000147
    32  H   -0.000022  -0.000027  -0.000025   0.000843  -0.005413  -0.001199
              25         26         27         28         29         30
     1  O    0.000001   0.000001  -0.000003   0.000000  -0.000000  -0.000000
     2  C   -0.000002  -0.000019   0.000034   0.000000   0.000000   0.000000
     3  C    0.000028  -0.000050   0.000004  -0.000001  -0.000000  -0.000002
     4  C   -0.000044   0.001365  -0.000046  -0.000001   0.000002   0.000011
     5  C   -0.009895  -0.003085  -0.000052   0.000098  -0.000007  -0.000157
     6  C    0.005802   0.000971  -0.000157  -0.000058  -0.000001   0.000328
     7  C   -0.047780  -0.002549   0.005731  -0.000830   0.001718  -0.000140
     8  C    0.420403  -0.073093  -0.044866   0.013231  -0.019311  -0.008583
     9  C   -0.042752   0.444267   0.428577  -0.059886  -0.040761   0.011603
    10  C    0.004852  -0.040221  -0.041017   0.435943   0.433598  -0.056436
    11  C   -0.000045  -0.009550   0.009803  -0.041799  -0.052545   0.412370
    12  O    0.000201  -0.000012   0.000061  -0.000000   0.000000   0.000000
    13  H   -0.000000   0.000001   0.000001   0.000000  -0.000000  -0.000000
    14  H   -0.000001   0.000053  -0.000003  -0.000000   0.000000   0.000000
    15  H   -0.000000   0.000001   0.000000   0.000000   0.000000   0.000000
    16  H    0.000040  -0.000014  -0.000001  -0.000000   0.000000   0.000000
    17  H    0.000006  -0.000036   0.000001   0.000000  -0.000000  -0.000001
    18  H    0.000836  -0.002082   0.000046  -0.000027   0.000005   0.000322
    19  H    0.000056  -0.007019   0.000310  -0.000053  -0.000052  -0.000060
    20  H    0.002995  -0.000025  -0.000016   0.000001   0.000001   0.000003
    21  H    0.000208  -0.000127   0.000024  -0.000002   0.000000  -0.000024
    22  H    0.002227  -0.000040  -0.000371   0.000027  -0.000015   0.000021
    23  H    0.005825   0.001067  -0.000120  -0.000161   0.000067  -0.001628
    24  H   -0.018565   0.006216   0.002133   0.000090   0.003978   0.000902
    25  H    0.521750   0.002679  -0.009615  -0.000283  -0.000116  -0.000135
    26  H    0.002679   0.540745  -0.022066  -0.003070   0.007232   0.002051
    27  H   -0.009615  -0.022066   0.535938  -0.007203  -0.003648   0.000035
    28  H   -0.000283  -0.003070  -0.007203   0.558984  -0.024066  -0.003377
    29  H   -0.000116   0.007232  -0.003648  -0.024066   0.554778   0.007690
    30  H   -0.000135   0.002051   0.000035  -0.003377   0.007690   0.549714
    31  H    0.000039  -0.000297  -0.000294  -0.005968  -0.004215  -0.021388
    32  H    0.000157   0.001557  -0.000711   0.006892  -0.003317  -0.034257
              31         32
     1  O   -0.000000  -0.000000
     2  C   -0.000000   0.000000
     3  C    0.000000  -0.000000
     4  C   -0.000000   0.000002
     5  C   -0.000008   0.000163
     6  C    0.000004   0.000234
     7  C    0.000478  -0.011892
     8  C   -0.001398   0.021056
     9  C    0.010903  -0.019446
    10  C   -0.038511  -0.038263
    11  C    0.410927   0.415157
    12  O   -0.000000   0.000000
    13  H    0.000000   0.000000
    14  H   -0.000000  -0.000000
    15  H   -0.000000   0.000000
    16  H    0.000000  -0.000000
    17  H    0.000000  -0.000000
    18  H    0.000003  -0.000056
    19  H    0.000004  -0.000022
    20  H    0.000001  -0.000027
    21  H    0.000000  -0.000025
    22  H   -0.000024   0.000843
    23  H    0.000830  -0.005413
    24  H   -0.000147  -0.001199
    25  H    0.000039   0.000157
    26  H   -0.000297   0.001557
    27  H   -0.000294  -0.000711
    28  H   -0.005968   0.006892
    29  H   -0.004215  -0.003317
    30  H   -0.021388  -0.034257
    31  H    0.524758  -0.021294
    32  H   -0.021294   0.541550
 Mulliken charges:
               1
     1  O   -0.408912
     2  C    0.340507
     3  C   -0.322513
     4  C   -0.259325
     5  C   -0.353850
     6  C   -0.287404
     7  C   -0.285944
     8  C   -0.320814
     9  C   -0.297785
    10  C   -0.244899
    11  C   -0.462848
    12  O   -0.338716
    13  H    0.334377
    14  H    0.173594
    15  H    0.176093
    16  H    0.165372
    17  H    0.145622
    18  H    0.141522
    19  H    0.185816
    20  H    0.155376
    21  H    0.136523
    22  H    0.146134
    23  H    0.159508
    24  H    0.153252
    25  H    0.161130
    26  H    0.155147
    27  H    0.147492
    28  H    0.131519
    29  H    0.138986
    30  H    0.141136
    31  H    0.145597
    32  H    0.148310
 Sum of Mulliken charges =  -0.00000
 Mulliken charges with hydrogens summed into heavy atoms:
               1
     1  O   -0.074535
     2  C    0.340507
     3  C    0.027175
     4  C    0.051669
     5  C   -0.026513
     6  C    0.004494
     7  C    0.019698
     8  C   -0.006432
     9  C    0.004854
    10  C    0.025606
    11  C   -0.027805
    12  O   -0.338716
 Electronic spatial extent (au):  <R**2>=           3642.0432
 Charge=              0.0000 electrons
 Dipole moment (field-independent basis, Debye):
    X=              0.4276    Y=              0.0499    Z=             -1.2895  Tot=              1.3595
 Quadrupole moment (field-independent basis, Debye-Ang):
   XX=            -74.6352   YY=            -73.7055   ZZ=            -80.6626
   XY=             -0.8952   XZ=             -2.7704   YZ=             -1.3067
 Traceless Quadrupole moment (field-independent basis, Debye-Ang):
   XX=              1.6992   YY=              2.6289   ZZ=             -4.3282
   XY=             -0.8952   XZ=             -2.7704   YZ=             -1.3067
 Octapole moment (field-independent basis, Debye-Ang**2):
  XXX=             49.5196  YYY=            -24.3103  ZZZ=             -2.8770  XYY=             26.8372
  XXY=            -11.8963  XXZ=              4.2799  XZZ=              1.5900  YZZ=              0.5296
  YYZ=              5.5956  XYZ=             -9.2067
 Hexadecapole moment (field-independent basis, Debye-Ang**3):
 XXXX=          -3528.0246 YYYY=           -835.4095 ZZZZ=           -393.3687 XXXY=            -71.6835
 XXXZ=             25.5069 YYYX=            -99.0360 YYYZ=            -16.4060 ZZZX=            -13.1815
 ZZZY=              1.8601 XXYY=           -673.9728 XXZZ=           -701.0619 YYZZ=           -212.2494
 XXYZ=            -34.4100 YYXZ=             22.7930 ZZXY=              1.7255
 N-N= 7.244285111754D+02 E-N=-2.713918254530D+03  KE= 5.405704042469D+02
 Unable to Open any file for archive entry.
 1\1\GINC-NOTCH134\SP\RM062X\def2TZVP\C10H20O2\U6032257\05-Feb-2022\0\\
 # M062X/def2tzvp int=(grid=ultrafine) nmr=giao guess=read geom=check\\
 Ac1.xyz\\0,1\O,0,5.5271971636,0.5230137211,-0.3860526722\C,0,4.9601040
 158,-0.7061993219,-0.3020659541\C,0,3.5391504044,-0.6286721828,0.21042
 89354\C,0,2.7767160238,-1.9462586729,0.0684735991\C,0,2.4681665208,-2.
 3130409384,-1.3861110289\C,0,1.7143701324,-3.6396757903,-1.5106453369\
 C,0,1.3274290501,-4.038982292,-2.9422736937\C,0,2.5273787356,-4.244309
 8088,-3.8921780479\C,0,2.9604337937,-3.0029722169,-4.7022731286\C,0,2.
 3125300843,-2.8926323601,-6.0908239749\C,0,0.7867069438,-2.7658717891,
 -6.085101205\O,0,5.5620999061,-1.7172118407,-0.5922938723\H,0,6.436791
 8455,0.3767055726,-0.6964317063\H,0,3.0319578416,0.1909063464,-0.31150
 99172\H,0,3.6017488384,-0.3182098594,1.261360573\H,0,3.3671657051,-2.7
 470544176,0.5271567167\H,0,1.8414039854,-1.8730738076,0.6364442087\H,0
 ,1.8748396294,-1.5094341259,-1.8459037789\H,0,3.4102355336,-2.36769727
 26,-1.9401018975\H,0,2.3317615991,-4.4375219919,-1.0747013218\H,0,0.80
 358079,-3.5909001688,-0.8980413437\H,0,0.7475771827,-4.968315805,-2.88
 62435519\H,0,0.6480276536,-3.2845830835,-3.3560862607\H,0,2.2987236355
 ,-5.0521905423,-4.5990507373\H,0,3.3759707411,-4.6067092802,-3.2985266
 694\H,0,2.7447773302,-2.0915476408,-4.1324840498\H,0,4.0485309452,-3.0
 224645106,-4.8378673276\H,0,2.7409905395,-2.0255869842,-6.6097001045\H
 ,0,2.5976575185,-3.7723173812,-6.6838472775\H,0,0.4635027933,-1.899840
 6907,-5.496181306\H,0,0.3993199921,-2.6401194532,-7.1013794205\H,0,0.3
 083531257,-3.6529314105,-5.6586884477\\Version=ES64L-G16RevC.01\State=
 1-A\HF=-543.5387047\RMSD=3.061e-09\Dipole=-0.267754,0.4421578,0.137422
 2\Quadrupole=-0.5456601,-0.2761577,0.8218178,2.7913587,-1.6362453,1.58
 77756\PG=C01 [X(C10H20O2)]\\@
 The archive entry for this job was punched.


 There ain't no surer way to find out whether you
 like people or hate them than to travel with them.
                                     -- Mark Twain
 Job cpu time:       0 days  0 hours 41 minutes 11.4 seconds.
 Elapsed time:       0 days  0 hours  1 minutes 12.4 seconds.
 File lengths (MBytes):  RWF=    140 Int=      0 D2E=      0 Chk=     24 Scr=      1
 Normal termination of Gaussian 16 at Sat Feb  5 09:03:16 2022.
