 Entering Gaussian System, Link 0=/uufs/chpc.utah.edu/sys/installdir/gaussian16/C01/AVX2/g16/g16
 Input=Ac1_clust-8.com
 Output=Ac1_clust-8.log
 Initial command:
 /uufs/chpc.utah.edu/sys/installdir/gaussian16/C01/AVX2/g16/l1.exe "/scratch/general/lustre/u6032257/3867916/notchpeak.peaks/Gau-315310.inp" -scrdir="/scratch/general/lustre/u6032257/3867916/notchpeak.peaks/"
 Entering Link 1 = /uufs/chpc.utah.edu/sys/installdir/gaussian16/C01/AVX2/g16/l1.exe PID=    315312.
  
 Copyright (c) 1988-2019, Gaussian, Inc.  All Rights Reserved.
  
 This is part of the Gaussian(R) 16 program.  It is based on
 the Gaussian(R) 09 system (copyright 2009, Gaussian, Inc.),
 the Gaussian(R) 03 system (copyright 2003, Gaussian, Inc.),
 the Gaussian(R) 98 system (copyright 1998, Gaussian, Inc.),
 the Gaussian(R) 94 system (copyright 1995, Gaussian, Inc.),
 the Gaussian 92(TM) system (copyright 1992, Gaussian, Inc.),
 the Gaussian 90(TM) system (copyright 1990, Gaussian, Inc.),
 the Gaussian 88(TM) system (copyright 1988, Gaussian, Inc.),
 the Gaussian 86(TM) system (copyright 1986, Carnegie Mellon
 University), and the Gaussian 82(TM) system (copyright 1983,
 Carnegie Mellon University). Gaussian is a federally registered
 trademark of Gaussian, Inc.
  
 This software contains proprietary and confidential information,
 including trade secrets, belonging to Gaussian, Inc.
  
 This software is provided under written license and may be
 used, copied, transmitted, or stored only in accord with that
 written license.
  
 The following legend is applicable only to US Government
 contracts under FAR:
  
                    RESTRICTED RIGHTS LEGEND
  
 Use, reproduction and disclosure by the US Government is
 subject to restrictions as set forth in subparagraphs (a)
 and (c) of the Commercial Computer Software - Restricted
 Rights clause in FAR 52.227-19.
  
 Gaussian, Inc.
 340 Quinnipiac St., Bldg. 40, Wallingford CT 06492
  
  
 ---------------------------------------------------------------
 Warning -- This program may not be used in any manner that
 competes with the business of Gaussian, Inc. or will provide
 assistance to any competitor of Gaussian, Inc.  The licensee
 of this program is prohibited from giving any competitor of
 Gaussian, Inc. access to this program.  By using this program,
 the user acknowledges that Gaussian, Inc. is engaged in the
 business of creating and licensing software in the field of
 computational chemistry and represents and warrants to the
 licensee that it is not a competitor of Gaussian, Inc. and that
 it will not use this program in any manner prohibited above.
 ---------------------------------------------------------------
  

 Cite this work as:
 Gaussian 16, Revision C.01,
 M. J. Frisch, G. W. Trucks, H. B. Schlegel, G. E. Scuseria, 
 M. A. Robb, J. R. Cheeseman, G. Scalmani, V. Barone, 
 G. A. Petersson, H. Nakatsuji, X. Li, M. Caricato, A. V. Marenich, 
 J. Bloino, B. G. Janesko, R. Gomperts, B. Mennucci, H. P. Hratchian, 
 J. V. Ortiz, A. F. Izmaylov, J. L. Sonnenberg, D. Williams-Young, 
 F. Ding, F. Lipparini, F. Egidi, J. Goings, B. Peng, A. Petrone, 
 T. Henderson, D. Ranasinghe, V. G. Zakrzewski, J. Gao, N. Rega, 
 G. Zheng, W. Liang, M. Hada, M. Ehara, K. Toyota, R. Fukuda, 
 J. Hasegawa, M. Ishida, T. Nakajima, Y. Honda, O. Kitao, H. Nakai, 
 T. Vreven, K. Throssell, J. A. Montgomery, Jr., J. E. Peralta, 
 F. Ogliaro, M. J. Bearpark, J. J. Heyd, E. N. Brothers, K. N. Kudin, 
 V. N. Staroverov, T. A. Keith, R. Kobayashi, J. Normand, 
 K. Raghavachari, A. P. Rendell, J. C. Burant, S. S. Iyengar, 
 J. Tomasi, M. Cossi, J. M. Millam, M. Klene, C. Adamo, R. Cammi, 
 J. W. Ochterski, R. L. Martin, K. Morokuma, O. Farkas, 
 J. B. Foresman, and D. J. Fox, Gaussian, Inc., Wallingford CT, 2019.
 
 ******************************************
 Gaussian 16:  ES64L-G16RevC.01  3-Jul-2019
                 5-Feb-2022 
 ******************************************
 %NProcShared=52
 Will use up to   52 processors via shared memory.
 %mem=16GB
 %chk=Ac1_clust-8.chk
 ----------------------------------------------------------------------
 # B3LYP/6-31G(d,p) empiricaldispersion=GD3BJ int=(grid=ultrafine) opt 
 freq=noraman
 ----------------------------------------------------------------------
 1/18=20,19=15,26=4,38=1/1,3;
 2/9=110,12=2,17=6,18=5,40=1/2;
 3/5=1,6=6,7=101,11=2,25=1,30=1,71=1,74=-5,75=-5,124=41/1,2,3;
 4//1;
 5/5=2,38=5/2;
 6/7=2,8=2,9=2,10=2,28=1/1;
 7//1,2,3,16;
 1/18=20,19=15,26=4/3(2);
 2/9=110/2;
 99//99;
 2/9=110/2;
 3/5=1,6=6,7=101,11=2,25=1,30=1,71=1,74=-5,75=-5,124=41/1,2,3;
 4/5=5,16=3,69=1/1;
 5/5=2,38=5/2;
 7//1,2,3,16;
 1/18=20,19=15,26=4/3(-5);
 2/9=110/2;
 6/7=2,8=2,9=2,10=2,19=2,28=1/1;
 99/9=1/99;
 -------
 Ac1.xyz
 -------
 Symbolic Z-matrix:
 Charge =  0 Multiplicity = 1
 O                     4.8593   -0.1773   -0.41 
 C                     5.0827   -1.2569   -1.1906 
 C                     4.8221   -2.5765   -0.4691 
 C                     3.4305   -2.7233    0.203 
 C                     2.2559   -3.0228   -0.7547 
 C                     1.755    -1.8128   -1.5709 
 C                     0.517    -2.1119   -2.4395 
 C                     0.6998   -3.1686   -3.5535 
 C                     1.7291   -2.8092   -4.6491 
 C                     3.1493   -3.3506   -4.3933 
 C                     4.1376   -2.9669   -5.5028 
 O                     5.4802   -1.1781   -2.3436 
 H                     5.0642    0.566    -0.9776 
 H                     5.5997   -2.6458    0.2907 
 H                     5.0041   -3.3971   -1.163 
 H                     3.4955   -3.5548    0.9073 
 H                     3.201    -1.8537    0.8229 
 H                     2.5343   -3.8403   -1.4208 
 H                     1.421    -3.4031   -0.1635 
 H                     1.5078   -1.003    -0.8826 
 H                     2.5427   -1.4152   -2.208 
 H                    -0.3007   -2.4264   -1.7887 
 H                     0.1777   -1.1799   -2.8949 
 H                    -0.2708   -3.2992   -4.0351 
 H                     0.9267   -4.1447   -3.1226 
 H                     1.3796   -3.217    -5.5994 
 H                     1.759    -1.7276   -4.7926 
 H                     3.5372   -2.9829   -3.4449 
 H                     3.1164   -4.4373   -4.3014 
 H                     4.2341   -1.8837   -5.5871 
 H                     5.1306   -3.3665   -5.2941 
 H                     3.8212   -3.3534   -6.4721 
 

 GradGradGradGradGradGradGradGradGradGradGradGradGradGradGradGradGradGrad
 Berny optimization.
 Initialization pass.
                           ----------------------------
                           !    Initial Parameters    !
                           ! (Angstroms and Degrees)  !
 --------------------------                            --------------------------
 ! Name  Definition              Value          Derivative Info.                !
 --------------------------------------------------------------------------------
 ! R1    R(1,2)                  1.3508         estimate D2E/DX2                !
 ! R2    R(1,13)                 0.9574         estimate D2E/DX2                !
 ! R3    R(2,3)                  1.5264         estimate D2E/DX2                !
 ! R4    R(2,12)                 1.2221         estimate D2E/DX2                !
 ! R5    R(3,4)                  1.5524         estimate D2E/DX2                !
 ! R6    R(3,14)                 1.0894         estimate D2E/DX2                !
 ! R7    R(3,15)                 1.09           estimate D2E/DX2                !
 ! R8    R(4,5)                  1.5449         estimate D2E/DX2                !
 ! R9    R(4,16)                 1.0916         estimate D2E/DX2                !
 ! R10   R(4,17)                 1.0923         estimate D2E/DX2                !
 ! R11   R(5,6)                  1.5431         estimate D2E/DX2                !
 ! R12   R(5,18)                 1.0906         estimate D2E/DX2                !
 ! R13   R(5,19)                 1.0914         estimate D2E/DX2                !
 ! R14   R(6,7)                  1.5416         estimate D2E/DX2                !
 ! R15   R(6,20)                 1.0912         estimate D2E/DX2                !
 ! R16   R(6,21)                 1.0883         estimate D2E/DX2                !
 ! R17   R(7,8)                  1.5463         estimate D2E/DX2                !
 ! R18   R(7,22)                 1.0914         estimate D2E/DX2                !
 ! R19   R(7,23)                 1.0914         estimate D2E/DX2                !
 ! R20   R(8,9)                  1.5456         estimate D2E/DX2                !
 ! R21   R(8,24)                 1.0914         estimate D2E/DX2                !
 ! R22   R(8,25)                 1.0908         estimate D2E/DX2                !
 ! R23   R(9,10)                 1.5413         estimate D2E/DX2                !
 ! R24   R(9,26)                 1.0916         estimate D2E/DX2                !
 ! R25   R(9,27)                 1.0915         estimate D2E/DX2                !
 ! R26   R(10,11)                1.5346         estimate D2E/DX2                !
 ! R27   R(10,28)                1.0886         estimate D2E/DX2                !
 ! R28   R(10,29)                1.0911         estimate D2E/DX2                !
 ! R29   R(11,30)                1.0908         estimate D2E/DX2                !
 ! R30   R(11,31)                1.0905         estimate D2E/DX2                !
 ! R31   R(11,32)                1.0904         estimate D2E/DX2                !
 ! A1    A(2,1,13)             104.0338         estimate D2E/DX2                !
 ! A2    A(1,2,3)              112.9268         estimate D2E/DX2                !
 ! A3    A(1,2,12)             123.1908         estimate D2E/DX2                !
 ! A4    A(3,2,12)             123.8638         estimate D2E/DX2                !
 ! A5    A(2,3,4)              116.0693         estimate D2E/DX2                !
 ! A6    A(2,3,14)             105.2368         estimate D2E/DX2                !
 ! A7    A(2,3,15)             108.7505         estimate D2E/DX2                !
 ! A8    A(4,3,14)             109.3838         estimate D2E/DX2                !
 ! A9    A(4,3,15)             110.7397         estimate D2E/DX2                !
 ! A10   A(14,3,15)            106.0777         estimate D2E/DX2                !
 ! A11   A(3,4,5)              115.5644         estimate D2E/DX2                !
 ! A12   A(3,4,16)             107.3368         estimate D2E/DX2                !
 ! A13   A(3,4,17)             111.0245         estimate D2E/DX2                !
 ! A14   A(5,4,16)             107.3116         estimate D2E/DX2                !
 ! A15   A(5,4,17)             110.2678         estimate D2E/DX2                !
 ! A16   A(16,4,17)            104.641          estimate D2E/DX2                !
 ! A17   A(4,5,6)              115.0044         estimate D2E/DX2                !
 ! A18   A(4,5,18)             109.2596         estimate D2E/DX2                !
 ! A19   A(4,5,19)             108.2628         estimate D2E/DX2                !
 ! A20   A(6,5,18)             110.3388         estimate D2E/DX2                !
 ! A21   A(6,5,19)             108.1452         estimate D2E/DX2                !
 ! A22   A(18,5,19)            105.3618         estimate D2E/DX2                !
 ! A23   A(5,6,7)              113.9889         estimate D2E/DX2                !
 ! A24   A(5,6,20)             108.7735         estimate D2E/DX2                !
 ! A25   A(5,6,21)             111.1716         estimate D2E/DX2                !
 ! A26   A(7,6,20)             108.51           estimate D2E/DX2                !
 ! A27   A(7,6,21)             108.8007         estimate D2E/DX2                !
 ! A28   A(20,6,21)            105.1949         estimate D2E/DX2                !
 ! A29   A(6,7,8)              116.3318         estimate D2E/DX2                !
 ! A30   A(6,7,22)             108.7602         estimate D2E/DX2                !
 ! A31   A(6,7,23)             108.6073         estimate D2E/DX2                !
 ! A32   A(8,7,22)             108.7386         estimate D2E/DX2                !
 ! A33   A(8,7,23)             108.6456         estimate D2E/DX2                !
 ! A34   A(22,7,23)            105.1874         estimate D2E/DX2                !
 ! A35   A(7,8,9)              115.4988         estimate D2E/DX2                !
 ! A36   A(7,8,24)             107.131          estimate D2E/DX2                !
 ! A37   A(7,8,25)             110.5792         estimate D2E/DX2                !
 ! A38   A(9,8,24)             107.8956         estimate D2E/DX2                !
 ! A39   A(9,8,25)             110.4599         estimate D2E/DX2                !
 ! A40   A(24,8,25)            104.6092         estimate D2E/DX2                !
 ! A41   A(8,9,10)             114.4758         estimate D2E/DX2                !
 ! A42   A(8,9,26)             108.4822         estimate D2E/DX2                !
 ! A43   A(8,9,27)             109.99           estimate D2E/DX2                !
 ! A44   A(10,9,26)            107.9561         estimate D2E/DX2                !
 ! A45   A(10,9,27)            110.1613         estimate D2E/DX2                !
 ! A46   A(26,9,27)            105.3385         estimate D2E/DX2                !
 ! A47   A(9,10,11)            112.6813         estimate D2E/DX2                !
 ! A48   A(9,10,28)            110.7487         estimate D2E/DX2                !
 ! A49   A(9,10,29)            109.6367         estimate D2E/DX2                !
 ! A50   A(11,10,28)           108.4172         estimate D2E/DX2                !
 ! A51   A(11,10,29)           109.2293         estimate D2E/DX2                !
 ! A52   A(28,10,29)           105.8889         estimate D2E/DX2                !
 ! A53   A(10,11,30)           111.1713         estimate D2E/DX2                !
 ! A54   A(10,11,31)           110.8813         estimate D2E/DX2                !
 ! A55   A(10,11,32)           111.5425         estimate D2E/DX2                !
 ! A56   A(30,11,31)           107.3446         estimate D2E/DX2                !
 ! A57   A(30,11,32)           107.9968         estimate D2E/DX2                !
 ! A58   A(31,11,32)           107.7247         estimate D2E/DX2                !
 ! D1    D(13,1,2,3)           179.6021         estimate D2E/DX2                !
 ! D2    D(13,1,2,12)            1.1204         estimate D2E/DX2                !
 ! D3    D(1,2,3,4)             53.3313         estimate D2E/DX2                !
 ! D4    D(1,2,3,14)           -67.7467         estimate D2E/DX2                !
 ! D5    D(1,2,3,15)           178.951          estimate D2E/DX2                !
 ! D6    D(12,2,3,4)          -128.1988         estimate D2E/DX2                !
 ! D7    D(12,2,3,14)          110.7231         estimate D2E/DX2                !
 ! D8    D(12,2,3,15)           -2.5791         estimate D2E/DX2                !
 ! D9    D(2,3,4,5)             76.7845         estimate D2E/DX2                !
 ! D10   D(2,3,4,16)          -163.5531         estimate D2E/DX2                !
 ! D11   D(2,3,4,17)           -49.7459         estimate D2E/DX2                !
 ! D12   D(14,3,4,5)          -164.3807         estimate D2E/DX2                !
 ! D13   D(14,3,4,16)          -44.7183         estimate D2E/DX2                !
 ! D14   D(14,3,4,17)           69.0889         estimate D2E/DX2                !
 ! D15   D(15,3,4,5)           -47.8196         estimate D2E/DX2                !
 ! D16   D(15,3,4,16)           71.8428         estimate D2E/DX2                !
 ! D17   D(15,3,4,17)         -174.35           estimate D2E/DX2                !
 ! D18   D(3,4,5,6)            -76.2322         estimate D2E/DX2                !
 ! D19   D(3,4,5,18)            48.4632         estimate D2E/DX2                !
 ! D20   D(3,4,5,19)           162.7186         estimate D2E/DX2                !
 ! D21   D(16,4,5,6)           164.0916         estimate D2E/DX2                !
 ! D22   D(16,4,5,18)          -71.213          estimate D2E/DX2                !
 ! D23   D(16,4,5,19)           43.0425         estimate D2E/DX2                !
 ! D24   D(17,4,5,6)            50.6803         estimate D2E/DX2                !
 ! D25   D(17,4,5,18)          175.3758         estimate D2E/DX2                !
 ! D26   D(17,4,5,19)          -70.3688         estimate D2E/DX2                !
 ! D27   D(4,5,6,7)           -175.681          estimate D2E/DX2                !
 ! D28   D(4,5,6,20)           -54.4646         estimate D2E/DX2                !
 ! D29   D(4,5,6,21)            60.9089         estimate D2E/DX2                !
 ! D30   D(18,5,6,7)            60.1908         estimate D2E/DX2                !
 ! D31   D(18,5,6,20)         -178.5929         estimate D2E/DX2                !
 ! D32   D(18,5,6,21)          -63.2193         estimate D2E/DX2                !
 ! D33   D(19,5,6,7)           -54.5677         estimate D2E/DX2                !
 ! D34   D(19,5,6,20)           66.6487         estimate D2E/DX2                !
 ! D35   D(19,5,6,21)         -177.9778         estimate D2E/DX2                !
 ! D36   D(5,6,7,8)            -62.8611         estimate D2E/DX2                !
 ! D37   D(5,6,7,22)            60.2768         estimate D2E/DX2                !
 ! D38   D(5,6,7,23)           174.2487         estimate D2E/DX2                !
 ! D39   D(20,6,7,8)           175.7763         estimate D2E/DX2                !
 ! D40   D(20,6,7,22)          -61.0858         estimate D2E/DX2                !
 ! D41   D(20,6,7,23)           52.8861         estimate D2E/DX2                !
 ! D42   D(21,6,7,8)            61.8252         estimate D2E/DX2                !
 ! D43   D(21,6,7,22)         -175.0369         estimate D2E/DX2                !
 ! D44   D(21,6,7,23)          -61.065          estimate D2E/DX2                !
 ! D45   D(6,7,8,9)            -62.6641         estimate D2E/DX2                !
 ! D46   D(6,7,8,24)           177.1199         estimate D2E/DX2                !
 ! D47   D(6,7,8,25)            63.6883         estimate D2E/DX2                !
 ! D48   D(22,7,8,9)           174.1869         estimate D2E/DX2                !
 ! D49   D(22,7,8,24)           53.9709         estimate D2E/DX2                !
 ! D50   D(22,7,8,25)          -59.4607         estimate D2E/DX2                !
 ! D51   D(23,7,8,9)            60.2062         estimate D2E/DX2                !
 ! D52   D(23,7,8,24)          -60.0098         estimate D2E/DX2                !
 ! D53   D(23,7,8,25)         -173.4414         estimate D2E/DX2                !
 ! D54   D(7,8,9,10)            93.5632         estimate D2E/DX2                !
 ! D55   D(7,8,9,26)          -145.8193         estimate D2E/DX2                !
 ! D56   D(7,8,9,27)           -31.0872         estimate D2E/DX2                !
 ! D57   D(24,8,9,10)         -146.6385         estimate D2E/DX2                !
 ! D58   D(24,8,9,26)          -26.0211         estimate D2E/DX2                !
 ! D59   D(24,8,9,27)           88.711          estimate D2E/DX2                !
 ! D60   D(25,8,9,10)          -32.8497         estimate D2E/DX2                !
 ! D61   D(25,8,9,26)           87.7677         estimate D2E/DX2                !
 ! D62   D(25,8,9,27)         -157.5002         estimate D2E/DX2                !
 ! D63   D(8,9,10,11)         -179.8354         estimate D2E/DX2                !
 ! D64   D(8,9,10,28)          -58.2015         estimate D2E/DX2                !
 ! D65   D(8,9,10,29)           58.2864         estimate D2E/DX2                !
 ! D66   D(26,9,10,11)          59.2562         estimate D2E/DX2                !
 ! D67   D(26,9,10,28)        -179.1098         estimate D2E/DX2                !
 ! D68   D(26,9,10,29)         -62.6219         estimate D2E/DX2                !
 ! D69   D(27,9,10,11)         -55.2758         estimate D2E/DX2                !
 ! D70   D(27,9,10,28)          66.3582         estimate D2E/DX2                !
 ! D71   D(27,9,10,29)        -177.1539         estimate D2E/DX2                !
 ! D72   D(9,10,11,30)          60.8261         estimate D2E/DX2                !
 ! D73   D(9,10,11,31)        -179.8385         estimate D2E/DX2                !
 ! D74   D(9,10,11,32)         -59.7779         estimate D2E/DX2                !
 ! D75   D(28,10,11,30)        -62.1204         estimate D2E/DX2                !
 ! D76   D(28,10,11,31)         57.2149         estimate D2E/DX2                !
 ! D77   D(28,10,11,32)        177.2755         estimate D2E/DX2                !
 ! D78   D(29,10,11,30)       -177.0657         estimate D2E/DX2                !
 ! D79   D(29,10,11,31)        -57.7304         estimate D2E/DX2                !
 ! D80   D(29,10,11,32)         62.3303         estimate D2E/DX2                !
 --------------------------------------------------------------------------------
 Trust Radius=3.00D-01 FncErr=1.00D-07 GrdErr=1.00D-06 EigMax=2.50D+02 EigMin=1.00D-04
 Number of steps in this run=    179 maximum allowed number of steps=    192.
 GradGradGradGradGradGradGradGradGradGradGradGradGradGradGradGradGradGrad

                          Input orientation:                          
 ---------------------------------------------------------------------
 Center     Atomic      Atomic             Coordinates (Angstroms)
 Number     Number       Type             X           Y           Z
 ---------------------------------------------------------------------
      1          8           0        4.859300   -0.177300   -0.410000
      2          6           0        5.082700   -1.256900   -1.190600
      3          6           0        4.822100   -2.576500   -0.469100
      4          6           0        3.430500   -2.723300    0.203000
      5          6           0        2.255900   -3.022800   -0.754700
      6          6           0        1.755000   -1.812800   -1.570900
      7          6           0        0.517000   -2.111900   -2.439500
      8          6           0        0.699800   -3.168600   -3.553500
      9          6           0        1.729100   -2.809200   -4.649100
     10          6           0        3.149300   -3.350600   -4.393300
     11          6           0        4.137600   -2.966900   -5.502800
     12          8           0        5.480200   -1.178100   -2.343600
     13          1           0        5.064200    0.566000   -0.977600
     14          1           0        5.599700   -2.645800    0.290700
     15          1           0        5.004100   -3.397100   -1.163000
     16          1           0        3.495500   -3.554800    0.907300
     17          1           0        3.201000   -1.853700    0.822900
     18          1           0        2.534300   -3.840300   -1.420800
     19          1           0        1.421000   -3.403100   -0.163500
     20          1           0        1.507800   -1.003000   -0.882600
     21          1           0        2.542700   -1.415200   -2.208000
     22          1           0       -0.300700   -2.426400   -1.788700
     23          1           0        0.177700   -1.179900   -2.894900
     24          1           0       -0.270800   -3.299200   -4.035100
     25          1           0        0.926700   -4.144700   -3.122600
     26          1           0        1.379600   -3.217000   -5.599400
     27          1           0        1.759000   -1.727600   -4.792600
     28          1           0        3.537200   -2.982900   -3.444900
     29          1           0        3.116400   -4.437300   -4.301400
     30          1           0        4.234100   -1.883700   -5.587100
     31          1           0        5.130600   -3.366500   -5.294100
     32          1           0        3.821200   -3.353400   -6.472100
 ---------------------------------------------------------------------
                    Distance matrix (angstroms):
                    1          2          3          4          5
     1  O    0.000000
     2  C    1.350844   0.000000
     3  C    2.400216   1.526374   0.000000
     4  C    2.983179   2.611937   1.552359   0.000000
     5  C    3.872129   3.361430   2.620331   1.544854   0.000000
     6  C    3.695839   3.395179   3.347283   2.604425   1.543108
     7  C    5.168860   4.810030   4.757333   3.980590   2.586902
     8  C    6.010899   5.333639   5.182419   4.665437   3.205618
     9  C    5.890248   5.061372   5.205113   5.142472   3.935670
    10  C    5.372207   4.287062   4.335532   4.647424   3.760987
    11  C    5.851438   4.734172   5.095006   5.754606   5.107678
    12  O    2.264051   1.222139   2.429479   3.615810   4.040251
    13  H    0.957418   1.835395   3.192568   3.857757   4.562425
    14  H    2.670705   2.095372   1.089385   2.172355   3.523633
    15  H    3.309847   2.141821   1.089957   2.190018   2.803464
    16  H    3.873337   3.492955   2.147421   1.091630   2.140532
    17  H    2.660887   2.819778   2.195374   1.092314   2.179181
    18  H    4.454763   3.636109   2.781538   2.165084   1.090643
    19  H    4.721065   4.366824   3.513423   2.152798   1.091423
    20  H    3.483918   3.597115   3.692082   2.799060   2.157685
    21  H    3.183055   2.740759   3.093227   2.883095   2.186027
    22  H    5.795245   5.541340   5.292160   4.239914   2.821534
    23  H    5.394193   5.193226   5.422679   4.749713   3.506516
    24  H    7.014666   6.397041   6.259096   5.656216   4.149896
    25  H    6.209976   5.417042   4.967339   4.398751   2.938092
    26  H    6.948234   6.082143   6.211363   6.173960   4.927143
    27  H    5.587707   4.923712   5.366178   5.361096   4.269554
    28  H    4.339350   3.232571   3.266728   3.658682   2.980016
    29  H    6.027296   4.863986   4.588955   4.829707   3.914122
    30  H    5.486806   4.521306   5.198042   5.905587   5.344428
    31  H    5.839438   4.614263   4.898969   5.789832   5.384067
    32  H    6.922017   5.820733   6.135257   6.716147   5.937013
                    6          7          8          9         10
     6  C    0.000000
     7  C    1.541613   0.000000
     8  C    2.623422   1.546295   0.000000
     9  C    3.235552   2.614908   1.545628   0.000000
    10  C    3.503547   3.504385   2.595850   1.541271   0.000000
    11  C    4.740102   4.819085   3.957136   2.560185   1.534586
    12  O    3.857075   5.051191   5.317722   4.695377   3.788683
    13  H    4.118434   5.475886   6.295275   5.999565   5.538376
    14  H    4.352144   5.794211   6.249817   6.277728   5.333016
    15  H    3.637725   4.838931   4.928864   4.819144   3.725223
    16  H    3.493620   4.706856   5.278620   5.877897   5.315817
    17  H    2.796939   4.232467   5.209399   5.746499   5.426981
    18  H    2.177291   2.845104   2.892228   3.483308   3.074701
    19  H    2.149741   2.768499   3.473790   4.535223   4.569572
    20  H    1.091165   2.152970   3.532194   4.183044   4.531088
    21  H    1.088326   2.154633   2.877683   2.926457   2.981488
    22  H    2.156350   1.091368   2.160181   3.528245   4.420474
    23  H    2.154394   1.091393   2.158997   2.852837   3.973355
    24  H    3.519308   2.139217   1.091357   2.148650   3.439191
    25  H    2.920892   2.183290   1.090839   2.181194   2.680527
    26  H    4.282700   3.456920   2.156427   1.091568   2.145778
    27  H    3.222829   2.688369   2.175719   1.091487   2.174052
    28  H    2.838529   3.300163   2.845543   2.179334   1.088638
    29  H    4.024555   3.953611   2.830002   2.167073   1.091075
    30  H    4.720257   4.876094   4.275251   2.830445   2.180308
    31  H    5.260312   5.568489   4.764540   3.506681   2.176521
    32  H    5.537544   5.359190   4.277326   2.827784   2.184689
                   11         12         13         14         15
    11  C    0.000000
    12  O    3.870778   0.000000
    13  H    5.815273   2.254084   0.000000
    14  H    5.983768   3.017940   3.494425   0.000000
    15  H    4.446320   2.558212   3.967889   1.741389   0.000000
    16  H    6.468949   4.489553   4.795275   2.373633   2.566493
    17  H    6.490833   3.959534   3.545175   2.581554   3.094681
    18  H    4.471702   4.076419   5.100225   3.708469   2.522459
    19  H    6.006522   5.116695   5.448800   4.270988   3.719898
    20  H    5.667363   4.236171   3.888286   4.562792   4.246699
    21  H    3.975825   2.950171   3.434676   4.135593   3.328429
    22  H    5.812503   5.940115   6.196329   6.259933   5.429057
    23  H    5.067082   5.331083   5.531915   6.457166   5.586554
    24  H    4.658171   6.358792   7.262940   7.321356   6.006922
    25  H    4.166827   5.490166   6.626509   5.977813   4.585208
    26  H    2.771001   5.618920   7.017721   7.268342   5.731586
    27  H    2.774525   4.488528   5.544292   6.436925   5.147028
    28  H    2.143756   2.871483   4.584102   4.280450   2.744162
    29  H    2.155989   4.476932   6.314632   5.519387   3.807228
    30  H    1.090752   3.545551   5.285602   6.082285   4.738770
    31  H    1.090543   3.690090   5.839618   5.650615   4.133150
    32  H    1.090428   4.952648   6.862673   7.028458   5.439458
                   16         17         18         19         20
    16  H    0.000000
    17  H    1.728466   0.000000
    18  H    2.534850   3.070058   0.000000
    19  H    2.339482   2.557738   1.735334   0.000000
    20  H    3.696806   2.549382   3.064903   2.507014   0.000000
    21  H    3.897539   3.132411   2.549679   3.064300   1.731361
    22  H    4.790912   4.405717   3.189308   2.561146   2.473410
    23  H    5.577156   4.839048   3.847631   3.734831   2.418638
    24  H    6.219137   6.143536   3.872459   4.226378   4.286515
    25  H    4.815268   5.097852   2.360754   3.090401   3.901994
    26  H    6.850422   6.813371   4.379787   5.439242   5.212143
    27  H    6.232411   5.799061   4.053841   4.934583   3.984501
    28  H    4.389812   4.427442   2.416180   3.927144   3.821498
    29  H    5.296516   5.739390   2.998851   4.589789   5.105899
    30  H    6.746506   6.492788   4.906695   6.295836   5.508236
    31  H    6.416102   6.590114   4.686973   6.331313   6.178361
    32  H    7.389329   7.473337   5.235343   6.749953   6.489893
                   21         22         23         24         25
    21  H    0.000000
    22  H    3.046845   0.000000
    23  H    2.473949   1.733871   0.000000
    24  H    3.847536   2.410184   2.447987   0.000000
    25  H    3.301230   2.497670   3.066413   1.726712   0.000000
    26  H    4.012590   4.239091   3.592862   2.275437   2.683334
    27  H    2.718812   3.708652   2.530168   2.676531   3.053522
    28  H    2.230837   4.216891   3.852214   3.866425   2.875477
    29  H    3.720826   4.694034   4.607044   3.583198   2.503991
    30  H    3.807708   5.940267   4.919111   4.970560   4.703698
    31  H    4.475356   6.532277   5.921875   5.546596   4.795183
    32  H    4.855279   6.307426   5.549374   4.763021   4.497047
                   26         27         28         29         30
    26  H    0.000000
    27  H    1.735852   0.000000
    28  H    3.058089   2.560092   0.000000
    29  H    2.488054   3.070226   1.739524   0.000000
    30  H    3.150557   2.604173   2.506578   3.069715   0.000000
    31  H    3.766372   3.782219   2.470954   2.487784   1.757344
    32  H    2.596463   3.117148   3.062983   2.526563   1.764576
                   31         32
    31  H    0.000000
    32  H    1.761359   0.000000
 Stoichiometry    C10H20O2
 Framework group  C1[X(C10H20O2)]
 Deg. of freedom    90
 Full point group                 C1      NOp   1
 Largest Abelian subgroup         C1      NOp   1
 Largest concise Abelian subgroup C1      NOp   1
                         Standard orientation:                         
 ---------------------------------------------------------------------
 Center     Atomic      Atomic             Coordinates (Angstroms)
 Number     Number       Type             X           Y           Z
 ---------------------------------------------------------------------
      1          8           0       -3.055669    0.359474   -1.184369
      2          6           0       -2.252532    0.924797   -0.256921
      3          6           0       -2.248598    0.166651    1.067850
      4          6           0       -1.928262   -1.350033    0.984938
      5          6           0       -0.438627   -1.706759    0.784171
      6          6           0        0.095084   -1.496508   -0.648355
      7          6           0        1.552449   -1.957716   -0.848220
      8          6           0        2.626222   -1.217225   -0.017731
      9          6           0        2.769048    0.293654   -0.310664
     10          6           0        1.936140    1.204596    0.612356
     11          6           0        2.105312    2.693908    0.283291
     12          8           0       -1.621240    1.952264   -0.455427
     13          1           0       -2.967663    0.931236   -1.947252
     14          1           0       -3.248230    0.303122    1.478789
     15          1           0       -1.568215    0.667775    1.756297
     16          1           0       -2.246388   -1.801639    1.926482
     17          1           0       -2.540330   -1.838792    0.223598
     18          1           0        0.164942   -1.146900    1.499548
     19          1           0       -0.299803   -2.756694    1.047929
     20          1           0       -0.540744   -2.046205   -1.344198
     21          1           0        0.012727   -0.453901   -0.949420
     22          1           0        1.615677   -3.025343   -0.630830
     23          1           0        1.804807   -1.865891   -1.906058
     24          1           0        3.584400   -1.692805   -0.234014
     25          1           0        2.469883   -1.385776    1.048608
     26          1           0        3.818982    0.570222   -0.198102
     27          1           0        2.527749    0.495538   -1.355826
     28          1           0        0.878283    0.955959    0.547157
     29          1           0        2.220133    1.031676    1.651534
     30          1           0        1.780558    2.911723   -0.734959
     31          1           0        1.506646    3.310721    0.954429
     32          1           0        3.144430    3.009889    0.380366
 ---------------------------------------------------------------------
 Rotational constants (GHZ):           0.9975773           0.5788031           0.4359171
 Standard basis: 6-31G(d,p) (6D, 7F)
 There are   280 symmetry adapted cartesian basis functions of A   symmetry.
 There are   280 symmetry adapted basis functions of A   symmetry.
   280 basis functions,   476 primitive gaussians,   280 cartesian basis functions
    48 alpha electrons       48 beta electrons
       nuclear repulsion energy       755.6746241079 Hartrees.
 NAtoms=   32 NActive=   32 NUniq=   32 SFac= 1.00D+00 NAtFMM=   60 NAOKFM=F Big=F
 Integral buffers will be    131072 words long.
 Raffenetti 2 integral format.
 Two-electron integral symmetry is turned on.
 Nuclear repulsion after empirical dispersion term =      755.6234138467 Hartrees.
 One-electron integrals computed using PRISM.
 NBasis=   280 RedAO= T EigKep=  3.09D-03  NBF=   280
 NBsUse=   280 1.00D-06 EigRej= -1.00D+00 NBFU=   280
 ExpMin= 1.61D-01 ExpMax= 5.48D+03 ExpMxC= 8.25D+02 IAcc=3 IRadAn=         5 AccDes= 0.00D+00
 Harris functional with IExCor=  402 and IRadAn=       5 diagonalized for initial guess.
 HarFok:  IExCor=  402 AccDes= 0.00D+00 IRadAn=         5 IDoV= 1 UseB2=F ITyADJ=14
 ICtDFT=  3500011 ScaDFX=  1.000000  1.000000  1.000000  1.000000
 FoFCou: FMM=F IPFlag=           0 FMFlag=      100000 FMFlg1=           0
         NFxFlg=           0 DoJE=T BraDBF=F KetDBF=T FulRan=T
         wScrn=  0.000000 ICntrl=       500 IOpCl=  0 I1Cent=   200000004 NGrid=           0
         NMat0=    1 NMatS0=      1 NMatT0=    0 NMatD0=    1 NMtDS0=    0 NMtDT0=    0
 Petite list used in FoFCou.
 Requested convergence on RMS density matrix=1.00D-08 within 128 cycles.
 Requested convergence on MAX density matrix=1.00D-06.
 Requested convergence on             energy=1.00D-06.
 No special actions if energy rises.
 Integral accuracy reduced to 1.0D-05 until final iterations.
 Initial convergence to 1.0D-05 achieved.  Increase integral accuracy.
 SCF Done:  E(RB3LYP) =  -543.663547908     A.U. after   13 cycles
            NFock= 13  Conv=0.87D-08     -V/T= 2.0096

 **********************************************************************

            Population analysis using the SCF Density.

 **********************************************************************

 Orbital symmetries:
       Occupied  (A) (A) (A) (A) (A) (A) (A) (A) (A) (A) (A) (A)
                 (A) (A) (A) (A) (A) (A) (A) (A) (A) (A) (A) (A)
                 (A) (A) (A) (A) (A) (A) (A) (A) (A) (A) (A) (A)
                 (A) (A) (A) (A) (A) (A) (A) (A) (A) (A) (A) (A)
       Virtual   (A) (A) (A) (A) (A) (A) (A) (A) (A) (A) (A) (A)
                 (A) (A) (A) (A) (A) (A) (A) (A) (A) (A) (A) (A)
                 (A) (A) (A) (A) (A) (A) (A) (A) (A) (A) (A) (A)
                 (A) (A) (A) (A) (A) (A) (A) (A) (A) (A) (A) (A)
                 (A) (A) (A) (A) (A) (A) (A) (A) (A) (A) (A) (A)
                 (A) (A) (A) (A) (A) (A) (A) (A) (A) (A) (A) (A)
                 (A) (A) (A) (A) (A) (A) (A) (A) (A) (A) (A) (A)
                 (A) (A) (A) (A) (A) (A) (A) (A) (A) (A) (A) (A)
                 (A) (A) (A) (A) (A) (A) (A) (A) (A) (A) (A) (A)
                 (A) (A) (A) (A) (A) (A) (A) (A) (A) (A) (A) (A)
                 (A) (A) (A) (A) (A) (A) (A) (A) (A) (A) (A) (A)
                 (A) (A) (A) (A) (A) (A) (A) (A) (A) (A) (A) (A)
                 (A) (A) (A) (A) (A) (A) (A) (A) (A) (A) (A) (A)
                 (A) (A) (A) (A) (A) (A) (A) (A) (A) (A) (A) (A)
                 (A) (A) (A) (A) (A) (A) (A) (A) (A) (A) (A) (A)
                 (A) (A) (A) (A) (A) (A) (A) (A) (A) (A) (A) (A)
                 (A) (A) (A) (A) (A) (A) (A) (A) (A) (A) (A) (A)
                 (A) (A) (A) (A) (A) (A) (A) (A) (A) (A) (A) (A)
                 (A) (A) (A) (A) (A) (A) (A) (A) (A) (A) (A) (A)
                 (A) (A) (A) (A)
 The electronic state is 1-A.
 Alpha  occ. eigenvalues --  -19.20079 -19.13819 -10.32194 -10.20100 -10.19142
 Alpha  occ. eigenvalues --  -10.18012 -10.17460 -10.17416 -10.17141 -10.16872
 Alpha  occ. eigenvalues --  -10.16635 -10.15835  -1.10931  -1.01223  -0.81106
 Alpha  occ. eigenvalues --   -0.79007  -0.76051  -0.72518  -0.68604  -0.64301
 Alpha  occ. eigenvalues --   -0.61324  -0.58955  -0.57575  -0.54979  -0.48585
 Alpha  occ. eigenvalues --   -0.48336  -0.47860  -0.45644  -0.44192  -0.43566
 Alpha  occ. eigenvalues --   -0.42362  -0.41795  -0.40351  -0.39869  -0.39147
 Alpha  occ. eigenvalues --   -0.38194  -0.36707  -0.36139  -0.35085  -0.34467
 Alpha  occ. eigenvalues --   -0.33090  -0.32374  -0.31881  -0.31587  -0.30823
 Alpha  occ. eigenvalues --   -0.30009  -0.29657  -0.26925
 Alpha virt. eigenvalues --    0.00718   0.07228   0.09034   0.10318   0.10980
 Alpha virt. eigenvalues --    0.11359   0.13507   0.14444   0.14578   0.15172
 Alpha virt. eigenvalues --    0.15846   0.16910   0.17565   0.18062   0.18599
 Alpha virt. eigenvalues --    0.19061   0.19365   0.20025   0.20536   0.21167
 Alpha virt. eigenvalues --    0.21731   0.23833   0.24256   0.24741   0.25134
 Alpha virt. eigenvalues --    0.26391   0.27408   0.28259   0.29061   0.31204
 Alpha virt. eigenvalues --    0.31841   0.37742   0.48230   0.49215   0.50413
 Alpha virt. eigenvalues --    0.52708   0.53155   0.54137   0.54239   0.56025
 Alpha virt. eigenvalues --    0.56608   0.58220   0.59837   0.62416   0.63565
 Alpha virt. eigenvalues --    0.63931   0.64310   0.66432   0.66925   0.67743
 Alpha virt. eigenvalues --    0.68852   0.69931   0.72631   0.72891   0.73139
 Alpha virt. eigenvalues --    0.76014   0.77629   0.78062   0.79662   0.81615
 Alpha virt. eigenvalues --    0.83723   0.84678   0.85189   0.86232   0.87089
 Alpha virt. eigenvalues --    0.87531   0.88414   0.89595   0.90038   0.90418
 Alpha virt. eigenvalues --    0.90965   0.91664   0.93075   0.93730   0.94376
 Alpha virt. eigenvalues --    0.94706   0.96478   0.96729   0.97387   0.98242
 Alpha virt. eigenvalues --    0.98961   1.01259   1.02126   1.03427   1.03870
 Alpha virt. eigenvalues --    1.07396   1.08414   1.10863   1.13546   1.18472
 Alpha virt. eigenvalues --    1.21548   1.28834   1.31035   1.33099   1.35260
 Alpha virt. eigenvalues --    1.37106   1.39154   1.41522   1.45807   1.46580
 Alpha virt. eigenvalues --    1.50278   1.52013   1.54169   1.54882   1.57632
 Alpha virt. eigenvalues --    1.63490   1.63577   1.64810   1.65632   1.68366
 Alpha virt. eigenvalues --    1.68743   1.69536   1.71896   1.72593   1.73754
 Alpha virt. eigenvalues --    1.77630   1.77958   1.80481   1.81904   1.82753
 Alpha virt. eigenvalues --    1.85413   1.86660   1.87941   1.89228   1.89679
 Alpha virt. eigenvalues --    1.91476   1.92696   1.93698   1.95431   1.98156
 Alpha virt. eigenvalues --    1.98828   2.01210   2.03639   2.06252   2.06851
 Alpha virt. eigenvalues --    2.09608   2.12634   2.13034   2.14224   2.15348
 Alpha virt. eigenvalues --    2.16144   2.18105   2.19192   2.19696   2.21628
 Alpha virt. eigenvalues --    2.22659   2.24188   2.25773   2.26820   2.26891
 Alpha virt. eigenvalues --    2.27414   2.29244   2.30024   2.30831   2.32616
 Alpha virt. eigenvalues --    2.33791   2.35650   2.37677   2.39439   2.41999
 Alpha virt. eigenvalues --    2.43688   2.45682   2.47428   2.48779   2.49690
 Alpha virt. eigenvalues --    2.52017   2.53661   2.56033   2.56734   2.57299
 Alpha virt. eigenvalues --    2.59623   2.61396   2.61763   2.65270   2.66934
 Alpha virt. eigenvalues --    2.69112   2.70358   2.74121   2.75046   2.75145
 Alpha virt. eigenvalues --    2.76525   2.77184   2.78889   2.79923   2.80568
 Alpha virt. eigenvalues --    2.82418   2.86286   2.86974   2.88409   2.89256
 Alpha virt. eigenvalues --    2.90165   2.91084   2.92473   2.93439   2.93794
 Alpha virt. eigenvalues --    2.95745   2.96180   2.96851   3.02688   3.11464
 Alpha virt. eigenvalues --    3.21122   3.26569   3.29465   3.32246   3.32369
 Alpha virt. eigenvalues --    3.34581   3.35720   3.37275   3.38535   3.39830
 Alpha virt. eigenvalues --    3.41881   3.44329   3.46600   3.48907   3.50237
 Alpha virt. eigenvalues --    3.51915   3.56611   3.58226   3.60125   3.63203
 Alpha virt. eigenvalues --    3.94101   4.14011   4.24370   4.31107   4.34569
 Alpha virt. eigenvalues --    4.43894   4.54148   4.59267   4.67180   4.69911
 Alpha virt. eigenvalues --    4.73591   4.76415
          Condensed to atoms (all electrons):
               1          2          3          4          5          6
     1  O    8.116371   0.250106  -0.097519   0.002513  -0.000599   0.000909
     2  C    0.250106   4.384004   0.349040  -0.028798  -0.000421   0.000988
     3  C   -0.097519   0.349040   5.088571   0.336727  -0.042415  -0.003684
     4  C    0.002513  -0.028798   0.336727   4.929566   0.367514  -0.036150
     5  C   -0.000599  -0.000421  -0.042415   0.367514   4.910207   0.380366
     6  C    0.000909   0.000988  -0.003684  -0.036150   0.380366   4.922996
     7  C    0.000016  -0.000058  -0.000017   0.003748  -0.040047   0.368604
     8  C   -0.000000   0.000007  -0.000011   0.000123  -0.003979  -0.046143
     9  C    0.000000  -0.000019   0.000006   0.000012  -0.000791  -0.002388
    10  C   -0.000001  -0.000284   0.000092  -0.000007  -0.001435   0.000165
    11  C    0.000000   0.000048  -0.000014   0.000000   0.000048  -0.000067
    12  O   -0.081980   0.544998  -0.071421   0.001123   0.000533  -0.001676
    13  H    0.269449  -0.009932   0.010809  -0.000335  -0.000046  -0.000001
    14  H    0.001541  -0.028112   0.359490  -0.023631   0.004239  -0.000056
    15  H    0.003084  -0.032404   0.379731  -0.032882  -0.006650  -0.000247
    16  H    0.000013   0.003767  -0.029951   0.371945  -0.036191   0.004632
    17  H    0.005500  -0.008671  -0.036259   0.384100  -0.037315  -0.006756
    18  H   -0.000002  -0.000574  -0.007350  -0.037737   0.383283  -0.041182
    19  H   -0.000006  -0.000037   0.004728  -0.033433   0.378401  -0.040384
    20  H    0.000380   0.000123  -0.000426  -0.004689  -0.040263   0.377321
    21  H   -0.001187   0.005338   0.001701  -0.003208  -0.040604   0.382142
    22  H   -0.000000  -0.000000   0.000001   0.000021  -0.007141  -0.040842
    23  H   -0.000000   0.000005   0.000002  -0.000149   0.004788  -0.033774
    24  H    0.000000  -0.000000  -0.000000  -0.000001   0.000052   0.005312
    25  H   -0.000000   0.000002   0.000003  -0.000091   0.002747  -0.007152
    26  H   -0.000000  -0.000000  -0.000000   0.000000  -0.000018   0.000053
    27  H    0.000000  -0.000001  -0.000001   0.000000   0.000086  -0.000730
    28  H    0.000015   0.000871  -0.000826  -0.000336  -0.000478  -0.000308
    29  H   -0.000000   0.000007  -0.000017   0.000001  -0.000103   0.000000
    30  H   -0.000000   0.000013   0.000001  -0.000000  -0.000001   0.000003
    31  H    0.000000   0.000014  -0.000004   0.000000   0.000000   0.000003
    32  H    0.000000  -0.000000  -0.000000  -0.000000  -0.000001  -0.000001
               7          8          9         10         11         12
     1  O    0.000016  -0.000000   0.000000  -0.000001   0.000000  -0.081980
     2  C   -0.000058   0.000007  -0.000019  -0.000284   0.000048   0.544998
     3  C   -0.000017  -0.000011   0.000006   0.000092  -0.000014  -0.071421
     4  C    0.003748   0.000123   0.000012  -0.000007   0.000000   0.001123
     5  C   -0.040047  -0.003979  -0.000791  -0.001435   0.000048   0.000533
     6  C    0.368604  -0.046143  -0.002388   0.000165  -0.000067  -0.001676
     7  C    4.903557   0.380399  -0.038019  -0.001736  -0.000023   0.000013
     8  C    0.380399   4.919447   0.363155  -0.034384   0.003985   0.000002
     9  C   -0.038019   0.363155   4.897061   0.385973  -0.043072  -0.000009
    10  C   -0.001736  -0.034384   0.385973   4.884577   0.368511  -0.002133
    11  C   -0.000023   0.003985  -0.043072   0.368511   4.914544   0.000519
    12  O    0.000013   0.000002  -0.000009  -0.002133   0.000519   8.063748
    13  H   -0.000002   0.000000  -0.000000   0.000002  -0.000000   0.011385
    14  H    0.000001   0.000000  -0.000000  -0.000001   0.000000   0.001712
    15  H   -0.000005  -0.000005  -0.000006   0.000044   0.000000   0.000447
    16  H   -0.000162   0.000004  -0.000001   0.000002   0.000000  -0.000077
    17  H    0.000075   0.000003  -0.000000  -0.000000   0.000000   0.000047
    18  H   -0.003562   0.002615  -0.000634   0.001725  -0.000054  -0.000055
    19  H   -0.004022  -0.000782   0.000088   0.000018  -0.000000  -0.000002
    20  H   -0.031883   0.005024  -0.000085   0.000089  -0.000000  -0.000006
    21  H   -0.034871  -0.007428   0.004703  -0.001646   0.000058   0.002772
    22  H    0.376809  -0.035294   0.004873  -0.000102   0.000002  -0.000000
    23  H    0.376524  -0.037638  -0.007693  -0.000068   0.000005  -0.000001
    24  H   -0.032930   0.372057  -0.033559   0.004216  -0.000186   0.000000
    25  H   -0.038260   0.383537  -0.042221  -0.008932   0.000222  -0.000000
    26  H    0.004036  -0.032676   0.378374  -0.040435  -0.003875  -0.000000
    27  H   -0.007346  -0.043398   0.384482  -0.040635  -0.003036   0.000002
    28  H    0.000362  -0.001221  -0.040568   0.385102  -0.036304   0.006829
    29  H   -0.000002  -0.005449  -0.037468   0.382474  -0.039025   0.000017
    30  H    0.000001   0.000031  -0.004870  -0.033374   0.388764   0.000375
    31  H    0.000001  -0.000157   0.004137  -0.026122   0.379575   0.000180
    32  H   -0.000002   0.000040  -0.004728  -0.035819   0.383288   0.000007
              13         14         15         16         17         18
     1  O    0.269449   0.001541   0.003084   0.000013   0.005500  -0.000002
     2  C   -0.009932  -0.028112  -0.032404   0.003767  -0.008671  -0.000574
     3  C    0.010809   0.359490   0.379731  -0.029951  -0.036259  -0.007350
     4  C   -0.000335  -0.023631  -0.032882   0.371945   0.384100  -0.037737
     5  C   -0.000046   0.004239  -0.006650  -0.036191  -0.037315   0.383283
     6  C   -0.000001  -0.000056  -0.000247   0.004632  -0.006756  -0.041182
     7  C   -0.000002   0.000001  -0.000005  -0.000162   0.000075  -0.003562
     8  C    0.000000   0.000000  -0.000005   0.000004   0.000003   0.002615
     9  C   -0.000000  -0.000000  -0.000006  -0.000001  -0.000000  -0.000634
    10  C    0.000002  -0.000001   0.000044   0.000002  -0.000000   0.001725
    11  C   -0.000000   0.000000   0.000000   0.000000   0.000000  -0.000054
    12  O    0.011385   0.001712   0.000447  -0.000077   0.000047  -0.000055
    13  H    0.400012  -0.000471  -0.000293   0.000018  -0.000221   0.000002
    14  H   -0.000471   0.595578  -0.031004  -0.008295  -0.000964   0.000046
    15  H   -0.000293  -0.031004   0.579796  -0.001827   0.004782   0.004996
    16  H    0.000018  -0.008295  -0.001827   0.644088  -0.036911  -0.001934
    17  H   -0.000221  -0.000964   0.004782  -0.036911   0.609531   0.005480
    18  H    0.000002   0.000046   0.004996  -0.001934   0.005480   0.632017
    19  H    0.000000  -0.000173   0.000107  -0.006051  -0.001908  -0.039206
    20  H    0.000032  -0.000006   0.000045   0.000028   0.005382   0.006141
    21  H    0.000109   0.000037  -0.000041  -0.000030  -0.000276  -0.006014
    22  H    0.000000   0.000000   0.000000  -0.000005   0.000002  -0.000406
    23  H    0.000000  -0.000000   0.000000   0.000003  -0.000007  -0.000024
    24  H   -0.000000   0.000000  -0.000000  -0.000000   0.000000  -0.000090
    25  H   -0.000000  -0.000000   0.000003   0.000007  -0.000001   0.001729
    26  H    0.000000   0.000000   0.000000  -0.000000  -0.000000   0.000006
    27  H   -0.000000  -0.000000   0.000001   0.000000  -0.000000   0.000010
    28  H   -0.000014   0.000053   0.001246  -0.000011  -0.000011   0.001232
    29  H   -0.000000   0.000000   0.000071  -0.000000   0.000000   0.000685
    30  H    0.000000   0.000000   0.000001   0.000000  -0.000000   0.000003
    31  H   -0.000000  -0.000000   0.000031  -0.000000   0.000000  -0.000001
    32  H   -0.000000   0.000000   0.000000  -0.000000  -0.000000   0.000001
              19         20         21         22         23         24
     1  O   -0.000006   0.000380  -0.001187  -0.000000  -0.000000   0.000000
     2  C   -0.000037   0.000123   0.005338  -0.000000   0.000005  -0.000000
     3  C    0.004728  -0.000426   0.001701   0.000001   0.000002  -0.000000
     4  C   -0.033433  -0.004689  -0.003208   0.000021  -0.000149  -0.000001
     5  C    0.378401  -0.040263  -0.040604  -0.007141   0.004788   0.000052
     6  C   -0.040384   0.377321   0.382142  -0.040842  -0.033774   0.005312
     7  C   -0.004022  -0.031883  -0.034871   0.376809   0.376524  -0.032930
     8  C   -0.000782   0.005024  -0.007428  -0.035294  -0.037638   0.372057
     9  C    0.000088  -0.000085   0.004703   0.004873  -0.007693  -0.033559
    10  C    0.000018   0.000089  -0.001646  -0.000102  -0.000068   0.004216
    11  C   -0.000000  -0.000000   0.000058   0.000002   0.000005  -0.000186
    12  O   -0.000002  -0.000006   0.002772  -0.000000  -0.000001   0.000000
    13  H    0.000000   0.000032   0.000109   0.000000   0.000000  -0.000000
    14  H   -0.000173  -0.000006   0.000037   0.000000  -0.000000   0.000000
    15  H    0.000107   0.000045  -0.000041   0.000000   0.000000  -0.000000
    16  H   -0.006051   0.000028  -0.000030  -0.000005   0.000003  -0.000000
    17  H   -0.001908   0.005382  -0.000276   0.000002  -0.000007   0.000000
    18  H   -0.039206   0.006141  -0.006014  -0.000406  -0.000024  -0.000090
    19  H    0.644688  -0.005488   0.005892   0.005783   0.000011  -0.000039
    20  H   -0.005488   0.649742  -0.040624  -0.004586  -0.003935  -0.000170
    21  H    0.005892  -0.040624   0.624269   0.006128  -0.004037   0.000022
    22  H    0.005783  -0.004586   0.006128   0.656932  -0.039630  -0.004157
    23  H    0.000011  -0.003935  -0.004037  -0.039630   0.651269  -0.004719
    24  H   -0.000039  -0.000170   0.000022  -0.004157  -0.004719   0.656691
    25  H    0.000500  -0.000028   0.000017  -0.003379   0.005973  -0.039885
    26  H    0.000001   0.000002  -0.000116  -0.000221   0.000138  -0.010175
    27  H    0.000002  -0.000127   0.001446   0.000189   0.005021   0.001195
    28  H   -0.000003   0.000034   0.001036  -0.000076   0.000074  -0.000029
    29  H    0.000003  -0.000006   0.000072   0.000013   0.000005   0.000115
    30  H    0.000000  -0.000001   0.000096   0.000000  -0.000003   0.000001
    31  H   -0.000000   0.000000  -0.000012  -0.000000  -0.000000   0.000003
    32  H    0.000000   0.000000  -0.000001  -0.000000   0.000000  -0.000003
              25         26         27         28         29         30
     1  O   -0.000000  -0.000000   0.000000   0.000015  -0.000000  -0.000000
     2  C    0.000002  -0.000000  -0.000001   0.000871   0.000007   0.000013
     3  C    0.000003  -0.000000  -0.000001  -0.000826  -0.000017   0.000001
     4  C   -0.000091   0.000000   0.000000  -0.000336   0.000001  -0.000000
     5  C    0.002747  -0.000018   0.000086  -0.000478  -0.000103  -0.000001
     6  C   -0.007152   0.000053  -0.000730  -0.000308   0.000000   0.000003
     7  C   -0.038260   0.004036  -0.007346   0.000362  -0.000002   0.000001
     8  C    0.383537  -0.032676  -0.043398  -0.001221  -0.005449   0.000031
     9  C   -0.042221   0.378374   0.384482  -0.040568  -0.037468  -0.004870
    10  C   -0.008932  -0.040435  -0.040635   0.385102   0.382474  -0.033374
    11  C    0.000222  -0.003875  -0.003036  -0.036304  -0.039025   0.388764
    12  O   -0.000000  -0.000000   0.000002   0.006829   0.000017   0.000375
    13  H   -0.000000   0.000000  -0.000000  -0.000014  -0.000000   0.000000
    14  H   -0.000000   0.000000  -0.000000   0.000053   0.000000   0.000000
    15  H    0.000003   0.000000   0.000001   0.001246   0.000071   0.000001
    16  H    0.000007  -0.000000   0.000000  -0.000011  -0.000000   0.000000
    17  H   -0.000001  -0.000000  -0.000000  -0.000011   0.000000  -0.000000
    18  H    0.001729   0.000006   0.000010   0.001232   0.000685   0.000003
    19  H    0.000500   0.000001   0.000002  -0.000003   0.000003   0.000000
    20  H   -0.000028   0.000002  -0.000127   0.000034  -0.000006  -0.000001
    21  H    0.000017  -0.000116   0.001446   0.001036   0.000072   0.000096
    22  H   -0.003379  -0.000221   0.000189  -0.000076   0.000013   0.000000
    23  H    0.005973   0.000138   0.005021   0.000074   0.000005  -0.000003
    24  H   -0.039885  -0.010175   0.001195  -0.000029   0.000115   0.000001
    25  H    0.644212   0.001111   0.005503  -0.000186   0.005096   0.000010
    26  H    0.001111   0.654538  -0.041058   0.006037  -0.006766  -0.000538
    27  H    0.005503  -0.041058   0.644978  -0.005875   0.006088   0.004871
    28  H   -0.000186   0.006037  -0.005875   0.616048  -0.042455  -0.005527
    29  H    0.005096  -0.006766   0.006088  -0.042455   0.654644   0.005509
    30  H    0.000010  -0.000538   0.004871  -0.005527   0.005509   0.602621
    31  H   -0.000004  -0.000045   0.000004  -0.003292  -0.002953  -0.030918
    32  H    0.000001   0.005138  -0.000517   0.005578  -0.005109  -0.034610
              31         32
     1  O    0.000000   0.000000
     2  C    0.000014  -0.000000
     3  C   -0.000004  -0.000000
     4  C    0.000000  -0.000000
     5  C    0.000000  -0.000001
     6  C    0.000003  -0.000001
     7  C    0.000001  -0.000002
     8  C   -0.000157   0.000040
     9  C    0.004137  -0.004728
    10  C   -0.026122  -0.035819
    11  C    0.379575   0.383288
    12  O    0.000180   0.000007
    13  H   -0.000000  -0.000000
    14  H   -0.000000   0.000000
    15  H    0.000031   0.000000
    16  H   -0.000000  -0.000000
    17  H    0.000000  -0.000000
    18  H   -0.000001   0.000001
    19  H   -0.000000   0.000000
    20  H    0.000000   0.000000
    21  H   -0.000012  -0.000001
    22  H   -0.000000  -0.000000
    23  H   -0.000000   0.000000
    24  H    0.000003  -0.000003
    25  H   -0.000004   0.000001
    26  H   -0.000045   0.005138
    27  H    0.000004  -0.000517
    28  H   -0.003292   0.005578
    29  H   -0.002953  -0.005109
    30  H   -0.030918  -0.034610
    31  H    0.611666  -0.033506
    32  H   -0.033506   0.626790
 Mulliken charges:
               1
     1  O   -0.468603
     2  C    0.569981
     3  C   -0.240990
     4  C   -0.195947
     5  C   -0.173768
     6  C   -0.181953
     7  C   -0.181197
     8  C   -0.181864
     9  C   -0.166731
    10  C   -0.185873
    11  C   -0.313913
    12  O   -0.477348
    13  H    0.319497
    14  H    0.130016
    15  H    0.130980
    16  H    0.096939
    17  H    0.114399
    18  H    0.098853
    19  H    0.091314
    20  H    0.087981
    21  H    0.104256
    22  H    0.085084
    23  H    0.087858
    24  H    0.086281
    25  H    0.089467
    26  H    0.086487
    27  H    0.088846
    28  H    0.113002
    29  H    0.084554
    30  H    0.107542
    31  H    0.101399
    32  H    0.093454
 Sum of Mulliken charges =  -0.00000
 Mulliken charges with hydrogens summed into heavy atoms:
               1
     1  O   -0.149106
     2  C    0.569981
     3  C    0.020005
     4  C    0.015391
     5  C    0.016399
     6  C    0.010284
     7  C   -0.008255
     8  C   -0.006116
     9  C    0.008601
    10  C    0.011683
    11  C   -0.011519
    12  O   -0.477348
 Electronic spatial extent (au):  <R**2>=           2792.6248
 Charge=             -0.0000 electrons
 Dipole moment (field-independent basis, Debye):
    X=             -0.9667    Y=             -1.4588    Z=              0.0389  Tot=              1.7504
 Quadrupole moment (field-independent basis, Debye-Ang):
   XX=            -73.3848   YY=            -81.1942   ZZ=            -71.3342
   XY=             -0.4900   XZ=              0.6887   YZ=             -1.0494
 Traceless Quadrupole moment (field-independent basis, Debye-Ang):
   XX=              1.9196   YY=             -5.8898   ZZ=              3.9702
   XY=             -0.4900   XZ=              0.6887   YZ=             -1.0494
 Octapole moment (field-independent basis, Debye-Ang**2):
  XXX=            -29.9637  YYY=             -7.0821  ZZZ=            -16.3555  XYY=             -5.7138
  XXY=             10.0342  XXZ=             -5.1834  XZZ=            -21.0585  YZZ=              8.4549
  YYZ=             -0.9106  XYZ=              5.1676
 Hexadecapole moment (field-independent basis, Debye-Ang**3):
 XXXX=          -2078.1855 YYYY=          -1229.2082 ZZZZ=           -367.1038 XXXY=            -52.4026
 XXXZ=             27.5737 YYYX=             -5.5939 YYYZ=             -3.2458 ZZZX=             47.8247
 ZZZY=            -19.0302 XXYY=           -550.3282 XXZZ=           -376.9022 YYZZ=           -260.0958
 XXYZ=            -19.3959 YYXZ=              9.2700 ZZXY=            -21.8699
 N-N= 7.556234138467D+02 E-N=-2.774723368952D+03  KE= 5.384890792699D+02
 Calling FoFJK, ICntrl=      2127 FMM=F ISym2X=0 I1Cent= 0 IOpClX= 0 NMat=1 NMatS=1 NMatT=0.
 ***** Axes restored to original set *****
 -------------------------------------------------------------------
 Center     Atomic                   Forces (Hartrees/Bohr)
 Number     Number              X              Y              Z
 -------------------------------------------------------------------
      1        8          -0.002348205   -0.011123661    0.004299647
      2        6           0.000805021   -0.019856061   -0.013503522
      3        6          -0.006631690    0.008856012    0.001842453
      4        6          -0.000340865   -0.003992703   -0.003386980
      5        6           0.002980885    0.009929864   -0.001328287
      6        6          -0.002090888   -0.006299062   -0.000899480
      7        6           0.006409378   -0.004796885   -0.000487940
      8        6          -0.001587799    0.008469277   -0.000931799
      9        6           0.003252083   -0.008770564    0.006873036
     10        6          -0.000074502    0.007073367   -0.006065564
     11        6          -0.001314470   -0.001692639    0.004659589
     12        8          -0.005631705    0.005040761    0.013784266
     13        1           0.002738208    0.014796117   -0.006677375
     14        1           0.002076538    0.000040014    0.005979192
     15        1          -0.000991537    0.001601682   -0.003943564
     16        1           0.002313253   -0.003412728    0.000941619
     17        1           0.001318808    0.004163810   -0.001611208
     18        1           0.002174668   -0.001945257   -0.002825516
     19        1          -0.003211760   -0.000431291    0.002925780
     20        1          -0.001342426    0.002352034    0.003676835
     21        1           0.005336687   -0.000165686   -0.002786515
     22        1          -0.002848936   -0.002719213    0.003116953
     23        1           0.000138121    0.003459026   -0.002836654
     24        1          -0.004184823    0.000535684   -0.000555248
     25        1           0.003385656   -0.002935674    0.001955602
     26        1          -0.000417060   -0.001849823   -0.003640861
     27        1           0.001037679    0.004549079    0.001066829
     28        1           0.000833770    0.002636174    0.003083532
     29        1          -0.002240557   -0.004567273   -0.000101706
     30        1          -0.000206304    0.002794586    0.000091277
     31        1           0.002467569   -0.000657400    0.000432784
     32        1          -0.001804798   -0.001081567   -0.003147175
 -------------------------------------------------------------------
 Cartesian Forces:  Max     0.019856061 RMS     0.004924721

 GradGradGradGradGradGradGradGradGradGradGradGradGradGradGradGradGradGrad
 Berny optimization.
 FormGI is forming the generalized inverse of G from B-inverse, IUseBI=4.
 Internal  Forces:  Max     0.016031356 RMS     0.003167051
 Search for a local minimum.
 Step number   1 out of a maximum of  179
 All quantities printed in internal units (Hartrees-Bohrs-Radians)
 Mixed Optimization -- RFO/linear search
 Second derivative matrix not updated -- first step.
 ITU=  0
     Eigenvalues ---    0.00230   0.00230   0.00230   0.00230   0.00230
     Eigenvalues ---    0.00230   0.00230   0.00308   0.00417   0.00895
     Eigenvalues ---    0.02342   0.03054   0.03055   0.03066   0.03162
     Eigenvalues ---    0.03201   0.03244   0.03424   0.03580   0.04635
     Eigenvalues ---    0.04669   0.04671   0.04677   0.04677   0.04684
     Eigenvalues ---    0.04736   0.05157   0.05400   0.05495   0.08326
     Eigenvalues ---    0.08546   0.08617   0.08703   0.08814   0.08824
     Eigenvalues ---    0.08928   0.09935   0.12204   0.12374   0.12432
     Eigenvalues ---    0.12489   0.12588   0.12600   0.12637   0.13188
     Eigenvalues ---    0.16000   0.16000   0.16000   0.16000   0.21878
     Eigenvalues ---    0.21882   0.21899   0.21902   0.21903   0.21914
     Eigenvalues ---    0.21937   0.21984   0.24995   0.25000   0.27452
     Eigenvalues ---    0.27969   0.28026   0.28093   0.28245   0.28377
     Eigenvalues ---    0.28407   0.29004   0.29761   0.34547   0.34625
     Eigenvalues ---    0.34632   0.34641   0.34649   0.34652   0.34655
     Eigenvalues ---    0.34656   0.34678   0.34689   0.34716   0.34726
     Eigenvalues ---    0.34738   0.34750   0.34763   0.34818   0.34884
     Eigenvalues ---    0.34971   0.35007   0.54842   0.56033   0.94442
 RFO step:  Lambda=-8.82152772D-03 EMin= 2.30000000D-03
 Linear search not attempted -- first point.
 Iteration  1 RMS(Cart)=  0.23898820 RMS(Int)=  0.00620970
 Iteration  2 RMS(Cart)=  0.01762300 RMS(Int)=  0.00037901
 Iteration  3 RMS(Cart)=  0.00019052 RMS(Int)=  0.00037453
 Iteration  4 RMS(Cart)=  0.00000010 RMS(Int)=  0.00037453
 Variable       Old X    -DE/DX   Delta X   Delta X   Delta X     New X
                                 (Linear)    (Quad)   (Total)
    R1        2.55273   0.00150   0.00000   0.00269   0.00269   2.55541
    R2        1.80926   0.01603   0.00000   0.02817   0.02817   1.83742
    R3        2.88443  -0.00940   0.00000  -0.03068  -0.03068   2.85375
    R4        2.30951  -0.01451   0.00000  -0.01522  -0.01522   2.29429
    R5        2.93353  -0.00978   0.00000  -0.03453  -0.03453   2.89901
    R6        2.05864   0.00565   0.00000   0.01580   0.01580   2.07444
    R7        2.05972   0.00114   0.00000   0.00319   0.00319   2.06291
    R8        2.91935  -0.00725   0.00000  -0.02503  -0.02503   2.89432
    R9        2.06288   0.00334   0.00000   0.00942   0.00942   2.07230
   R10        2.06417   0.00212   0.00000   0.00599   0.00599   2.07017
   R11        2.91605  -0.00627   0.00000  -0.02152  -0.02152   2.89454
   R12        2.06102   0.00374   0.00000   0.01050   0.01050   2.07151
   R13        2.06249   0.00419   0.00000   0.01180   0.01180   2.07429
   R14        2.91323  -0.00435   0.00000  -0.01487  -0.01487   2.89835
   R15        2.06200   0.00437   0.00000   0.01229   0.01229   2.07429
   R16        2.05664   0.00543   0.00000   0.01514   0.01514   2.07178
   R17        2.92207  -0.00586   0.00000  -0.02031  -0.02031   2.90177
   R18        2.06239   0.00478   0.00000   0.01344   0.01344   2.07583
   R19        2.06243   0.00409   0.00000   0.01152   0.01152   2.07396
   R20        2.92081  -0.00165   0.00000  -0.00570  -0.00570   2.91512
   R21        2.06237   0.00390   0.00000   0.01098   0.01098   2.07335
   R22        2.06139   0.00410   0.00000   0.01153   0.01153   2.07291
   R23        2.91258  -0.00391   0.00000  -0.01335  -0.01335   2.89923
   R24        2.06276   0.00399   0.00000   0.01125   0.01125   2.07401
   R25        2.06261   0.00440   0.00000   0.01238   0.01238   2.07499
   R26        2.89995  -0.00218   0.00000  -0.00731  -0.00731   2.89264
   R27        2.05723   0.00387   0.00000   0.01080   0.01080   2.06803
   R28        2.06183   0.00461   0.00000   0.01295   0.01295   2.07479
   R29        2.06122   0.00275   0.00000   0.00772   0.00772   2.06895
   R30        2.06083   0.00257   0.00000   0.00721   0.00721   2.06804
   R31        2.06061   0.00370   0.00000   0.01039   0.01039   2.07100
    A1        1.81573   0.00676   0.00000   0.04006   0.04006   1.85579
    A2        1.97094  -0.00212   0.00000  -0.00789  -0.00812   1.96282
    A3        2.15008  -0.00583   0.00000  -0.02221  -0.02244   2.12764
    A4        2.16183   0.00797   0.00000   0.03107   0.03082   2.19265
    A5        2.02579  -0.00491   0.00000  -0.02860  -0.02920   1.99659
    A6        1.83673   0.00440   0.00000   0.03926   0.03964   1.87636
    A7        1.89805  -0.00189   0.00000  -0.03797  -0.03872   1.85933
    A8        1.90911  -0.00072   0.00000   0.00519   0.00541   1.91452
    A9        1.93277   0.00268   0.00000   0.00038  -0.00104   1.93174
   A10        1.85140   0.00099   0.00000   0.02907   0.02941   1.88082
   A11        2.01698  -0.00939   0.00000  -0.05087  -0.05185   1.96513
   A12        1.87338   0.00191   0.00000   0.01798   0.01901   1.89239
   A13        1.93774   0.00095   0.00000  -0.02624  -0.02796   1.90979
   A14        1.87294   0.00471   0.00000   0.04555   0.04594   1.91888
   A15        1.92454   0.00281   0.00000  -0.00681  -0.00939   1.91515
   A16        1.82633   0.00007   0.00000   0.03303   0.03305   1.85938
   A17        2.00721  -0.00482   0.00000  -0.02592  -0.02623   1.98097
   A18        1.90694   0.00051   0.00000  -0.01340  -0.01399   1.89295
   A19        1.88954   0.00201   0.00000   0.01930   0.01951   1.90906
   A20        1.92578   0.00103   0.00000  -0.00887  -0.00954   1.91623
   A21        1.88749   0.00168   0.00000   0.01739   0.01759   1.90508
   A22        1.83891   0.00002   0.00000   0.01633   0.01644   1.85535
   A23        1.98948  -0.00088   0.00000  -0.00698  -0.00706   1.98242
   A24        1.89846  -0.00036   0.00000  -0.00139  -0.00134   1.89711
   A25        1.94031  -0.00107   0.00000  -0.01769  -0.01777   1.92254
   A26        1.89386   0.00121   0.00000   0.01522   0.01520   1.90906
   A27        1.89893   0.00063   0.00000  -0.00041  -0.00064   1.89829
   A28        1.83600   0.00065   0.00000   0.01379   0.01373   1.84973
   A29        2.03037  -0.00473   0.00000  -0.02554  -0.02568   2.00469
   A30        1.89822   0.00152   0.00000   0.01008   0.01014   1.90836
   A31        1.89555   0.00128   0.00000  -0.00103  -0.00137   1.89418
   A32        1.89785   0.00150   0.00000   0.00900   0.00909   1.90694
   A33        1.89622   0.00068   0.00000  -0.00641  -0.00666   1.88956
   A34        1.83587   0.00019   0.00000   0.01826   0.01824   1.85410
   A35        2.01584  -0.00360   0.00000  -0.02079  -0.02123   1.99461
   A36        1.86979   0.00050   0.00000   0.01131   0.01151   1.88129
   A37        1.92997   0.00088   0.00000  -0.01230  -0.01308   1.91689
   A38        1.88313   0.00264   0.00000   0.02932   0.02951   1.91265
   A39        1.92789  -0.00023   0.00000  -0.01865  -0.01932   1.90857
   A40        1.82577   0.00028   0.00000   0.01767   0.01788   1.84365
   A41        1.99798   0.00191   0.00000   0.00669   0.00651   2.00449
   A42        1.89337   0.00021   0.00000   0.01377   0.01366   1.90703
   A43        1.91969  -0.00086   0.00000  -0.01309  -0.01318   1.90650
   A44        1.88419  -0.00044   0.00000   0.00664   0.00649   1.89068
   A45        1.92268  -0.00171   0.00000  -0.02162  -0.02169   1.90099
   A46        1.83850   0.00085   0.00000   0.00905   0.00917   1.84767
   A47        1.96666   0.00118   0.00000   0.00330   0.00331   1.96997
   A48        1.93293  -0.00062   0.00000  -0.00626  -0.00627   1.92666
   A49        1.91352  -0.00177   0.00000  -0.01512  -0.01513   1.89839
   A50        1.89224  -0.00041   0.00000  -0.00022  -0.00022   1.89202
   A51        1.90641   0.00074   0.00000   0.00840   0.00840   1.91481
   A52        1.84811   0.00089   0.00000   0.01071   0.01064   1.85875
   A53        1.94031  -0.00080   0.00000  -0.00623  -0.00625   1.93406
   A54        1.93524   0.00069   0.00000   0.00581   0.00582   1.94106
   A55        1.94678  -0.00073   0.00000  -0.00458  -0.00460   1.94219
   A56        1.87352   0.00012   0.00000   0.00119   0.00120   1.87472
   A57        1.88490   0.00041   0.00000  -0.00073  -0.00077   1.88413
   A58        1.88015   0.00037   0.00000   0.00493   0.00493   1.88508
    D1        3.13465   0.00031   0.00000   0.01585   0.01532  -3.13322
    D2        0.01955  -0.00058   0.00000  -0.02412  -0.02359  -0.00404
    D3        0.93081   0.00013   0.00000   0.01181   0.01106   0.94187
    D4       -1.18240   0.00082   0.00000  -0.00614  -0.00640  -1.18880
    D5        3.12328  -0.00162   0.00000  -0.04174  -0.04123   3.08205
    D6       -2.23749   0.00078   0.00000   0.05114   0.05073  -2.18676
    D7        1.93248   0.00146   0.00000   0.03320   0.03327   1.96576
    D8       -0.04501  -0.00097   0.00000  -0.00240  -0.00156  -0.04657
    D9        1.34014  -0.00431   0.00000  -0.14311  -0.14249   1.19765
   D10       -2.85454  -0.00285   0.00000  -0.10404  -0.10389  -2.95843
   D11       -0.86823  -0.00122   0.00000  -0.06822  -0.06876  -0.93699
   D12       -2.86899  -0.00243   0.00000  -0.10736  -0.10686  -2.97584
   D13       -0.78048  -0.00097   0.00000  -0.06829  -0.06826  -0.84874
   D14        1.20583   0.00066   0.00000  -0.03247  -0.03313   1.17270
   D15       -0.83461  -0.00010   0.00000  -0.06863  -0.06811  -0.90272
   D16        1.25389   0.00136   0.00000  -0.02955  -0.02951   1.22438
   D17       -3.04298   0.00299   0.00000   0.00627   0.00562  -3.03736
   D18       -1.33050   0.00233   0.00000   0.08220   0.08164  -1.24887
   D19        0.84584   0.00052   0.00000   0.04015   0.03989   0.88573
   D20        2.83998   0.00188   0.00000   0.06271   0.06232   2.90229
   D21        2.86394   0.00240   0.00000   0.05821   0.05836   2.92229
   D22       -1.24290   0.00059   0.00000   0.01616   0.01661  -1.22629
   D23        0.75123   0.00195   0.00000   0.03873   0.03904   0.79027
   D24        0.88454  -0.00161   0.00000  -0.00174  -0.00179   0.88275
   D25        3.06088  -0.00342   0.00000  -0.04379  -0.04354   3.01735
   D26       -1.22817  -0.00206   0.00000  -0.02123  -0.02111  -1.24928
   D27       -3.06621  -0.00200   0.00000  -0.08852  -0.08834   3.12863
   D28       -0.95059  -0.00131   0.00000  -0.07468  -0.07456  -1.02515
   D29        1.06306  -0.00133   0.00000  -0.06873  -0.06867   0.99439
   D30        1.05053   0.00015   0.00000  -0.04350  -0.04354   1.00699
   D31       -3.11703   0.00084   0.00000  -0.02967  -0.02976   3.13639
   D32       -1.10339   0.00082   0.00000  -0.02371  -0.02387  -1.12725
   D33       -0.95239  -0.00136   0.00000  -0.06797  -0.06794  -1.02032
   D34        1.16324  -0.00067   0.00000  -0.05414  -0.05415   1.10909
   D35       -3.10630  -0.00069   0.00000  -0.04818  -0.04826   3.12862
   D36       -1.09713  -0.00023   0.00000  -0.02219  -0.02214  -1.11927
   D37        1.05203  -0.00044   0.00000  -0.02061  -0.02064   1.03139
   D38        3.04121   0.00125   0.00000   0.00558   0.00556   3.04677
   D39        3.06788  -0.00005   0.00000  -0.02681  -0.02673   3.04115
   D40       -1.06615  -0.00026   0.00000  -0.02523  -0.02523  -1.09138
   D41        0.92304   0.00143   0.00000   0.00096   0.00097   0.92401
   D42        1.07905  -0.00177   0.00000  -0.05074  -0.05072   1.02833
   D43       -3.05497  -0.00198   0.00000  -0.04916  -0.04922  -3.10419
   D44       -1.06579  -0.00029   0.00000  -0.02297  -0.02302  -1.08881
   D45       -1.09369   0.00174   0.00000   0.04700   0.04681  -1.04688
   D46        3.09133   0.00029   0.00000   0.01448   0.01440   3.10572
   D47        1.11157  -0.00075   0.00000  -0.00635  -0.00631   1.10526
   D48        3.04013   0.00194   0.00000   0.04486   0.04475   3.08488
   D49        0.94197   0.00048   0.00000   0.01234   0.01234   0.95430
   D50       -1.03779  -0.00055   0.00000  -0.00849  -0.00837  -1.04616
   D51        1.05080   0.00058   0.00000   0.02202   0.02198   1.07278
   D52       -1.04737  -0.00088   0.00000  -0.01050  -0.01043  -1.05780
   D53       -3.02712  -0.00191   0.00000  -0.03133  -0.03114  -3.05826
   D54        1.63299  -0.00195   0.00000  -0.08262  -0.08246   1.55052
   D55       -2.54503  -0.00111   0.00000  -0.05971  -0.05947  -2.60450
   D56       -0.54257  -0.00044   0.00000  -0.04831  -0.04815  -0.59072
   D57       -2.55933  -0.00169   0.00000  -0.05999  -0.06001  -2.61934
   D58       -0.45415  -0.00084   0.00000  -0.03708  -0.03702  -0.49118
   D59        1.54830  -0.00018   0.00000  -0.02568  -0.02570   1.52260
   D60       -0.57334  -0.00003   0.00000  -0.03256  -0.03277  -0.60611
   D61        1.53183   0.00082   0.00000  -0.00965  -0.00978   1.52205
   D62       -2.74890   0.00149   0.00000   0.00175   0.00154  -2.74736
   D63       -3.13872   0.00092   0.00000   0.01643   0.01641  -3.12231
   D64       -1.01581   0.00077   0.00000   0.01393   0.01391  -1.00190
   D65        1.01729   0.00043   0.00000   0.01424   0.01424   1.03153
   D66        1.03422  -0.00027   0.00000  -0.01031  -0.01034   1.02387
   D67       -3.12606  -0.00042   0.00000  -0.01281  -0.01285  -3.13891
   D68       -1.09296  -0.00076   0.00000  -0.01250  -0.01252  -1.10548
   D69       -0.96474  -0.00015   0.00000  -0.01339  -0.01335  -0.97810
   D70        1.15817  -0.00029   0.00000  -0.01589  -0.01586   1.14231
   D71       -3.09192  -0.00063   0.00000  -0.01558  -0.01553  -3.10745
   D72        1.06162   0.00005   0.00000   0.00157   0.00158   1.06320
   D73       -3.13877   0.00013   0.00000   0.00280   0.00280  -3.13597
   D74       -1.04332   0.00058   0.00000   0.00991   0.00990  -1.03342
   D75       -1.08421   0.00034   0.00000   0.00749   0.00751  -1.07669
   D76        0.99859   0.00042   0.00000   0.00872   0.00873   1.00732
   D77        3.09404   0.00087   0.00000   0.01583   0.01583   3.10987
   D78       -3.09038  -0.00089   0.00000  -0.00953  -0.00953  -3.09991
   D79       -1.00758  -0.00081   0.00000  -0.00829  -0.00831  -1.01589
   D80        1.08787  -0.00036   0.00000  -0.00118  -0.00121   1.08666
         Item               Value     Threshold  Converged?
 Maximum Force            0.016031     0.000450     NO 
 RMS     Force            0.003167     0.000300     NO 
 Maximum Displacement     0.955940     0.001800     NO 
 RMS     Displacement     0.244564     0.001200     NO 
 Predicted change in Energy=-5.154681D-03
 GradGradGradGradGradGradGradGradGradGradGradGradGradGradGradGradGradGrad

                          Input orientation:                          
 ---------------------------------------------------------------------
 Center     Atomic      Atomic             Coordinates (Angstroms)
 Number     Number       Type             X           Y           Z
 ---------------------------------------------------------------------
      1          8           0        4.630747   -0.316766   -0.850823
      2          6           0        4.808762   -1.448804   -1.568753
      3          6           0        4.737764   -2.691483   -0.713633
      4          6           0        3.461307   -2.808611    0.129198
      5          6           0        2.212615   -3.049484   -0.724367
      6          6           0        1.778276   -1.822156   -1.531330
      7          6           0        0.538555   -2.066606   -2.400641
      8          6           0        0.726422   -3.105959   -3.515252
      9          6           0        1.830133   -2.752038   -4.533202
     10          6           0        3.233056   -3.249995   -4.162219
     11          6           0        4.296533   -2.851338   -5.188469
     12          8           0        4.989135   -1.425646   -2.769139
     13          1           0        4.685306    0.419579   -1.483462
     14          1           0        5.616596   -2.690364   -0.055837
     15          1           0        4.830895   -3.541362   -1.392398
     16          1           0        3.591218   -3.631336    0.842508
     17          1           0        3.332632   -1.897693    0.723975
     18          1           0        2.411844   -3.887775   -1.402027
     19          1           0        1.384606   -3.366465   -0.077222
     20          1           0        1.578610   -0.996554   -0.836070
     21          1           0        2.598839   -1.483311   -2.174615
     22          1           0       -0.300827   -2.369821   -1.760206
     23          1           0        0.243835   -1.115895   -2.862999
     24          1           0       -0.232884   -3.215912   -4.036231
     25          1           0        0.938558   -4.088458   -3.075971
     26          1           0        1.564763   -3.167041   -5.513968
     27          1           0        1.862877   -1.662692   -4.667130
     28          1           0        3.531150   -2.857052   -3.185311
     29          1           0        3.205251   -4.343110   -4.063338
     30          1           0        4.368988   -1.761981   -5.270468
     31          1           0        5.284208   -3.224510   -4.900603
     32          1           0        4.060028   -3.249862   -6.181596
 ---------------------------------------------------------------------
                    Distance matrix (angstroms):
                    1          2          3          4          5
     1  O    0.000000
     2  C    1.352265   0.000000
     3  C    2.381083   1.510140   0.000000
     4  C    2.921870   2.558857   1.534088   0.000000
     5  C    3.651179   3.164671   2.550423   1.531609   0.000000
     6  C    3.296343   3.053627   3.191069   2.561843   1.531722
     7  C    4.712739   4.394130   4.568349   3.936132   2.564843
     8  C    5.488400   4.816692   4.910368   4.566183   3.162435
     9  C    5.228184   4.399842   4.800739   4.939828   3.839530
[...]
 Alpha virt. eigenvalues --    4.57696   4.58878   4.60289   4.63353   4.64653
 Alpha virt. eigenvalues --    4.66520   4.69544   4.71342   4.73120   4.75502
 Alpha virt. eigenvalues --    4.79983   4.81321   4.84493   4.86281   4.88245
 Alpha virt. eigenvalues --    4.98840   5.04410   5.07165   5.17171   5.20624
 Alpha virt. eigenvalues --    5.22777   5.39524   5.40371   5.51336   5.59422
 Alpha virt. eigenvalues --    5.73483   5.85141   5.87347   6.15751   6.19661
 Alpha virt. eigenvalues --    6.33755   6.35408   6.47207   6.49569   6.64796
 Alpha virt. eigenvalues --    6.70062   6.74492   6.84731   6.89323   7.07971
 Alpha virt. eigenvalues --    7.10305   7.28143  22.45868  22.54763  22.57875
 Alpha virt. eigenvalues --   22.59439  22.61259  22.61435  22.63628  22.68092
 Alpha virt. eigenvalues --   22.68766  23.31042  43.99605  44.07638
          Condensed to atoms (all electrons):
               1          2          3          4          5          6
     1  O    7.967271   0.334930  -0.108298   0.003974   0.005135  -0.001692
     2  C    0.334930   4.614216   0.237046  -0.024928   0.011291  -0.005760
     3  C   -0.108298   0.237046   5.343709   0.185690  -0.040666   0.006277
     4  C    0.003974  -0.024928   0.185690   5.180832   0.230065  -0.035770
     5  C    0.005135   0.011291  -0.040666   0.230065   5.340457   0.146084
     6  C   -0.001692  -0.005760   0.006277  -0.035770   0.146084   5.439725
     7  C    0.000301  -0.001216  -0.000157   0.008780  -0.044469   0.205308
     8  C   -0.000039  -0.000114  -0.000386  -0.000449   0.029624  -0.069138
     9  C    0.000173   0.000598  -0.000893   0.000900  -0.012150   0.031576
    10  C   -0.000490  -0.003518   0.004207  -0.000613  -0.003273   0.009028
    11  C    0.000065  -0.000667  -0.000155   0.000014  -0.000038   0.000904
    12  O   -0.090386   0.635125  -0.089483   0.005903   0.002183  -0.012979
    13  H    0.288372  -0.021889   0.015488  -0.001620   0.000076  -0.000117
    14  H    0.003555  -0.019585   0.395057  -0.035341   0.007639  -0.000621
    15  H    0.004103  -0.059173   0.440967  -0.039002   0.000256  -0.002223
    16  H   -0.000084   0.004993  -0.037945   0.431336  -0.051778   0.008721
    17  H    0.003511  -0.011233  -0.039021   0.439624  -0.048627  -0.006776
    18  H   -0.000069  -0.003964  -0.004231  -0.039783   0.440145  -0.069300
    19  H   -0.000048   0.000517   0.007682  -0.040500   0.419346  -0.040993
    20  H    0.000518  -0.000277  -0.001040   0.000079  -0.043009   0.423465
    21  H   -0.005923   0.015208   0.001962  -0.010159  -0.058948   0.422438
    22  H   -0.000011   0.000019   0.000025  -0.000304  -0.010762  -0.042984
    23  H    0.000012   0.000058   0.000075  -0.000684   0.010768  -0.067781
    24  H    0.000000  -0.000010  -0.000008   0.000042   0.000051   0.009951
    25  H   -0.000000   0.000116   0.000109   0.000235   0.000395  -0.012591
    26  H    0.000000  -0.000013   0.000001  -0.000002  -0.000153  -0.000011
    27  H   -0.000032   0.000186   0.000044  -0.000066   0.001905  -0.014307
    28  H    0.000801   0.001490  -0.007737   0.000981  -0.003738   0.000098
    29  H   -0.000001   0.000263  -0.000063  -0.000183   0.002034  -0.003855
    30  H   -0.000039  -0.000204   0.000331  -0.000055   0.000155  -0.000395
    31  H    0.000006   0.000046  -0.000104   0.000012   0.000014   0.000024
    32  H    0.000000   0.000013  -0.000011   0.000005  -0.000036   0.000035
               7          8          9         10         11         12
     1  O    0.000301  -0.000039   0.000173  -0.000490   0.000065  -0.090386
     2  C   -0.001216  -0.000114   0.000598  -0.003518  -0.000667   0.635125
     3  C   -0.000157  -0.000386  -0.000893   0.004207  -0.000155  -0.089483
     4  C    0.008780  -0.000449   0.000900  -0.000613   0.000014   0.005903
     5  C   -0.044469   0.029624  -0.012150  -0.003273  -0.000038   0.002183
     6  C    0.205308  -0.069138   0.031576   0.009028   0.000904  -0.012979
     7  C    5.187238   0.225140  -0.027607  -0.008811  -0.000547  -0.000123
     8  C    0.225140   5.280934   0.162612  -0.020143   0.009288   0.000262
     9  C   -0.027607   0.162612   5.334846   0.231378  -0.057897  -0.000931
    10  C   -0.008811  -0.020143   0.231378   5.168488   0.278703  -0.006968
    11  C   -0.000547   0.009288  -0.057897   0.278703   5.013906  -0.002041
    12  O   -0.000123   0.000262  -0.000931  -0.006968  -0.002041   7.852023
    13  H   -0.000007   0.000005  -0.000017   0.000091  -0.000032   0.006515
    14  H    0.000027  -0.000009   0.000009  -0.000106   0.000006   0.002466
    15  H    0.000072   0.000110   0.000217  -0.003356   0.000305   0.004454
    16  H   -0.000672   0.000170  -0.000060   0.000109  -0.000004  -0.000349
    17  H   -0.000200   0.000018   0.000007  -0.000071   0.000003   0.000168
    18  H   -0.006162   0.009964  -0.001359  -0.004659   0.000137  -0.000162
    19  H    0.002202  -0.003950   0.000421   0.000205   0.000007  -0.000052
    20  H   -0.038356   0.011242  -0.001683   0.000302  -0.000067   0.000168
    21  H   -0.028964  -0.018356   0.009578  -0.008498   0.000833   0.004758
    22  H    0.448474  -0.066115   0.011392  -0.000725   0.000070  -0.000003
    23  H    0.445331  -0.034980  -0.013499   0.002082  -0.000047  -0.000021
    24  H   -0.049334   0.432847  -0.041235   0.004729  -0.000464   0.000002
    25  H   -0.038676   0.433653  -0.062680  -0.000303  -0.000008  -0.000012
    26  H    0.004113  -0.030480   0.415706  -0.045653  -0.003808  -0.000027
    27  H    0.013398  -0.058662   0.427291  -0.045373  -0.002715   0.000218
    28  H   -0.004281   0.005591  -0.061558   0.372405  -0.043291   0.010552
    29  H    0.003328  -0.009613  -0.050978   0.438290  -0.030868   0.000342
    30  H    0.000186  -0.000406  -0.010070  -0.026202   0.413082   0.001449
    31  H   -0.000001  -0.000653   0.012458  -0.045654   0.417604   0.000710
    32  H   -0.000056   0.000233  -0.004819  -0.056704   0.422376   0.000141
              13         14         15         16         17         18
     1  O    0.288372   0.003555   0.004103  -0.000084   0.003511  -0.000069
     2  C   -0.021889  -0.019585  -0.059173   0.004993  -0.011233  -0.003964
     3  C    0.015488   0.395057   0.440967  -0.037945  -0.039021  -0.004231
     4  C   -0.001620  -0.035341  -0.039002   0.431336   0.439624  -0.039783
     5  C    0.000076   0.007639   0.000256  -0.051778  -0.048627   0.440145
     6  C   -0.000117  -0.000621  -0.002223   0.008721  -0.006776  -0.069300
     7  C   -0.000007   0.000027   0.000072  -0.000672  -0.000200  -0.006162
     8  C    0.000005  -0.000009   0.000110   0.000170   0.000018   0.009964
     9  C   -0.000017   0.000009   0.000217  -0.000060   0.000007  -0.001359
    10  C    0.000091  -0.000106  -0.003356   0.000109  -0.000071  -0.004659
    11  C   -0.000032   0.000006   0.000305  -0.000004   0.000003   0.000137
    12  O    0.006515   0.002466   0.004454  -0.000349   0.000168  -0.000162
    13  H    0.378198  -0.000791  -0.000628   0.000077  -0.000217   0.000025
    14  H   -0.000791   0.501264  -0.014834  -0.008592  -0.001778  -0.000238
    15  H   -0.000628  -0.014834   0.482921  -0.002608   0.004977   0.001679
    16  H    0.000077  -0.008592  -0.002608   0.536913  -0.018173  -0.002020
    17  H   -0.000217  -0.001778   0.004977  -0.018173   0.499535   0.006236
    18  H    0.000025  -0.000238   0.001679  -0.002020   0.006236   0.527138
    19  H   -0.000002  -0.000227   0.000035  -0.008434  -0.002404  -0.018374
    20  H    0.000113  -0.000106   0.000005   0.000268   0.000811   0.005240
    21  H   -0.000214   0.000385   0.000653  -0.000418   0.001850   0.003058
    22  H    0.000000   0.000002  -0.000003  -0.000008   0.000081   0.001128
    23  H   -0.000001  -0.000001   0.000005   0.000014  -0.000014  -0.000580
    24  H   -0.000000   0.000000   0.000002  -0.000002   0.000003   0.000402
    25  H   -0.000000   0.000001   0.000010  -0.000005  -0.000039  -0.007953
    26  H    0.000000  -0.000000  -0.000007  -0.000000  -0.000000  -0.000027
    27  H    0.000004   0.000000   0.000004   0.000002  -0.000006  -0.000189
    28  H   -0.000131   0.000229  -0.000361  -0.000147   0.000059  -0.001451
    29  H   -0.000001   0.000007   0.000283   0.000004   0.000000  -0.000096
    30  H    0.000030  -0.000002   0.000028   0.000001   0.000000   0.000011
    31  H   -0.000001   0.000001   0.000137  -0.000000   0.000000  -0.000008
    32  H   -0.000000  -0.000000  -0.000009  -0.000000  -0.000000  -0.000013
              19         20         21         22         23         24
     1  O   -0.000048   0.000518  -0.005923  -0.000011   0.000012   0.000000
     2  C    0.000517  -0.000277   0.015208   0.000019   0.000058  -0.000010
     3  C    0.007682  -0.001040   0.001962   0.000025   0.000075  -0.000008
     4  C   -0.040500   0.000079  -0.010159  -0.000304  -0.000684   0.000042
     5  C    0.419346  -0.043009  -0.058948  -0.010762   0.010768   0.000051
     6  C   -0.040993   0.423465   0.422438  -0.042984  -0.067781   0.009951
     7  C    0.002202  -0.038356  -0.028964   0.448474   0.445331  -0.049334
     8  C   -0.003950   0.011242  -0.018356  -0.066115  -0.034980   0.432847
     9  C    0.000421  -0.001683   0.009578   0.011392  -0.013499  -0.041235
    10  C    0.000205   0.000302  -0.008498  -0.000725   0.002082   0.004729
    11  C    0.000007  -0.000067   0.000833   0.000070  -0.000047  -0.000464
    12  O   -0.000052   0.000168   0.004758  -0.000003  -0.000021   0.000002
    13  H   -0.000002   0.000113  -0.000214   0.000000  -0.000001  -0.000000
    14  H   -0.000227  -0.000106   0.000385   0.000002  -0.000001   0.000000
    15  H    0.000035   0.000005   0.000653  -0.000003   0.000005   0.000002
    16  H   -0.008434   0.000268  -0.000418  -0.000008   0.000014  -0.000002
    17  H   -0.002404   0.000811   0.001850   0.000081  -0.000014   0.000003
    18  H   -0.018374   0.005240   0.003058   0.001128  -0.000580   0.000402
    19  H    0.527949  -0.000918   0.004661   0.001983   0.000239  -0.000296
    20  H   -0.000918   0.514175  -0.018534  -0.003713  -0.007591  -0.000140
    21  H    0.004661  -0.018534   0.523421   0.006346  -0.000893  -0.000600
    22  H    0.001983  -0.003713   0.006346   0.535754  -0.017799  -0.006957
    23  H    0.000239  -0.007591  -0.000893  -0.017799   0.528837  -0.004225
    24  H   -0.000296  -0.000140  -0.000600  -0.006957  -0.004225   0.539564
    25  H    0.001277  -0.000850   0.002389  -0.000267   0.005765  -0.019604
    26  H    0.000012   0.000040   0.000113  -0.000290   0.000052  -0.011216
    27  H   -0.000012  -0.000593   0.002122   0.000117   0.001705   0.002549
    28  H   -0.000041   0.001204  -0.010555  -0.000185  -0.000021  -0.000217
    29  H   -0.000013  -0.000035   0.000665  -0.000026  -0.000055   0.000403
    30  H   -0.000000  -0.000008   0.000115  -0.000003  -0.000011   0.000001
    31  H   -0.000001   0.000001  -0.000067  -0.000002   0.000002   0.000016
    32  H    0.000000   0.000001  -0.000012   0.000001   0.000002  -0.000013
              25         26         27         28         29         30
     1  O   -0.000000   0.000000  -0.000032   0.000801  -0.000001  -0.000039
     2  C    0.000116  -0.000013   0.000186   0.001490   0.000263  -0.000204
     3  C    0.000109   0.000001   0.000044  -0.007737  -0.000063   0.000331
     4  C    0.000235  -0.000002  -0.000066   0.000981  -0.000183  -0.000055
     5  C    0.000395  -0.000153   0.001905  -0.003738   0.002034   0.000155
     6  C   -0.012591  -0.000011  -0.014307   0.000098  -0.003855  -0.000395
     7  C   -0.038676   0.004113   0.013398  -0.004281   0.003328   0.000186
     8  C    0.433653  -0.030480  -0.058662   0.005591  -0.009613  -0.000406
     9  C   -0.062680   0.415706   0.427291  -0.061558  -0.050978  -0.010070
    10  C   -0.000303  -0.045653  -0.045373   0.372405   0.438290  -0.026202
    11  C   -0.000008  -0.003808  -0.002715  -0.043291  -0.030868   0.413082
    12  O   -0.000012  -0.000027   0.000218   0.010552   0.000342   0.001449
    13  H   -0.000000   0.000000   0.000004  -0.000131  -0.000001   0.000030
    14  H    0.000001  -0.000000   0.000000   0.000229   0.000007  -0.000002
    15  H    0.000010  -0.000007   0.000004  -0.000361   0.000283   0.000028
    16  H   -0.000005  -0.000000   0.000002  -0.000147   0.000004   0.000001
    17  H   -0.000039  -0.000000  -0.000006   0.000059   0.000000   0.000000
    18  H   -0.007953  -0.000027  -0.000189  -0.001451  -0.000096   0.000011
    19  H    0.001277   0.000012  -0.000012  -0.000041  -0.000013  -0.000000
    20  H   -0.000850   0.000040  -0.000593   0.001204  -0.000035  -0.000008
    21  H    0.002389   0.000113   0.002122  -0.010555   0.000665   0.000115
    22  H   -0.000267  -0.000290   0.000117  -0.000185  -0.000026  -0.000003
    23  H    0.005765   0.000052   0.001705  -0.000021  -0.000055  -0.000011
    24  H   -0.019604  -0.011216   0.002549  -0.000217   0.000403   0.000001
    25  H    0.535154   0.000992   0.006547  -0.001897   0.002163  -0.000025
    26  H    0.000992   0.547307  -0.024666   0.009903  -0.005031   0.000472
    27  H    0.006547  -0.024666   0.534780  -0.006347   0.007462   0.003278
    28  H   -0.001897   0.009903  -0.006347   0.716709  -0.046264  -0.011287
    29  H    0.002163  -0.005031   0.007462  -0.046264   0.556337   0.007096
    30  H   -0.000025   0.000472   0.003278  -0.011287   0.007096   0.529885
    31  H    0.000005  -0.000206  -0.000084  -0.005648  -0.004790  -0.021686
    32  H    0.000035   0.003091  -0.000392   0.012237  -0.005475  -0.032235
              31         32
     1  O    0.000006   0.000000
     2  C    0.000046   0.000013
     3  C   -0.000104  -0.000011
     4  C    0.000012   0.000005
     5  C    0.000014  -0.000036
     6  C    0.000024   0.000035
     7  C   -0.000001  -0.000056
     8  C   -0.000653   0.000233
     9  C    0.012458  -0.004819
    10  C   -0.045654  -0.056704
    11  C    0.417604   0.422376
    12  O    0.000710   0.000141
    13  H   -0.000001  -0.000000
    14  H    0.000001  -0.000000
    15  H    0.000137  -0.000009
    16  H   -0.000000  -0.000000
    17  H    0.000000  -0.000000
    18  H   -0.000008  -0.000013
    19  H   -0.000001   0.000000
    20  H    0.000001   0.000001
    21  H   -0.000067  -0.000012
    22  H   -0.000002   0.000001
    23  H    0.000002   0.000002
    24  H    0.000016  -0.000013
    25  H    0.000005   0.000035
    26  H   -0.000206   0.003091
    27  H   -0.000084  -0.000392
    28  H   -0.005648   0.012237
    29  H   -0.004790  -0.005475
    30  H   -0.021686  -0.032235
    31  H    0.534206  -0.025578
    32  H   -0.025578   0.555040
 Mulliken charges:
               1
     1  O   -0.405617
     2  C    0.296437
     3  C   -0.308470
     4  C   -0.259012
     5  C   -0.329975
     6  C   -0.316338
     7  C   -0.294259
     8  C   -0.288200
     9  C   -0.291725
    10  C   -0.228899
    11  C   -0.414651
    12  O   -0.323901
    13  H    0.336674
    14  H    0.171584
    15  H    0.180981
    16  H    0.148693
    17  H    0.171675
    18  H    0.165477
    19  H    0.149729
    20  H    0.159289
    21  H    0.161587
    22  H    0.144766
    23  H    0.153255
    24  H    0.143759
    25  H    0.156062
    26  H    0.139786
    27  H    0.151832
    28  H    0.072899
    29  H    0.138668
    30  H    0.146507
    31  H    0.139241
    32  H    0.132145
 Sum of Mulliken charges =  -0.00000
 Mulliken charges with hydrogens summed into heavy atoms:
               1
     1  O   -0.068943
     2  C    0.296437
     3  C    0.044095
     4  C    0.061356
     5  C   -0.014769
     6  C    0.004538
     7  C    0.003763
     8  C    0.011622
     9  C   -0.000107
    10  C   -0.017333
    11  C    0.003241
    12  O   -0.323901
 Electronic spatial extent (au):  <R**2>=           2646.4086
 Charge=              0.0000 electrons
 Dipole moment (field-independent basis, Debye):
    X=             -1.1079    Y=             -1.5304    Z=              0.2027  Tot=              1.9002
 Quadrupole moment (field-independent basis, Debye-Ang):
   XX=            -75.1354   YY=            -82.4565   ZZ=            -72.5508
   XY=             -0.7993   XZ=             -0.0141   YZ=             -0.6428
 Traceless Quadrupole moment (field-independent basis, Debye-Ang):
   XX=              1.5788   YY=             -5.7422   ZZ=              4.1634
   XY=             -0.7993   XZ=             -0.0141   YZ=             -0.6428
 Octapole moment (field-independent basis, Debye-Ang**2):
  XXX=            -23.3844  YYY=             -8.5170  ZZZ=            -17.7103  XYY=             -7.0621
  XXY=              8.6376  XXZ=             -1.7641  XZZ=            -20.8067  YZZ=              8.2164
  YYZ=             -0.5197  XYZ=              4.8484
 Hexadecapole moment (field-independent basis, Debye-Ang**3):
 XXXX=          -1961.3717 YYYY=          -1225.5168 ZZZZ=           -383.8356 XXXY=            -42.0832
 XXXZ=             10.2290 YYYX=             -9.2844 YYYZ=             -2.5659 ZZZX=             47.0209
 ZZZY=            -21.0470 XXYY=           -527.0126 XXZZ=           -365.7437 YYZZ=           -264.4379
 XXYZ=            -13.6511 YYXZ=              8.0443 ZZXY=            -20.2502
 N-N= 7.681864792748D+02 E-N=-2.801467382446D+03  KE= 5.405721196774D+02
 Unable to Open any file for archive entry.
 1\1\GINC-NOTCH209\SP\RM062X\def2TZVP\C10H20O2\U6032257\05-Feb-2022\0\\
 # M062X/def2tzvp int=(grid=ultrafine) nmr=giao guess=read geom=check\\
 Ac1.xyz\\0,1\O,0,4.6863594973,-0.2039291953,-0.5673669661\C,0,4.929457
 6787,-1.2996471769,-1.3297406239\C,0,4.7938488105,-2.5777759266,-0.537
 1717538\C,0,3.4464324893,-2.7587582001,0.1885641991\C,0,2.2485262132,-
 3.0240435349,-0.7343512711\C,0,1.7972094594,-1.8230648631,-1.574259870
 5\C,0,0.5486137603,-2.0994488128,-2.4229137433\C,0,0.7125765931,-3.135
 7958773,-3.5482278056\C,0,1.7816713818,-2.7833639065,-4.603323638\C,0,
 3.1674764543,-3.3907244678,-4.3485077348\C,0,4.2057080698,-2.956124031
 1,-5.3828333469\O,0,5.2346870026,-1.2142384646,-2.5005291947\H,0,4.797
 7042665,0.5604782307,-1.1572450524\H,0,5.5989620955,-2.5709702045,0.20
 78434594\H,0,4.9838572098,-3.4046591924,-1.2254852112\H,0,3.5583912626
 ,-3.6076484025,0.8724966727\H,0,3.2548948811,-1.8781926023,0.811691833
 \H,0,2.487527846,-3.8709114819,-1.3892327167\H,0,1.4020386533,-3.35037
 24128,-0.1157483757\H,0,1.5903548891,-0.9824121027,-0.899377145\H,0,2.
 6043970773,-1.4900231417,-2.2332233006\H,0,-0.2681039922,-2.4195312148
 ,-1.7614427384\H,0,0.2210756671,-1.1541435913,-2.8752322931\H,0,-0.261
 9389186,-3.2377085897,-4.0404493228\H,0,0.9320674612,-4.1240924126,-3.
 1235954124\H,0,1.4419584002,-3.1201661513,-5.5912038645\H,0,1.87298033
 26,-1.6904877426,-4.6787345939\H,0,3.5306193965,-3.1071325086,-3.35745
 25164\H,0,3.0762408144,-4.4856815135,-4.3452793848\H,0,4.3625244075,-1
 .8736954195,-5.339446589\H,0,5.1735273622,-3.4325548211,-5.1997556191\
 H,0,3.8881534774,-3.2136802678,-6.4000660792\\Version=ES64L-G16RevC.01
 \State=1-A\HF=-543.5406671\RMSD=2.547e-09\Dipole=-0.2285192,0.0017043,
 0.7118256\Quadrupole=-1.8935044,2.9653773,-1.0718729,-0.337592,2.85159
 5,-0.4061041\PG=C01 [X(C10H20O2)]\\@
 The archive entry for this job was punched.


 OUR LITTLE SYSTEMS HAVE THEIR DAY,    
   THEY HAVE THEIR DAY AND CEASE TO BE.
   THEY ARE BUT BROKEN LIGHTS OF THEE, 
 AND THOU, OH LORD, ART MORE THAN THEY.
          -------------------          
 LET KNOWLEDGE GROW FROM MORE TO MORE, 
   BUT MORE OF REVERENCE IN US DWELL.  
   THAT MIND AND SOUL, ACCORDING WELL, 
 MAY MAKE ONE MUSIC AS BEFORE.....     
          -------------------          
                    LORD TENNYSON      
 Job cpu time:       0 days  0 hours 50 minutes 53.0 seconds.
 Elapsed time:       0 days  0 hours  1 minutes 10.9 seconds.
 File lengths (MBytes):  RWF=    140 Int=      0 D2E=      0 Chk=     24 Scr=      1
 Normal termination of Gaussian 16 at Sat Feb  5 09:06:44 2022.
