 Entering Gaussian System, Link 0=/uufs/chpc.utah.edu/sys/installdir/gaussian16/C01/AVX2/g16/g16
 Input=Ac1_clust-32.com
 Output=Ac1_clust-32.log
 Initial command:
 /uufs/chpc.utah.edu/sys/installdir/gaussian16/C01/AVX2/g16/l1.exe "/scratch/general/lustre/u6032257/3857489/notchpeak.peaks/Gau-6331.inp" -scrdir="/scratch/general/lustre/u6032257/3857489/notchpeak.peaks/"
 Entering Link 1 = /uufs/chpc.utah.edu/sys/installdir/gaussian16/C01/AVX2/g16/l1.exe PID=      6333.
  
 Copyright (c) 1988-2019, Gaussian, Inc.  All Rights Reserved.
  
 This is part of the Gaussian(R) 16 program.  It is based on
 the Gaussian(R) 09 system (copyright 2009, Gaussian, Inc.),
 the Gaussian(R) 03 system (copyright 2003, Gaussian, Inc.),
 the Gaussian(R) 98 system (copyright 1998, Gaussian, Inc.),
 the Gaussian(R) 94 system (copyright 1995, Gaussian, Inc.),
 the Gaussian 92(TM) system (copyright 1992, Gaussian, Inc.),
 the Gaussian 90(TM) system (copyright 1990, Gaussian, Inc.),
 the Gaussian 88(TM) system (copyright 1988, Gaussian, Inc.),
 the Gaussian 86(TM) system (copyright 1986, Carnegie Mellon
 University), and the Gaussian 82(TM) system (copyright 1983,
 Carnegie Mellon University). Gaussian is a federally registered
 trademark of Gaussian, Inc.
  
 This software contains proprietary and confidential information,
 including trade secrets, belonging to Gaussian, Inc.
  
 This software is provided under written license and may be
 used, copied, transmitted, or stored only in accord with that
 written license.
  
 The following legend is applicable only to US Government
 contracts under FAR:
  
                    RESTRICTED RIGHTS LEGEND
  
 Use, reproduction and disclosure by the US Government is
 subject to restrictions as set forth in subparagraphs (a)
 and (c) of the Commercial Computer Software - Restricted
 Rights clause in FAR 52.227-19.
  
 Gaussian, Inc.
 340 Quinnipiac St., Bldg. 40, Wallingford CT 06492
  
  
 ---------------------------------------------------------------
 Warning -- This program may not be used in any manner that
 competes with the business of Gaussian, Inc. or will provide
 assistance to any competitor of Gaussian, Inc.  The licensee
 of this program is prohibited from giving any competitor of
 Gaussian, Inc. access to this program.  By using this program,
 the user acknowledges that Gaussian, Inc. is engaged in the
 business of creating and licensing software in the field of
 computational chemistry and represents and warrants to the
 licensee that it is not a competitor of Gaussian, Inc. and that
 it will not use this program in any manner prohibited above.
 ---------------------------------------------------------------
  

 Cite this work as:
 Gaussian 16, Revision C.01,
 M. J. Frisch, G. W. Trucks, H. B. Schlegel, G. E. Scuseria, 
 M. A. Robb, J. R. Cheeseman, G. Scalmani, V. Barone, 
 G. A. Petersson, H. Nakatsuji, X. Li, M. Caricato, A. V. Marenich, 
 J. Bloino, B. G. Janesko, R. Gomperts, B. Mennucci, H. P. Hratchian, 
 J. V. Ortiz, A. F. Izmaylov, J. L. Sonnenberg, D. Williams-Young, 
 F. Ding, F. Lipparini, F. Egidi, J. Goings, B. Peng, A. Petrone, 
 T. Henderson, D. Ranasinghe, V. G. Zakrzewski, J. Gao, N. Rega, 
 G. Zheng, W. Liang, M. Hada, M. Ehara, K. Toyota, R. Fukuda, 
 J. Hasegawa, M. Ishida, T. Nakajima, Y. Honda, O. Kitao, H. Nakai, 
 T. Vreven, K. Throssell, J. A. Montgomery, Jr., J. E. Peralta, 
 F. Ogliaro, M. J. Bearpark, J. J. Heyd, E. N. Brothers, K. N. Kudin, 
 V. N. Staroverov, T. A. Keith, R. Kobayashi, J. Normand, 
 K. Raghavachari, A. P. Rendell, J. C. Burant, S. S. Iyengar, 
 J. Tomasi, M. Cossi, J. M. Millam, M. Klene, C. Adamo, R. Cammi, 
 J. W. Ochterski, R. L. Martin, K. Morokuma, O. Farkas, 
 J. B. Foresman, and D. J. Fox, Gaussian, Inc., Wallingford CT, 2019.
 
 ******************************************
 Gaussian 16:  ES64L-G16RevC.01  3-Jul-2019
                 3-Feb-2022 
 ******************************************
 %NProcShared=32
 Will use up to   32 processors via shared memory.
 %mem=16GB
 %chk=Ac1_clust-32.chk
 ----------------------------------------------------------------------
 # B3LYP/6-31G(d,p) empiricaldispersion=GD3BJ int=(grid=ultrafine) opt 
 freq=noraman
 ----------------------------------------------------------------------
 1/18=20,19=15,26=4,38=1/1,3;
 2/9=110,12=2,17=6,18=5,40=1/2;
 3/5=1,6=6,7=101,11=2,25=1,30=1,71=1,74=-5,75=-5,124=41/1,2,3;
 4//1;
 5/5=2,38=5/2;
 6/7=2,8=2,9=2,10=2,28=1/1;
 7//1,2,3,16;
 1/18=20,19=15,26=4/3(2);
 2/9=110/2;
 99//99;
 2/9=110/2;
 3/5=1,6=6,7=101,11=2,25=1,30=1,71=1,74=-5,75=-5,124=41/1,2,3;
 4/5=5,16=3,69=1/1;
 5/5=2,38=5/2;
 7//1,2,3,16;
 1/18=20,19=15,26=4/3(-5);
 2/9=110/2;
 6/7=2,8=2,9=2,10=2,19=2,28=1/1;
 99/9=1/99;
 -------
 Ac1.xyz
 -------
 Symbolic Z-matrix:
 Charge =  0 Multiplicity = 1
 O                     5.6692   -0.2956    0.8721 
 C                     4.6452   -0.3667   -0.0043 
 C                     3.5018   -1.2301    0.5301 
 C                     2.3793   -1.5753   -0.4851 
 C                     2.6357   -2.8282   -1.3512 
 C                     3.7975   -2.6946   -2.3577 
 C                     3.9299   -3.8855   -3.3329 
 C                     3.2271   -3.706    -4.6958 
 C                     1.6961   -3.5605   -4.626 
 C                     1.0356   -3.5442   -6.0151 
 C                    -0.4898   -3.3875   -5.9432 
 O                     4.6461    0.2167   -1.0793 
 H                     6.3089    0.2687    0.4367 
 H                     3.0719   -0.6438    1.3416 
 H                     3.9099   -2.1358    0.9784 
 H                     1.4606   -1.7518    0.0774 
 H                     2.1533   -0.7195   -1.1261 
 H                     2.8156   -3.6877   -0.7033 
 H                     1.7154   -3.0618   -1.8855 
 H                     3.7096   -1.7611   -2.917 
 H                     4.729    -2.6079   -1.7972 
 H                     4.9913   -4.0434   -3.5329 
 H                     3.5935   -4.8074   -2.8554 
 H                     3.4727   -4.5662   -5.3211 
 H                     3.65     -2.8401   -5.2086 
 H                     1.2782   -4.3765   -4.0338 
 H                     1.4435   -2.6362   -4.1046 
 H                     1.4527   -2.7299   -6.6103 
 H                     1.277    -4.4651   -6.5488 
 H                    -0.9292   -3.3789   -6.9412 
 H                    -0.9475   -4.2075   -5.3886 
 H                    -0.7701   -2.4548   -5.452 
 

 GradGradGradGradGradGradGradGradGradGradGradGradGradGradGradGradGradGrad
 Berny optimization.
 Initialization pass.
                           ----------------------------
                           !    Initial Parameters    !
                           ! (Angstroms and Degrees)  !
 --------------------------                            --------------------------
 ! Name  Definition              Value          Derivative Info.                !
 --------------------------------------------------------------------------------
 ! R1    R(1,2)                  1.3497         estimate D2E/DX2                !
 ! R2    R(1,13)                 0.9577         estimate D2E/DX2                !
 ! R3    R(2,3)                  1.5292         estimate D2E/DX2                !
 ! R4    R(2,12)                 1.2231         estimate D2E/DX2                !
 ! R5    R(3,4)                  1.5524         estimate D2E/DX2                !
 ! R6    R(3,14)                 1.0895         estimate D2E/DX2                !
 ! R7    R(3,15)                 1.0899         estimate D2E/DX2                !
 ! R8    R(4,5)                  1.5445         estimate D2E/DX2                !
 ! R9    R(4,16)                 1.0916         estimate D2E/DX2                !
 ! R10   R(4,17)                 1.0929         estimate D2E/DX2                !
 ! R11   R(5,6)                  1.5429         estimate D2E/DX2                !
 ! R12   R(5,18)                 1.0913         estimate D2E/DX2                !
 ! R13   R(5,19)                 1.0895         estimate D2E/DX2                !
 ! R14   R(6,7)                  1.5449         estimate D2E/DX2                !
 ! R15   R(6,20)                 1.0918         estimate D2E/DX2                !
 ! R16   R(6,21)                 1.0906         estimate D2E/DX2                !
 ! R17   R(7,8)                  1.5439         estimate D2E/DX2                !
 ! R18   R(7,22)                 1.0916         estimate D2E/DX2                !
 ! R19   R(7,23)                 1.0914         estimate D2E/DX2                !
 ! R20   R(8,9)                  1.5395         estimate D2E/DX2                !
 ! R21   R(8,24)                 1.0915         estimate D2E/DX2                !
 ! R22   R(8,25)                 1.0916         estimate D2E/DX2                !
 ! R23   R(9,10)                 1.5382         estimate D2E/DX2                !
 ! R24   R(9,26)                 1.0914         estimate D2E/DX2                !
 ! R25   R(9,27)                 1.0909         estimate D2E/DX2                !
 ! R26   R(10,11)                1.5351         estimate D2E/DX2                !
 ! R27   R(10,28)                1.0915         estimate D2E/DX2                !
 ! R28   R(10,29)                1.0914         estimate D2E/DX2                !
 ! R29   R(11,30)                1.0905         estimate D2E/DX2                !
 ! R30   R(11,31)                1.0906         estimate D2E/DX2                !
 ! R31   R(11,32)                1.0908         estimate D2E/DX2                !
 ! A1    A(2,1,13)             104.0399         estimate D2E/DX2                !
 ! A2    A(1,2,3)              111.7222         estimate D2E/DX2                !
 ! A3    A(1,2,12)             123.0257         estimate D2E/DX2                !
 ! A4    A(3,2,12)             125.2407         estimate D2E/DX2                !
 ! A5    A(2,3,4)              115.9562         estimate D2E/DX2                !
 ! A6    A(2,3,14)             104.5654         estimate D2E/DX2                !
 ! A7    A(2,3,15)             109.4492         estimate D2E/DX2                !
 ! A8    A(4,3,14)             108.7499         estimate D2E/DX2                !
 ! A9    A(4,3,15)             110.7916         estimate D2E/DX2                !
 ! A10   A(14,3,15)            106.7721         estimate D2E/DX2                !
 ! A11   A(3,4,5)              115.2812         estimate D2E/DX2                !
 ! A12   A(3,4,16)             107.9104         estimate D2E/DX2                !
 ! A13   A(3,4,17)             111.0373         estimate D2E/DX2                !
 ! A14   A(5,4,16)             107.3079         estimate D2E/DX2                !
 ! A15   A(5,4,17)             109.9164         estimate D2E/DX2                !
 ! A16   A(16,4,17)            104.7627         estimate D2E/DX2                !
 ! A17   A(4,5,6)              114.8692         estimate D2E/DX2                !
 ! A18   A(4,5,18)             109.4714         estimate D2E/DX2                !
 ! A19   A(4,5,19)             107.9808         estimate D2E/DX2                !
 ! A20   A(6,5,18)             109.3513         estimate D2E/DX2                !
 ! A21   A(6,5,19)             109.5543         estimate D2E/DX2                !
 ! A22   A(18,5,19)            105.1615         estimate D2E/DX2                !
 ! A23   A(5,6,7)              114.1766         estimate D2E/DX2                !
 ! A24   A(5,6,20)             110.34           estimate D2E/DX2                !
 ! A25   A(5,6,21)             108.3466         estimate D2E/DX2                !
 ! A26   A(7,6,20)             110.0371         estimate D2E/DX2                !
 ! A27   A(7,6,21)             108.2099         estimate D2E/DX2                !
 ! A28   A(20,6,21)            105.3123         estimate D2E/DX2                !
 ! A29   A(6,7,8)              115.3782         estimate D2E/DX2                !
 ! A30   A(6,7,22)             108.0891         estimate D2E/DX2                !
 ! A31   A(6,7,23)             110.3991         estimate D2E/DX2                !
 ! A32   A(8,7,22)             107.3199         estimate D2E/DX2                !
 ! A33   A(8,7,23)             110.1286         estimate D2E/DX2                !
 ! A34   A(22,7,23)            104.9333         estimate D2E/DX2                !
 ! A35   A(7,8,9)              115.0662         estimate D2E/DX2                !
 ! A36   A(7,8,24)             108.1604         estimate D2E/DX2                !
 ! A37   A(7,8,25)             109.3031         estimate D2E/DX2                !
 ! A38   A(9,8,24)             108.9199         estimate D2E/DX2                !
 ! A39   A(9,8,25)             109.3663         estimate D2E/DX2                !
 ! A40   A(24,8,25)            105.5965         estimate D2E/DX2                !
 ! A41   A(8,9,10)             112.7731         estimate D2E/DX2                !
 ! A42   A(8,9,26)             109.5558         estimate D2E/DX2                !
 ! A43   A(8,9,27)             109.3923         estimate D2E/DX2                !
 ! A44   A(10,9,26)            109.4816         estimate D2E/DX2                !
 ! A45   A(10,9,27)            108.858          estimate D2E/DX2                !
 ! A46   A(26,9,27)            106.5877         estimate D2E/DX2                !
 ! A47   A(9,10,11)            112.6723         estimate D2E/DX2                !
 ! A48   A(9,10,28)            109.6497         estimate D2E/DX2                !
 ! A49   A(9,10,29)            109.7357         estimate D2E/DX2                !
 ! A50   A(11,10,28)           109.2148         estimate D2E/DX2                !
 ! A51   A(11,10,29)           109.197          estimate D2E/DX2                !
 ! A52   A(28,10,29)           106.1598         estimate D2E/DX2                !
 ! A53   A(10,11,30)           110.9978         estimate D2E/DX2                !
 ! A54   A(10,11,31)           111.351          estimate D2E/DX2                !
 ! A55   A(10,11,32)           111.3292         estimate D2E/DX2                !
 ! A56   A(30,11,31)           107.5908         estimate D2E/DX2                !
 ! A57   A(30,11,32)           107.5684         estimate D2E/DX2                !
 ! A58   A(31,11,32)           107.8222         estimate D2E/DX2                !
 ! D1    D(13,1,2,3)          -179.4737         estimate D2E/DX2                !
 ! D2    D(13,1,2,12)           -0.6426         estimate D2E/DX2                !
 ! D3    D(1,2,3,4)           -170.15           estimate D2E/DX2                !
 ! D4    D(1,2,3,14)            70.1238         estimate D2E/DX2                !
 ! D5    D(1,2,3,15)           -43.9519         estimate D2E/DX2                !
 ! D6    D(12,2,3,4)            11.0499         estimate D2E/DX2                !
 ! D7    D(12,2,3,14)         -108.6762         estimate D2E/DX2                !
 ! D8    D(12,2,3,15)          137.248          estimate D2E/DX2                !
 ! D9    D(2,3,4,5)             86.5446         estimate D2E/DX2                !
 ! D10   D(2,3,4,16)          -153.5601         estimate D2E/DX2                !
 ! D11   D(2,3,4,17)           -39.2785         estimate D2E/DX2                !
 ! D12   D(14,3,4,5)          -156.0286         estimate D2E/DX2                !
 ! D13   D(14,3,4,16)          -36.1333         estimate D2E/DX2                !
 ! D14   D(14,3,4,17)           78.1483         estimate D2E/DX2                !
 ! D15   D(15,3,4,5)           -38.973          estimate D2E/DX2                !
 ! D16   D(15,3,4,16)           80.9223         estimate D2E/DX2                !
 ! D17   D(15,3,4,17)         -164.7961         estimate D2E/DX2                !
 ! D18   D(3,4,5,6)            -67.2896         estimate D2E/DX2                !
 ! D19   D(3,4,5,18)            56.1643         estimate D2E/DX2                !
 ! D20   D(3,4,5,19)           170.143          estimate D2E/DX2                !
 ! D21   D(16,4,5,6)           172.4846         estimate D2E/DX2                !
 ! D22   D(16,4,5,18)          -64.0615         estimate D2E/DX2                !
 ! D23   D(16,4,5,19)           49.9172         estimate D2E/DX2                !
 ! D24   D(17,4,5,6)            59.1073         estimate D2E/DX2                !
 ! D25   D(17,4,5,18)         -177.4388         estimate D2E/DX2                !
 ! D26   D(17,4,5,19)          -63.4601         estimate D2E/DX2                !
 ! D27   D(4,5,6,7)           -172.8434         estimate D2E/DX2                !
 ! D28   D(4,5,6,20)           -48.3044         estimate D2E/DX2                !
 ! D29   D(4,5,6,21)            66.5086         estimate D2E/DX2                !
 ! D30   D(18,5,6,7)            63.6387         estimate D2E/DX2                !
 ! D31   D(18,5,6,20)         -171.8224         estimate D2E/DX2                !
 ! D32   D(18,5,6,21)          -57.0094         estimate D2E/DX2                !
 ! D33   D(19,5,6,7)           -51.127          estimate D2E/DX2                !
 ! D34   D(19,5,6,20)           73.4119         estimate D2E/DX2                !
 ! D35   D(19,5,6,21)         -171.7751         estimate D2E/DX2                !
 ! D36   D(5,6,7,8)             94.7059         estimate D2E/DX2                !
 ! D37   D(5,6,7,22)          -145.1892         estimate D2E/DX2                !
 ! D38   D(5,6,7,23)           -30.9403         estimate D2E/DX2                !
 ! D39   D(20,6,7,8)           -29.9943         estimate D2E/DX2                !
 ! D40   D(20,6,7,22)           90.1106         estimate D2E/DX2                !
 ! D41   D(20,6,7,23)         -155.6405         estimate D2E/DX2                !
 ! D42   D(21,6,7,8)          -144.57           estimate D2E/DX2                !
 ! D43   D(21,6,7,22)          -24.465          estimate D2E/DX2                !
 ! D44   D(21,6,7,23)           89.7839         estimate D2E/DX2                !
 ! D45   D(6,7,8,9)            -63.2564         estimate D2E/DX2                !
 ! D46   D(6,7,8,24)           174.7285         estimate D2E/DX2                !
 ! D47   D(6,7,8,25)            60.2281         estimate D2E/DX2                !
 ! D48   D(22,7,8,9)           176.2187         estimate D2E/DX2                !
 ! D49   D(22,7,8,24)           54.2037         estimate D2E/DX2                !
 ! D50   D(22,7,8,25)          -60.2968         estimate D2E/DX2                !
 ! D51   D(23,7,8,9)            62.5287         estimate D2E/DX2                !
 ! D52   D(23,7,8,24)          -59.4864         estimate D2E/DX2                !
 ! D53   D(23,7,8,25)         -173.9869         estimate D2E/DX2                !
 ! D54   D(7,8,9,10)          -173.5289         estimate D2E/DX2                !
 ! D55   D(7,8,9,26)           -51.3228         estimate D2E/DX2                !
 ! D56   D(7,8,9,27)            65.1784         estimate D2E/DX2                !
 ! D57   D(24,8,9,10)          -51.9245         estimate D2E/DX2                !
 ! D58   D(24,8,9,26)           70.2816         estimate D2E/DX2                !
 ! D59   D(24,8,9,27)         -173.2172         estimate D2E/DX2                !
 ! D60   D(25,8,9,10)           63.0202         estimate D2E/DX2                !
 ! D61   D(25,8,9,26)         -174.7737         estimate D2E/DX2                !
 ! D62   D(25,8,9,27)          -58.2725         estimate D2E/DX2                !
 ! D63   D(8,9,10,11)         -179.5309         estimate D2E/DX2                !
 ! D64   D(8,9,10,28)          -57.668          estimate D2E/DX2                !
 ! D65   D(8,9,10,29)           58.5677         estimate D2E/DX2                !
 ! D66   D(26,9,10,11)          58.2213         estimate D2E/DX2                !
 ! D67   D(26,9,10,28)        -179.9158         estimate D2E/DX2                !
 ! D68   D(26,9,10,29)         -63.6801         estimate D2E/DX2                !
 ! D69   D(27,9,10,11)         -57.9351         estimate D2E/DX2                !
 ! D70   D(27,9,10,28)          63.9277         estimate D2E/DX2                !
 ! D71   D(27,9,10,29)        -179.8366         estimate D2E/DX2                !
 ! D72   D(9,10,11,30)         179.9755         estimate D2E/DX2                !
 ! D73   D(9,10,11,31)         -60.1828         estimate D2E/DX2                !
 ! D74   D(9,10,11,32)          60.1765         estimate D2E/DX2                !
 ! D75   D(28,10,11,30)         57.867          estimate D2E/DX2                !
 ! D76   D(28,10,11,31)        177.7088         estimate D2E/DX2                !
 ! D77   D(28,10,11,32)        -61.932          estimate D2E/DX2                !
 ! D78   D(29,10,11,30)        -57.819          estimate D2E/DX2                !
 ! D79   D(29,10,11,31)         62.0227         estimate D2E/DX2                !
 ! D80   D(29,10,11,32)       -177.618          estimate D2E/DX2                !
 --------------------------------------------------------------------------------
 Trust Radius=3.00D-01 FncErr=1.00D-07 GrdErr=1.00D-06 EigMax=2.50D+02 EigMin=1.00D-04
 Number of steps in this run=    179 maximum allowed number of steps=    192.
 GradGradGradGradGradGradGradGradGradGradGradGradGradGradGradGradGradGrad

                          Input orientation:                          
 ---------------------------------------------------------------------
 Center     Atomic      Atomic             Coordinates (Angstroms)
 Number     Number       Type             X           Y           Z
 ---------------------------------------------------------------------
      1          8           0        5.669200   -0.295600    0.872100
      2          6           0        4.645200   -0.366700   -0.004300
      3          6           0        3.501800   -1.230100    0.530100
      4          6           0        2.379300   -1.575300   -0.485100
      5          6           0        2.635700   -2.828200   -1.351200
      6          6           0        3.797500   -2.694600   -2.357700
      7          6           0        3.929900   -3.885500   -3.332900
      8          6           0        3.227100   -3.706000   -4.695800
      9          6           0        1.696100   -3.560500   -4.626000
     10          6           0        1.035600   -3.544200   -6.015100
     11          6           0       -0.489800   -3.387500   -5.943200
     12          8           0        4.646100    0.216700   -1.079300
     13          1           0        6.308900    0.268700    0.436700
     14          1           0        3.071900   -0.643800    1.341600
     15          1           0        3.909900   -2.135800    0.978400
     16          1           0        1.460600   -1.751800    0.077400
     17          1           0        2.153300   -0.719500   -1.126100
     18          1           0        2.815600   -3.687700   -0.703300
     19          1           0        1.715400   -3.061800   -1.885500
     20          1           0        3.709600   -1.761100   -2.917000
     21          1           0        4.729000   -2.607900   -1.797200
     22          1           0        4.991300   -4.043400   -3.532900
     23          1           0        3.593500   -4.807400   -2.855400
     24          1           0        3.472700   -4.566200   -5.321100
     25          1           0        3.650000   -2.840100   -5.208600
     26          1           0        1.278200   -4.376500   -4.033800
     27          1           0        1.443500   -2.636200   -4.104600
     28          1           0        1.452700   -2.729900   -6.610300
     29          1           0        1.277000   -4.465100   -6.548800
     30          1           0       -0.929200   -3.378900   -6.941200
     31          1           0       -0.947500   -4.207500   -5.388600
     32          1           0       -0.770100   -2.454800   -5.452000
 ---------------------------------------------------------------------
                    Distance matrix (angstroms):
                    1          2          3          4          5
     1  O    0.000000
     2  C    1.349707   0.000000
     3  C    2.384927   1.529185   0.000000
     4  C    3.781939   2.612697   1.552353   0.000000
     5  C    4.534231   3.451262   2.615978   1.544548   0.000000
     6  C    4.437349   3.417046   3.251398   2.602067   1.542942
     7  C    5.796082   4.896242   4.707142   3.981375   2.592291
     8  C    6.971097   5.930607   5.789263   4.794647   3.508082
     9  C    7.528227   6.344892   5.939418   4.642718   3.484742
    10  C    8.913875   7.697755   7.367282   6.021877   4.982463
    11  C    9.692339   8.412134   7.905116   6.427026   5.582834
    12  O    2.262111   1.223103   2.448024   2.950037   3.658832
    13  H    0.957718   1.834697   3.183541   4.437545   5.126380
    14  H    2.662262   2.088900   1.089538   2.164306   3.494717
    15  H    2.548092   2.153156   1.089867   2.190600   2.744092
    16  H    4.523757   3.473738   2.154903   1.091590   2.140186
    17  H    4.066208   2.755443   2.195942   1.092864   2.174855
    18  H    4.704387   3.855526   2.834068   2.167995   1.091274
    19  H    5.557765   4.402977   3.518732   2.147456   1.089494
    20  H    4.510543   3.362071   3.493943   2.778193   2.178002
    21  H    3.654568   2.871322   2.969963   2.882527   2.151593
    22  H    5.823193   5.107732   5.161515   4.712021   3.432984
    23  H    6.209600   5.380954   4.926164   4.187968   2.664063
    24  H    7.836987   6.875967   6.735499   5.790328   4.413765
    25  H    6.893951   5.847467   5.962109   5.052311   3.988544
    26  H    7.746127   6.606970   5.972722   4.653215   3.381772
    27  H    6.935596   5.675735   5.262524   3.886131   3.006562
    28  H    8.926981   7.708178   7.578491   6.301568   5.391408
    29  H    9.578408   8.424496   8.094800   6.806943   5.616098
    30  H   10.681446   9.395098   8.948264   7.475318   6.652810
    31  H    9.913629   8.661450   7.980739   6.483856   5.571570
    32  H    9.280138   7.960092   7.452150   5.946624   5.343731
                    6          7          8          9         10
     6  C    0.000000
     7  C    1.544923   0.000000
     8  C    2.610555   1.543906   0.000000
     9  C    3.211051   2.601460   1.539482   0.000000
    10  C    4.661168   3.960764   2.563085   1.538221   0.000000
    11  C    5.631773   5.157075   3.933547   2.557949   1.535112
    12  O    3.290911   4.734945   5.520888   5.962283   7.179290
    13  H    4.785076   6.093185   7.185979   7.846759   9.163603
    14  H    4.291514   5.752889   6.771363   6.783230   8.165774
    15  H    3.384443   4.652866   5.926912   6.191929   7.691179
    16  H    3.504238   4.720197   5.451867   5.044683   6.364894
    17  H    2.849781   4.248509   4.776504   4.530962   5.755910
    18  H    2.165044   2.862793   4.013692   4.081303   5.603946
    19  H    2.166322   2.770823   3.255460   2.785573   4.212889
    20  H    1.091772   2.175909   2.679472   3.195732   4.464073
    21  H    1.090582   2.151557   3.444330   4.255354   5.684060
    22  H    2.150701   1.091560   2.139761   3.505197   4.696603
    23  H    2.180194   1.091362   2.175868   2.879221   4.257021
    24  H    3.519960   2.150657   1.091450   2.156595   2.732321
    25  H    2.858419   2.165515   1.091600   2.162435   2.825117
    26  H    3.461932   2.786369   2.164723   1.091420   2.162667
    27  H    2.931959   2.887639   2.162225   1.090869   2.154265
    28  H    4.856330   4.267702   2.786858   2.164853   1.091476
    29  H    5.201241   4.209017   2.795126   2.165896   1.091406
    30  H    6.619549   6.073494   4.735361   3.505043   2.178399
    31  H    5.830115   5.302699   4.261310   2.826445   2.182923
    32  H    5.522243   5.350466   4.256166   2.826126   2.182757
                   11         12         13         14         15
    11  C    0.000000
    12  O    7.938844   0.000000
    13  H   10.014651   2.250747   0.000000
    14  H    8.560485   3.013191   3.482767   0.000000
    15  H    8.296545   3.210977   3.439515   1.749349   0.000000
    16  H    6.536605   3.919229   5.264744   2.328552   2.637864
    17  H    6.108081   2.663215   4.548395   2.634217   3.085526
    18  H    6.202608   4.328562   5.399615   3.675953   2.536533
    19  H    4.629678   4.470741   6.130668   4.254526   3.724947
    20  H    5.425682   2.857598   4.703589   4.448673   3.918502
    21  H    6.710661   2.915582   3.970040   4.056567   2.932193
    22  H    6.023471   4.928262   6.007329   6.245168   5.015994
    23  H    5.312623   5.431766   6.631599   5.934850   4.683543
    24  H    4.180640   6.499682   8.035705   7.741927   6.766217
    25  H    4.239956   5.233293   6.971642   6.932752   6.232380
    26  H    2.783838   6.416331   8.177481   6.785671   6.088409
    27  H    2.771741   5.248631   7.261816   6.023491   5.671897
    28  H    2.156564   7.033649   9.068323   8.378922   7.998697
    29  H    2.156283   7.948932   9.824769   8.948878   8.307619
    30  H    1.090482   8.852919  10.960314   9.596580   9.363880
    31  H    1.090628   8.332585  10.325978   8.611105   8.271938
    32  H    1.090768   7.456047   9.602421   8.012096   7.959535
                   16         17         18         19         20
    16  H    0.000000
    17  H    1.730286   0.000000
    18  H    2.488619   3.070442   0.000000
    19  H    2.373605   2.500963   1.731990   0.000000
    20  H    3.744932   2.591201   3.067815   2.594734   0.000000
    21  H    3.863867   3.263535   2.454320   3.048870   1.734992
    22  H    5.545407   4.989513   3.587036   3.795917   2.689048
    23  H    4.742074   4.666431   2.547625   2.741366   3.049134
    24  H    6.411957   5.842597   4.746327   4.141820   3.701946
    25  H    5.824059   4.837754   4.659654   3.851600   2.533619
    26  H    4.881013   4.753332   3.732328   2.556320   3.741559
    27  H    4.274527   3.612342   3.815384   2.275845   2.703961
    28  H    6.758851   5.882941   6.137388   4.743723   4.435385
    29  H    7.162558   6.648541   6.094384   4.889562   5.139954
    30  H    7.590741   7.098563   7.282189   5.714417   6.350585
    31  H    6.458062   6.320602   6.031845   4.547018   5.812251
    32  H    6.003707   5.501904   6.076795   4.389314   5.193761
                   21         22         23         24         25
    21  H    0.000000
    22  H    2.267623   0.000000
    23  H    2.692016   1.731054   0.000000
    24  H    4.222689   2.403565   2.480413   0.000000
    25  H    3.585500   2.460688   3.067737   1.738825   0.000000
    26  H    4.476421   3.761511   2.633423   2.551266   3.060411
    27  H    4.014898   3.859266   3.301077   3.053265   2.475688
    28  H    5.823655   4.870048   4.795655   3.019012   2.608646
    29  H    6.159805   4.803073   4.373162   2.517651   3.172994
    30  H    7.685727   6.863701   6.260127   4.838505   4.925574
    31  H    6.905036   6.224138   5.234278   4.435244   4.799916
    32  H    6.604627   6.276968   5.596254   4.740938   4.443533
                   26         27         28         29         30
    26  H    0.000000
    27  H    1.749566   0.000000
    28  H    3.062694   2.507468   0.000000
    29  H    2.516560   3.057239   1.745157   0.000000
    30  H    3.784283   3.771950   2.490812   2.490206   0.000000
    31  H    2.611089   3.136004   3.071940   2.522067   1.759966
    32  H    3.146388   2.597772   2.521543   3.071627   1.759827
                   31         32
    31  H    0.000000
    32  H    1.762795   0.000000
 Stoichiometry    C10H20O2
 Framework group  C1[X(C10H20O2)]
 Deg. of freedom    90
 Full point group                 C1      NOp   1
 Largest Abelian subgroup         C1      NOp   1
 Largest concise Abelian subgroup C1      NOp   1
                         Standard orientation:                         
 ---------------------------------------------------------------------
 Center     Atomic      Atomic             Coordinates (Angstroms)
 Number     Number       Type             X           Y           Z
 ---------------------------------------------------------------------
      1          8           0        4.644299    0.462752    0.245594
      2          6           0        3.445668   -0.089799    0.527871
      3          6           0        2.953120   -0.985010   -0.609846
      4          6           0        1.486375   -1.480915   -0.497874
      5          6           0        0.420595   -0.523950   -1.075767
      6          6           0        0.254583    0.803107   -0.306333
      7          6           0       -0.929408    1.670387   -0.788803
      8          6           0       -2.246562    1.487308   -0.004436
      9          6           0       -2.866729    0.080887   -0.090324
     10          6           0       -4.251432   -0.000877    0.574536
     11          6           0       -4.862651   -1.406960    0.497649
     12          8           0        2.856026    0.099774    1.582559
     13          1           0        4.847973    0.985118    1.022044
     14          1           0        3.617434   -1.848280   -0.586466
     15          1           0        3.120692   -0.484958   -1.563616
     16          1           0        1.407757   -2.422612   -1.044311
     17          1           0        1.236421   -1.736506    0.534864
     18          1           0        0.652242   -0.309700   -2.120428
     19          1           0       -0.530922   -1.054162   -1.097839
     20          1           0        0.166249    0.612133    0.764971
     21          1           0        1.170919    1.383263   -0.420860
     22          1           0       -0.640362    2.719082   -0.698288
     23          1           0       -1.103085    1.517582   -1.855367
     24          1           0       -2.968644    2.215865   -0.377349
     25          1           0       -2.081886    1.746959    1.042968
     26          1           0       -2.946921   -0.219756   -1.136450
     27          1           0       -2.201842   -0.638120    0.390249
     28          1           0       -4.174648    0.300720    1.620702
     29          1           0       -4.929798    0.711650    0.101999
     30          1           0       -5.841924   -1.434078    0.976645
     31          1           0       -4.992678   -1.727392   -0.536704
     32          1           0       -4.230936   -2.142070    0.997975
 ---------------------------------------------------------------------
 Rotational constants (GHZ):           1.7631339           0.2929945           0.2803526
 Standard basis: 6-31G(d,p) (6D, 7F)
 There are   280 symmetry adapted cartesian basis functions of A   symmetry.
 There are   280 symmetry adapted basis functions of A   symmetry.
   280 basis functions,   476 primitive gaussians,   280 cartesian basis functions
    48 alpha electrons       48 beta electrons
       nuclear repulsion energy       713.6488172387 Hartrees.
 NAtoms=   32 NActive=   32 NUniq=   32 SFac= 1.00D+00 NAtFMM=   60 NAOKFM=F Big=F
 Integral buffers will be    131072 words long.
 Raffenetti 2 integral format.
 Two-electron integral symmetry is turned on.
 Nuclear repulsion after empirical dispersion term =      713.6007150571 Hartrees.
 One-electron integrals computed using PRISM.
 NBasis=   280 RedAO= T EigKep=  3.44D-03  NBF=   280
 NBsUse=   280 1.00D-06 EigRej= -1.00D+00 NBFU=   280
 ExpMin= 1.61D-01 ExpMax= 5.48D+03 ExpMxC= 8.25D+02 IAcc=3 IRadAn=         5 AccDes= 0.00D+00
 Harris functional with IExCor=  402 and IRadAn=       5 diagonalized for initial guess.
 HarFok:  IExCor=  402 AccDes= 0.00D+00 IRadAn=         5 IDoV= 1 UseB2=F ITyADJ=14
 ICtDFT=  3500011 ScaDFX=  1.000000  1.000000  1.000000  1.000000
 FoFCou: FMM=F IPFlag=           0 FMFlag=      100000 FMFlg1=           0
         NFxFlg=           0 DoJE=T BraDBF=F KetDBF=T FulRan=T
         wScrn=  0.000000 ICntrl=       500 IOpCl=  0 I1Cent=   200000004 NGrid=           0
         NMat0=    1 NMatS0=      1 NMatT0=    0 NMatD0=    1 NMtDS0=    0 NMtDT0=    0
 Petite list used in FoFCou.
 Requested convergence on RMS density matrix=1.00D-08 within 128 cycles.
 Requested convergence on MAX density matrix=1.00D-06.
 Requested convergence on             energy=1.00D-06.
 No special actions if energy rises.
 Integral accuracy reduced to 1.0D-05 until final iterations.
 Initial convergence to 1.0D-05 achieved.  Increase integral accuracy.
 SCF Done:  E(RB3LYP) =  -543.662364328     A.U. after   13 cycles
            NFock= 13  Conv=0.88D-08     -V/T= 2.0096

 **********************************************************************

            Population analysis using the SCF Density.

 **********************************************************************

 Orbital symmetries:
       Occupied  (A) (A) (A) (A) (A) (A) (A) (A) (A) (A) (A) (A)
                 (A) (A) (A) (A) (A) (A) (A) (A) (A) (A) (A) (A)
                 (A) (A) (A) (A) (A) (A) (A) (A) (A) (A) (A) (A)
                 (A) (A) (A) (A) (A) (A) (A) (A) (A) (A) (A) (A)
       Virtual   (A) (A) (A) (A) (A) (A) (A) (A) (A) (A) (A) (A)
                 (A) (A) (A) (A) (A) (A) (A) (A) (A) (A) (A) (A)
                 (A) (A) (A) (A) (A) (A) (A) (A) (A) (A) (A) (A)
                 (A) (A) (A) (A) (A) (A) (A) (A) (A) (A) (A) (A)
                 (A) (A) (A) (A) (A) (A) (A) (A) (A) (A) (A) (A)
                 (A) (A) (A) (A) (A) (A) (A) (A) (A) (A) (A) (A)
                 (A) (A) (A) (A) (A) (A) (A) (A) (A) (A) (A) (A)
                 (A) (A) (A) (A) (A) (A) (A) (A) (A) (A) (A) (A)
                 (A) (A) (A) (A) (A) (A) (A) (A) (A) (A) (A) (A)
                 (A) (A) (A) (A) (A) (A) (A) (A) (A) (A) (A) (A)
                 (A) (A) (A) (A) (A) (A) (A) (A) (A) (A) (A) (A)
                 (A) (A) (A) (A) (A) (A) (A) (A) (A) (A) (A) (A)
                 (A) (A) (A) (A) (A) (A) (A) (A) (A) (A) (A) (A)
                 (A) (A) (A) (A) (A) (A) (A) (A) (A) (A) (A) (A)
                 (A) (A) (A) (A) (A) (A) (A) (A) (A) (A) (A) (A)
                 (A) (A) (A) (A) (A) (A) (A) (A) (A) (A) (A) (A)
                 (A) (A) (A) (A) (A) (A) (A) (A) (A) (A) (A) (A)
                 (A) (A) (A) (A) (A) (A) (A) (A) (A) (A) (A) (A)
                 (A) (A) (A) (A) (A) (A) (A) (A) (A) (A) (A) (A)
                 (A) (A) (A) (A)
 The electronic state is 1-A.
 Alpha  occ. eigenvalues --  -19.19936 -19.13855 -10.32194 -10.20138 -10.18463
 Alpha  occ. eigenvalues --  -10.17536 -10.17344 -10.17092 -10.17074 -10.17058
 Alpha  occ. eigenvalues --  -10.16860 -10.16737  -1.10876  -1.01146  -0.80708
 Alpha  occ. eigenvalues --   -0.79119  -0.76247  -0.72634  -0.68773  -0.64630
 Alpha  occ. eigenvalues --   -0.60859  -0.58189  -0.56493  -0.55755  -0.49236
 Alpha  occ. eigenvalues --   -0.48220  -0.47817  -0.46498  -0.44626  -0.43255
 Alpha  occ. eigenvalues --   -0.42213  -0.41370  -0.40424  -0.39931  -0.39010
 Alpha  occ. eigenvalues --   -0.37953  -0.36626  -0.36189  -0.34920  -0.33737
 Alpha  occ. eigenvalues --   -0.32961  -0.32471  -0.32251  -0.31807  -0.31294
 Alpha  occ. eigenvalues --   -0.29843  -0.29344  -0.27283
 Alpha virt. eigenvalues --    0.00973   0.08010   0.08823   0.10040   0.10986
 Alpha virt. eigenvalues --    0.12160   0.12765   0.13427   0.14844   0.15296
 Alpha virt. eigenvalues --    0.15750   0.16219   0.17577   0.17745   0.18347
 Alpha virt. eigenvalues --    0.19255   0.19946   0.20272   0.20565   0.21413
 Alpha virt. eigenvalues --    0.21537   0.23168   0.23559   0.24355   0.25476
 Alpha virt. eigenvalues --    0.25989   0.26829   0.27745   0.28341   0.31033
 Alpha virt. eigenvalues --    0.32337   0.36642   0.49027   0.50025   0.51205
 Alpha virt. eigenvalues --    0.51781   0.53182   0.53455   0.54617   0.54996
 Alpha virt. eigenvalues --    0.57396   0.58752   0.59624   0.61808   0.62518
 Alpha virt. eigenvalues --    0.64059   0.64303   0.65537   0.65779   0.67238
 Alpha virt. eigenvalues --    0.68938   0.70146   0.71097   0.72668   0.75210
 Alpha virt. eigenvalues --    0.75791   0.77968   0.78409   0.79169   0.81164
 Alpha virt. eigenvalues --    0.82398   0.84912   0.85099   0.85565   0.86281
 Alpha virt. eigenvalues --    0.87684   0.88343   0.89452   0.90290   0.90443
 Alpha virt. eigenvalues --    0.91340   0.91961   0.92328   0.92693   0.93565
 Alpha virt. eigenvalues --    0.93797   0.94771   0.95576   0.96055   0.96508
 Alpha virt. eigenvalues --    0.98374   0.99168   1.00007   1.02377   1.04240
 Alpha virt. eigenvalues --    1.07576   1.08786   1.11085   1.12977   1.15778
 Alpha virt. eigenvalues --    1.19710   1.28198   1.30400   1.33649   1.35026
 Alpha virt. eigenvalues --    1.37517   1.38637   1.39179   1.44461   1.47756
 Alpha virt. eigenvalues --    1.49037   1.53468   1.55383   1.55914   1.57896
 Alpha virt. eigenvalues --    1.60628   1.62118   1.64211   1.67250   1.69384
 Alpha virt. eigenvalues --    1.69777   1.70177   1.71115   1.73877   1.74591
 Alpha virt. eigenvalues --    1.76147   1.78994   1.80198   1.82338   1.84611
 Alpha virt. eigenvalues --    1.85451   1.86322   1.86648   1.88616   1.89362
 Alpha virt. eigenvalues --    1.90425   1.91579   1.92276   1.92854   1.95386
 Alpha virt. eigenvalues --    1.98409   2.02630   2.03591   2.05829   2.07987
 Alpha virt. eigenvalues --    2.08828   2.10569   2.12946   2.13568   2.14618
 Alpha virt. eigenvalues --    2.15529   2.16113   2.17677   2.20736   2.22465
 Alpha virt. eigenvalues --    2.22710   2.23966   2.24150   2.25744   2.26707
 Alpha virt. eigenvalues --    2.28426   2.29089   2.30572   2.31083   2.32270
 Alpha virt. eigenvalues --    2.33211   2.35292   2.38823   2.39248   2.42694
 Alpha virt. eigenvalues --    2.43915   2.44944   2.46205   2.47473   2.50129
 Alpha virt. eigenvalues --    2.51530   2.53046   2.55828   2.57071   2.59483
 Alpha virt. eigenvalues --    2.60957   2.62421   2.64452   2.64732   2.66703
 Alpha virt. eigenvalues --    2.70061   2.70785   2.71418   2.73644   2.75346
 Alpha virt. eigenvalues --    2.76635   2.77155   2.80518   2.80784   2.81440
 Alpha virt. eigenvalues --    2.83971   2.85820   2.86196   2.87689   2.89739
 Alpha virt. eigenvalues --    2.90894   2.91702   2.92311   2.92720   2.92962
 Alpha virt. eigenvalues --    2.94082   2.95153   2.98145   3.01927   3.14929
 Alpha virt. eigenvalues --    3.19816   3.25161   3.28156   3.30832   3.32446
 Alpha virt. eigenvalues --    3.32795   3.34507   3.36493   3.37843   3.39135
 Alpha virt. eigenvalues --    3.42892   3.44160   3.45946   3.46823   3.49130
 Alpha virt. eigenvalues --    3.52412   3.55980   3.57679   3.59626   3.61888
 Alpha virt. eigenvalues --    3.93548   4.15507   4.25391   4.28311   4.33167
 Alpha virt. eigenvalues --    4.41596   4.51090   4.57600   4.64436   4.67423
 Alpha virt. eigenvalues --    4.75014   4.76906
          Condensed to atoms (all electrons):
               1          2          3          4          5          6
     1  O    8.114401   0.256360  -0.093655   0.002430  -0.000005  -0.000070
     2  C    0.256360   4.383125   0.325499  -0.030814  -0.002418   0.002088
     3  C   -0.093655   0.325499   5.129146   0.342411  -0.035552  -0.004595
     4  C    0.002430  -0.030814   0.342411   4.930437   0.368111  -0.041444
     5  C   -0.000005  -0.002418  -0.035552   0.368111   4.901065   0.380606
     6  C   -0.000070   0.002088  -0.004595  -0.041444   0.380606   4.907101
     7  C    0.000000   0.000011  -0.000091   0.004265  -0.032392   0.352786
     8  C   -0.000000  -0.000001   0.000000  -0.000056  -0.001528  -0.037086
     9  C    0.000000   0.000000   0.000000  -0.000102  -0.001090  -0.002820
    10  C    0.000000  -0.000000   0.000000  -0.000000   0.000102  -0.000016
    11  C    0.000000  -0.000000  -0.000000  -0.000000   0.000002   0.000003
    12  O   -0.080813   0.560398  -0.083310   0.001574  -0.001432   0.000750
    13  H    0.267919  -0.009632   0.011143  -0.000302   0.000008  -0.000012
    14  H    0.001694  -0.027585   0.367817  -0.028215   0.003163   0.000103
    15  H    0.003136  -0.024955   0.365718  -0.037339  -0.005353  -0.000166
    16  H   -0.000049   0.004563  -0.032212   0.367497  -0.033266   0.004934
    17  H    0.000183  -0.006268  -0.038636   0.384108  -0.033256  -0.006628
    18  H   -0.000002  -0.000222  -0.007818  -0.038195   0.378700  -0.039420
    19  H    0.000000  -0.000049   0.004716  -0.033867   0.383306  -0.043421
    20  H    0.000022   0.000605  -0.001334  -0.003475  -0.039221   0.391207
    21  H   -0.000141   0.001839   0.004162  -0.004783  -0.038834   0.379120
    22  H   -0.000000   0.000002   0.000001  -0.000173   0.004067  -0.033225
    23  H    0.000000  -0.000002  -0.000006   0.000222  -0.008638  -0.043107
    24  H    0.000000  -0.000000  -0.000000   0.000003  -0.000112   0.004917
    25  H   -0.000000  -0.000000   0.000000   0.000010  -0.000114  -0.007143
    26  H    0.000000   0.000000  -0.000000   0.000011  -0.000424  -0.001311
    27  H   -0.000000  -0.000000  -0.000003   0.000193  -0.002937   0.004372
    28  H    0.000000   0.000000  -0.000000   0.000000  -0.000002  -0.000009
    29  H   -0.000000  -0.000000  -0.000000   0.000000  -0.000004   0.000006
    30  H   -0.000000   0.000000   0.000000   0.000000   0.000000  -0.000000
    31  H    0.000000   0.000000  -0.000000   0.000000  -0.000001   0.000000
    32  H   -0.000000  -0.000000   0.000000   0.000000  -0.000003  -0.000001
               7          8          9         10         11         12
     1  O    0.000000  -0.000000   0.000000   0.000000   0.000000  -0.080813
     2  C    0.000011  -0.000001   0.000000  -0.000000  -0.000000   0.560398
     3  C   -0.000091   0.000000   0.000000   0.000000  -0.000000  -0.083310
     4  C    0.004265  -0.000056  -0.000102  -0.000000  -0.000000   0.001574
     5  C   -0.032392  -0.001528  -0.001090   0.000102   0.000002  -0.001432
     6  C    0.352786  -0.037086  -0.002820  -0.000016   0.000003   0.000750
     7  C    4.942011   0.372806  -0.040415   0.003796  -0.000143   0.000122
     8  C    0.372806   4.890127   0.376916  -0.033708   0.003673  -0.000002
     9  C   -0.040415   0.376916   4.889978   0.380426  -0.042632   0.000000
    10  C    0.003796  -0.033708   0.380426   4.875676   0.367080  -0.000000
    11  C   -0.000143   0.003673  -0.042632   0.367080   4.922506  -0.000000
    12  O    0.000122  -0.000002   0.000000  -0.000000  -0.000000   8.051759
    13  H   -0.000000   0.000000  -0.000000  -0.000000   0.000000   0.011586
    14  H    0.000002   0.000000  -0.000000  -0.000000  -0.000000   0.000477
    15  H   -0.000046   0.000000  -0.000000   0.000000  -0.000000   0.001976
    16  H   -0.000144  -0.000001   0.000004  -0.000000   0.000000   0.000259
    17  H    0.000035   0.000000   0.000002  -0.000001   0.000000   0.007513
    18  H   -0.004690   0.000004  -0.000002  -0.000004   0.000000  -0.000016
    19  H   -0.003529  -0.000004   0.001873  -0.000029  -0.000007  -0.000028
    20  H   -0.043025  -0.006779  -0.000868  -0.000076   0.000001   0.003041
    21  H   -0.033076   0.003874   0.000045   0.000000  -0.000000  -0.000061
    22  H    0.370568  -0.032237   0.004983  -0.000138   0.000002   0.000000
    23  H    0.378943  -0.036274  -0.007318   0.000030  -0.000001  -0.000001
    24  H   -0.034645   0.378676  -0.042171  -0.005710   0.000111   0.000000
    25  H   -0.036970   0.382120  -0.039441  -0.003823   0.000001  -0.000001
    26  H   -0.003131  -0.040419   0.383690  -0.040726  -0.003205  -0.000000
    27  H   -0.004334  -0.036189   0.384339  -0.039845  -0.003112  -0.000000
    28  H    0.000055  -0.003388  -0.038263   0.385432  -0.038528   0.000000
    29  H   -0.000016  -0.004195  -0.038471   0.385144  -0.038678   0.000000
    30  H    0.000002  -0.000148   0.004137  -0.026827   0.378183   0.000000
    31  H    0.000001   0.000057  -0.004841  -0.034693   0.387064   0.000000
    32  H    0.000001   0.000051  -0.004835  -0.034664   0.387181   0.000000
              13         14         15         16         17         18
     1  O    0.267919   0.001694   0.003136  -0.000049   0.000183  -0.000002
     2  C   -0.009632  -0.027585  -0.024955   0.004563  -0.006268  -0.000222
     3  C    0.011143   0.367817   0.365718  -0.032212  -0.038636  -0.007818
     4  C   -0.000302  -0.028215  -0.037339   0.367497   0.384108  -0.038195
     5  C    0.000008   0.003163  -0.005353  -0.033266  -0.033256   0.378700
     6  C   -0.000012   0.000103  -0.000166   0.004934  -0.006628  -0.039420
     7  C   -0.000000   0.000002  -0.000046  -0.000144   0.000035  -0.004690
     8  C    0.000000   0.000000   0.000000  -0.000001   0.000000   0.000004
     9  C   -0.000000  -0.000000  -0.000000   0.000004   0.000002  -0.000002
    10  C   -0.000000  -0.000000   0.000000  -0.000000  -0.000001  -0.000004
    11  C    0.000000  -0.000000  -0.000000   0.000000   0.000000   0.000000
    12  O    0.011586   0.000477   0.001976   0.000259   0.007513  -0.000016
    13  H    0.401253  -0.000419  -0.000382   0.000004  -0.000018   0.000000
    14  H   -0.000419   0.579383  -0.026719  -0.007317   0.000431   0.000019
    15  H   -0.000382  -0.026719   0.583391  -0.000089   0.004848   0.005447
    16  H    0.000004  -0.007317  -0.000089   0.652559  -0.038247  -0.003578
    17  H   -0.000018   0.000431   0.004848  -0.038247   0.600703   0.005606
    18  H    0.000000   0.000019   0.005447  -0.003578   0.005606   0.654549
    19  H   -0.000000  -0.000163   0.000054  -0.004868  -0.003234  -0.039533
    20  H   -0.000003  -0.000013   0.000098   0.000074   0.004679   0.005729
    21  H    0.000004   0.000013   0.000166  -0.000070  -0.000342  -0.007426
    22  H    0.000000  -0.000000   0.000000   0.000003  -0.000001   0.000082
    23  H    0.000000  -0.000000   0.000003  -0.000006   0.000011   0.004707
    24  H    0.000000  -0.000000  -0.000000  -0.000000   0.000000   0.000015
    25  H    0.000000  -0.000000  -0.000000  -0.000000  -0.000004   0.000005
    26  H   -0.000000  -0.000000   0.000000  -0.000001   0.000000   0.000069
    27  H    0.000000   0.000000   0.000000  -0.000018   0.000208   0.000092
    28  H    0.000000   0.000000  -0.000000   0.000000  -0.000000   0.000000
    29  H    0.000000   0.000000  -0.000000  -0.000000   0.000000   0.000000
    30  H   -0.000000   0.000000   0.000000  -0.000000  -0.000000  -0.000000
    31  H    0.000000   0.000000  -0.000000  -0.000000  -0.000000   0.000000
    32  H    0.000000   0.000000   0.000000  -0.000000   0.000000   0.000000
              19         20         21         22         23         24
     1  O    0.000000   0.000022  -0.000141  -0.000000   0.000000   0.000000
     2  C   -0.000049   0.000605   0.001839   0.000002  -0.000002  -0.000000
     3  C    0.004716  -0.001334   0.004162   0.000001  -0.000006  -0.000000
     4  C   -0.033867  -0.003475  -0.004783  -0.000173   0.000222   0.000003
     5  C    0.383306  -0.039221  -0.038834   0.004067  -0.008638  -0.000112
     6  C   -0.043421   0.391207   0.379120  -0.033225  -0.043107   0.004917
     7  C   -0.003529  -0.043025  -0.033076   0.370568   0.378943  -0.034645
     8  C   -0.000004  -0.006779   0.003874  -0.032237  -0.036274   0.378676
     9  C    0.001873  -0.000868   0.000045   0.004983  -0.007318  -0.042171
    10  C   -0.000029  -0.000076   0.000000  -0.000138   0.000030  -0.005710
    11  C   -0.000007   0.000001  -0.000000   0.000002  -0.000001   0.000111
    12  O   -0.000028   0.003041  -0.000061   0.000000  -0.000001   0.000000
    13  H   -0.000000  -0.000003   0.000004   0.000000   0.000000   0.000000
    14  H   -0.000163  -0.000013   0.000013  -0.000000  -0.000000  -0.000000
    15  H    0.000054   0.000098   0.000166   0.000000   0.000003  -0.000000
    16  H   -0.004868   0.000074  -0.000070   0.000003  -0.000006  -0.000000
    17  H   -0.003234   0.004679  -0.000342  -0.000001   0.000011   0.000000
    18  H   -0.039533   0.005729  -0.007426   0.000082   0.004707   0.000015
    19  H    0.634270  -0.003981   0.006226   0.000004   0.000836  -0.000077
    20  H   -0.003981   0.609630  -0.039042   0.001395   0.005200   0.000200
    21  H    0.006226  -0.039042   0.652792  -0.010180   0.001517  -0.000224
    22  H    0.000004   0.001395  -0.010180   0.657445  -0.040223  -0.004093
    23  H    0.000836   0.005200   0.001517  -0.040223   0.651639  -0.003992
    24  H   -0.000077   0.000200  -0.000224  -0.004093  -0.003992   0.656123
    25  H    0.000127   0.004693   0.000130  -0.004360   0.005991  -0.040723
    26  H    0.002317   0.000177  -0.000012   0.000006   0.005165  -0.004863
    27  H    0.002095   0.001249  -0.000067  -0.000054  -0.000267   0.006279
    28  H    0.000006   0.000003  -0.000000   0.000004   0.000007  -0.000559
    29  H    0.000004   0.000001   0.000000  -0.000005   0.000000   0.005838
    30  H   -0.000000  -0.000000   0.000000  -0.000000   0.000000   0.000001
    31  H    0.000003  -0.000000  -0.000000   0.000000  -0.000001   0.000002
    32  H    0.000007  -0.000000   0.000000  -0.000000   0.000000   0.000009
              25         26         27         28         29         30
     1  O   -0.000000   0.000000  -0.000000   0.000000  -0.000000  -0.000000
     2  C   -0.000000   0.000000  -0.000000   0.000000  -0.000000   0.000000
     3  C    0.000000  -0.000000  -0.000003  -0.000000  -0.000000   0.000000
     4  C    0.000010   0.000011   0.000193   0.000000   0.000000   0.000000
     5  C   -0.000114  -0.000424  -0.002937  -0.000002  -0.000004   0.000000
     6  C   -0.007143  -0.001311   0.004372  -0.000009   0.000006  -0.000000
     7  C   -0.036970  -0.003131  -0.004334   0.000055  -0.000016   0.000002
     8  C    0.382120  -0.040419  -0.036189  -0.003388  -0.004195  -0.000148
     9  C   -0.039441   0.383690   0.384339  -0.038263  -0.038471   0.004137
    10  C   -0.003823  -0.040726  -0.039845   0.385432   0.385144  -0.026827
    11  C    0.000001  -0.003205  -0.003112  -0.038528  -0.038678   0.378183
    12  O   -0.000001  -0.000000  -0.000000   0.000000   0.000000   0.000000
    13  H    0.000000  -0.000000   0.000000   0.000000   0.000000  -0.000000
    14  H   -0.000000  -0.000000   0.000000   0.000000   0.000000   0.000000
    15  H   -0.000000   0.000000   0.000000  -0.000000  -0.000000   0.000000
    16  H   -0.000000  -0.000001  -0.000018   0.000000  -0.000000  -0.000000
    17  H   -0.000004   0.000000   0.000208  -0.000000   0.000000  -0.000000
    18  H    0.000005   0.000069   0.000092   0.000000   0.000000  -0.000000
    19  H    0.000127   0.002317   0.002095   0.000006   0.000004  -0.000000
    20  H    0.004693   0.000177   0.001249   0.000003   0.000001  -0.000000
    21  H    0.000130  -0.000012  -0.000067  -0.000000   0.000000   0.000000
    22  H   -0.004360   0.000006  -0.000054   0.000004  -0.000005  -0.000000
    23  H    0.005991   0.005165  -0.000267   0.000007   0.000000   0.000000
    24  H   -0.040723  -0.004863   0.006279  -0.000559   0.005838   0.000001
    25  H    0.644572   0.006258  -0.007326   0.004703  -0.000508   0.000003
    26  H    0.006258   0.650357  -0.044738   0.006142  -0.006158  -0.000018
    27  H   -0.007326  -0.044738   0.639772  -0.006337   0.006069  -0.000017
    28  H    0.004703   0.006142  -0.006337   0.641181  -0.041023  -0.003093
    29  H   -0.000508  -0.006158   0.006069  -0.041023   0.642966  -0.003058
    30  H    0.000003  -0.000018  -0.000017  -0.003093  -0.003058   0.617672
    31  H    0.000006   0.004784  -0.000515   0.005508  -0.004993  -0.032699
    32  H    0.000001  -0.000486   0.004930  -0.005022   0.005517  -0.032505
              31         32
     1  O    0.000000  -0.000000
     2  C    0.000000  -0.000000
     3  C   -0.000000   0.000000
     4  C    0.000000   0.000000
     5  C   -0.000001  -0.000003
     6  C    0.000000  -0.000001
     7  C    0.000001   0.000001
     8  C    0.000057   0.000051
     9  C   -0.004841  -0.004835
    10  C   -0.034693  -0.034664
    11  C    0.387064   0.387181
    12  O    0.000000   0.000000
    13  H    0.000000   0.000000
    14  H    0.000000   0.000000
    15  H   -0.000000   0.000000
    16  H   -0.000000  -0.000000
    17  H   -0.000000   0.000000
    18  H    0.000000   0.000000
    19  H    0.000003   0.000007
    20  H   -0.000000  -0.000000
    21  H   -0.000000   0.000000
    22  H    0.000000  -0.000000
    23  H   -0.000001   0.000000
    24  H    0.000002   0.000009
    25  H    0.000006   0.000001
    26  H    0.004784  -0.000486
    27  H   -0.000515   0.004930
    28  H    0.005508  -0.005022
    29  H   -0.004993   0.005517
    30  H   -0.032699  -0.032505
    31  H    0.613236  -0.033900
    32  H   -0.033900   0.611840
 Mulliken charges:
               1
     1  O   -0.471410
     2  C    0.567456
     3  C   -0.253404
     4  C   -0.182507
     5  C   -0.182549
     6  C   -0.167515
     7  C   -0.188756
     8  C   -0.176290
     9  C   -0.163123
    10  C   -0.177425
    11  C   -0.319500
    12  O   -0.473793
    13  H    0.318851
    14  H    0.137327
    15  H    0.130211
    16  H    0.089969
    17  H    0.118308
    18  H    0.085881
    19  H    0.096948
    20  H    0.109811
    21  H    0.084366
    22  H    0.086127
    23  H    0.085565
    24  H    0.084996
    25  H    0.091795
    26  H    0.086517
    27  H    0.096161
    28  H    0.093185
    29  H    0.091565
    30  H    0.098369
    31  H    0.100983
    32  H    0.101879
 Sum of Mulliken charges =  -0.00000
 Mulliken charges with hydrogens summed into heavy atoms:
               1
     1  O   -0.152560
     2  C    0.567456
     3  C    0.014134
     4  C    0.025770
     5  C    0.000281
     6  C    0.026662
     7  C   -0.017064
     8  C    0.000502
     9  C    0.019555
    10  C    0.007326
    11  C   -0.018269
    12  O   -0.473793
 Electronic spatial extent (au):  <R**2>=           4049.7189
 Charge=             -0.0000 electrons
 Dipole moment (field-independent basis, Debye):
    X=              0.7674    Y=             -0.1376    Z=             -1.0688  Tot=              1.3230
 Quadrupole moment (field-independent basis, Debye-Ang):
   XX=            -70.8540   YY=            -74.0385   ZZ=            -78.4584
   XY=              0.7592   XZ=              0.0507   YZ=              1.3541
 Traceless Quadrupole moment (field-independent basis, Debye-Ang):
   XX=              3.5963   YY=              0.4118   ZZ=             -4.0081
   XY=              0.7592   XZ=              0.0507   YZ=              1.3541
 Octapole moment (field-independent basis, Debye-Ang**2):
  XXX=             68.5683  YYY=              2.5162  ZZZ=              0.7145  XYY=             24.2990
  XXY=             13.6191  XXZ=             18.9439  XZZ=              7.7962  YZZ=              1.3438
  YYZ=              4.3395  XYZ=              7.4056
 Hexadecapole moment (field-independent basis, Debye-Ang**3):
 XXXX=          -4156.3118 YYYY=           -624.0203 ZZZZ=           -373.5130 XXXY=             69.8419
 XXXZ=            156.8627 YYYX=              8.6886 YYYZ=              5.7527 ZZZX=              8.2649
 ZZZY=              3.6444 XXYY=           -784.8183 XXZZ=           -762.8291 YYZZ=           -164.0241
 XXYZ=             38.2476 YYXZ=             18.2345 ZZXY=             11.0151
 N-N= 7.136007150571D+02 E-N=-2.690686766998D+03  KE= 5.384806187672D+02
 Calling FoFJK, ICntrl=      2127 FMM=F ISym2X=0 I1Cent= 0 IOpClX= 0 NMat=1 NMatS=1 NMatT=0.
 ***** Axes restored to original set *****
 -------------------------------------------------------------------
 Center     Atomic                   Forces (Hartrees/Bohr)
 Number     Number              X              Y              Z
 -------------------------------------------------------------------
      1        8          -0.008216214   -0.006284211    0.002890260
      2        6          -0.015937577   -0.004474632   -0.017938382
      3        6          -0.003406033    0.006110166   -0.012516585
      4        6           0.005235881   -0.004746202    0.000792533
      5        6           0.003923867    0.009856912   -0.003694980
      6        6          -0.003700472   -0.006359151    0.003552121
      7        6           0.001089169    0.006861443   -0.004891225
      8        6          -0.004883012   -0.002827361    0.008723438
      9        6           0.006742701    0.000862039   -0.008786037
     10        6          -0.005442168    0.000805755    0.007556496
     11        6           0.004700576   -0.000319331   -0.002397377
     12        8           0.003170639   -0.006586485    0.017003534
     13        1           0.012810877    0.009475241   -0.003931465
     14        1          -0.001187677    0.001171403    0.005841190
     15        1           0.002425162   -0.001735775    0.002053235
     16        1          -0.001126723   -0.001090223    0.004229635
     17        1           0.004861842    0.002500650   -0.000775966
     18        1           0.002291209   -0.003311312    0.003289787
     19        1          -0.003396081    0.000276675   -0.002549231
     20        1          -0.001491175    0.002426460   -0.001100881
     21        1           0.002875360    0.001252344    0.002350519
     22        1           0.003444731   -0.000483500   -0.001572476
     23        1          -0.003793179   -0.002983513    0.002180480
     24        1           0.000159909   -0.003971457   -0.002468825
     25        1           0.001230793    0.004229902   -0.000844625
     26        1          -0.001821539   -0.003591643    0.002166324
     27        1          -0.001557485    0.003281674    0.002194208
     28        1           0.002307739    0.003126445   -0.001537909
     29        1           0.001709453   -0.003707848   -0.001264135
     30        1          -0.001602441    0.000049632   -0.002560452
     31        1          -0.000957839   -0.002340215    0.002116490
     32        1          -0.000460293    0.002526118    0.001890301
 -------------------------------------------------------------------
 Cartesian Forces:  Max     0.017938382 RMS     0.005155070

 GradGradGradGradGradGradGradGradGradGradGradGradGradGradGradGradGradGrad
 Berny optimization.
 FormGI is forming the generalized inverse of G from B-inverse, IUseBI=4.
 Internal  Forces:  Max     0.018083322 RMS     0.003018596
 Search for a local minimum.
 Step number   1 out of a maximum of  179
 All quantities printed in internal units (Hartrees-Bohrs-Radians)
 Mixed Optimization -- RFO/linear search
 Second derivative matrix not updated -- first step.
 ITU=  0
     Eigenvalues ---    0.00230   0.00230   0.00230   0.00230   0.00230
     Eigenvalues ---    0.00244   0.00260   0.00301   0.00380   0.00856
     Eigenvalues ---    0.02357   0.03092   0.03098   0.03175   0.03179
     Eigenvalues ---    0.03224   0.03430   0.03446   0.03582   0.04658
     Eigenvalues ---    0.04670   0.04673   0.04674   0.04690   0.04751
     Eigenvalues ---    0.04760   0.05204   0.05412   0.05464   0.08300
     Eigenvalues ---    0.08316   0.08569   0.08689   0.08706   0.08773
     Eigenvalues ---    0.08781   0.09873   0.12192   0.12199   0.12399
     Eigenvalues ---    0.12473   0.12486   0.12556   0.12557   0.13170
     Eigenvalues ---    0.16000   0.16000   0.16000   0.16000   0.21891
     Eigenvalues ---    0.21894   0.21900   0.21902   0.21908   0.21910
     Eigenvalues ---    0.21925   0.22012   0.24997   0.25000   0.27452
     Eigenvalues ---    0.28087   0.28120   0.28176   0.28260   0.28565
     Eigenvalues ---    0.28677   0.28956   0.29499   0.34484   0.34609
     Eigenvalues ---    0.34628   0.34630   0.34633   0.34643   0.34646
     Eigenvalues ---    0.34649   0.34651   0.34656   0.34666   0.34712
     Eigenvalues ---    0.34724   0.34740   0.34745   0.34757   0.34828
     Eigenvalues ---    0.34866   0.34871   0.55084   0.55967   0.94021
 RFO step:  Lambda=-5.92871690D-03 EMin= 2.30000000D-03
 Linear search not attempted -- first point.
 Iteration  1 RMS(Cart)=  0.09365509 RMS(Int)=  0.00103522
 Iteration  2 RMS(Cart)=  0.00188619 RMS(Int)=  0.00020684
 Iteration  3 RMS(Cart)=  0.00000106 RMS(Int)=  0.00020684
 Iteration  4 RMS(Cart)=  0.00000000 RMS(Int)=  0.00020684
 Variable       Old X    -DE/DX   Delta X   Delta X   Delta X     New X
                                 (Linear)    (Quad)   (Total)
    R1        2.55058   0.00298   0.00000   0.00535   0.00535   2.55592
    R2        1.80982   0.01593   0.00000   0.02816   0.02816   1.83799
    R3        2.88974  -0.00986   0.00000  -0.03277  -0.03277   2.85697
    R4        2.31133  -0.01808   0.00000  -0.01911  -0.01911   2.29222
    R5        2.93352  -0.01231   0.00000  -0.04389  -0.04389   2.88964
    R6        2.05893   0.00545   0.00000   0.01537   0.01537   2.07430
    R7        2.05955   0.00320   0.00000   0.00902   0.00902   2.06857
    R8        2.91877  -0.00568   0.00000  -0.01980  -0.01980   2.89897
    R9        2.06281   0.00330   0.00000   0.00938   0.00938   2.07219
   R10        2.06521   0.00141   0.00000   0.00401   0.00401   2.06923
   R11        2.91574  -0.00466   0.00000  -0.01615  -0.01615   2.89958
   R12        2.06221   0.00494   0.00000   0.01401   0.01401   2.07622
   R13        2.05885   0.00406   0.00000   0.01145   0.01145   2.07029
   R14        2.91948  -0.00142   0.00000  -0.00494  -0.00494   2.91454
   R15        2.06315   0.00276   0.00000   0.00784   0.00784   2.07099
   R16        2.06090   0.00376   0.00000   0.01065   0.01065   2.07155
   R17        2.91756  -0.00450   0.00000  -0.01565  -0.01565   2.90190
   R18        2.06275   0.00371   0.00000   0.01053   0.01053   2.07327
   R19        2.06238   0.00464   0.00000   0.01317   0.01317   2.07555
   R20        2.90920  -0.00355   0.00000  -0.01219  -0.01219   2.89701
   R21        2.06254   0.00458   0.00000   0.01300   0.01300   2.07554
   R22        2.06283   0.00423   0.00000   0.01201   0.01201   2.07483
   R23        2.90682  -0.00355   0.00000  -0.01211  -0.01211   2.89470
   R24        2.06248   0.00456   0.00000   0.01294   0.01294   2.07542
   R25        2.06144   0.00419   0.00000   0.01187   0.01187   2.07331
   R26        2.90094  -0.00172   0.00000  -0.00582  -0.00582   2.89512
   R27        2.06259   0.00405   0.00000   0.01150   0.01150   2.07409
   R28        2.06246   0.00412   0.00000   0.01170   0.01170   2.07416
   R29        2.06071   0.00299   0.00000   0.00845   0.00845   2.06917
   R30        2.06099   0.00324   0.00000   0.00917   0.00917   2.07016
   R31        2.06125   0.00313   0.00000   0.00886   0.00886   2.07011
    A1        1.81584   0.00709   0.00000   0.04274   0.04274   1.85858
    A2        1.94992   0.00054   0.00000   0.00182   0.00149   1.95140
    A3        2.14720  -0.00472   0.00000  -0.01876  -0.01908   2.12812
    A4        2.18586   0.00417   0.00000   0.01603   0.01567   2.20154
    A5        2.02382  -0.00867   0.00000  -0.03944  -0.03959   1.98423
    A6        1.82501   0.00326   0.00000   0.02651   0.02699   1.85200
    A7        1.91025   0.00133   0.00000  -0.01348  -0.01389   1.89636
    A8        1.89804   0.00330   0.00000   0.03102   0.03127   1.92931
    A9        1.93368   0.00337   0.00000   0.00747   0.00666   1.94034
   A10        1.86353  -0.00221   0.00000  -0.00830  -0.00839   1.85514
   A11        2.01204  -0.00211   0.00000  -0.01790  -0.01849   1.99354
   A12        1.88339  -0.00008   0.00000   0.00576   0.00609   1.88949
   A13        1.93797  -0.00231   0.00000  -0.04093  -0.04158   1.89639
   A14        1.87288   0.00198   0.00000   0.03022   0.03023   1.90310
   A15        1.91840   0.00147   0.00000  -0.00470  -0.00616   1.91224
   A16        1.82845   0.00154   0.00000   0.03622   0.03624   1.86469
   A17        2.00485  -0.00053   0.00000  -0.00562  -0.00571   1.99913
   A18        1.91064   0.00010   0.00000  -0.00643  -0.00659   1.90405
   A19        1.88462   0.00002   0.00000   0.00451   0.00452   1.88914
   A20        1.90854  -0.00071   0.00000  -0.01291  -0.01302   1.89552
   A21        1.91208   0.00056   0.00000   0.00827   0.00830   1.92038
   A22        1.83541   0.00069   0.00000   0.01430   0.01436   1.84978
   A23        1.99276  -0.00106   0.00000  -0.00570  -0.00581   1.98695
   A24        1.92580  -0.00079   0.00000  -0.01666  -0.01674   1.90906
   A25        1.89101   0.00034   0.00000   0.00724   0.00724   1.89825
   A26        1.92051   0.00063   0.00000  -0.00241  -0.00260   1.91791
   A27        1.88862   0.00109   0.00000   0.01666   0.01664   1.90526
   A28        1.83805  -0.00009   0.00000   0.00252   0.00255   1.84059
   A29        2.01373  -0.00148   0.00000  -0.01070  -0.01101   2.00272
   A30        1.88651   0.00138   0.00000   0.02060   0.02067   1.90718
   A31        1.92683  -0.00027   0.00000  -0.01526  -0.01570   1.91113
   A32        1.87309   0.00031   0.00000   0.01054   0.01060   1.88369
   A33        1.92211  -0.00022   0.00000  -0.01656  -0.01699   1.90512
   A34        1.83143   0.00054   0.00000   0.01592   0.01610   1.84753
   A35        2.00828   0.00057   0.00000   0.00041   0.00035   2.00863
   A36        1.88776   0.00051   0.00000   0.00961   0.00961   1.89737
   A37        1.90770  -0.00080   0.00000  -0.01091  -0.01096   1.89674
   A38        1.90101  -0.00056   0.00000   0.00040   0.00038   1.90139
   A39        1.90880  -0.00036   0.00000  -0.00857  -0.00864   1.90016
   A40        1.84301   0.00067   0.00000   0.01031   0.01035   1.85336
   A41        1.96826   0.00067   0.00000   0.00351   0.00350   1.97177
   A42        1.91211  -0.00025   0.00000  -0.00201  -0.00201   1.91010
   A43        1.90926   0.00024   0.00000   0.00498   0.00498   1.91424
   A44        1.91082  -0.00031   0.00000  -0.00369  -0.00369   1.90713
   A45        1.89993  -0.00042   0.00000  -0.00137  -0.00139   1.89854
   A46        1.86031   0.00003   0.00000  -0.00169  -0.00169   1.85861
   A47        1.96650   0.00106   0.00000   0.00467   0.00469   1.97119
   A48        1.91375  -0.00091   0.00000  -0.00823  -0.00826   1.90549
   A49        1.91525  -0.00102   0.00000  -0.00887  -0.00890   1.90635
   A50        1.90616   0.00020   0.00000   0.00470   0.00471   1.91087
   A51        1.90585   0.00033   0.00000   0.00592   0.00593   1.91178
   A52        1.85284   0.00031   0.00000   0.00174   0.00166   1.85450
   A53        1.93728   0.00099   0.00000   0.00828   0.00828   1.94556
   A54        1.94344  -0.00068   0.00000  -0.00533  -0.00535   1.93809
   A55        1.94306  -0.00061   0.00000  -0.00478  -0.00480   1.93826
   A56        1.87781   0.00008   0.00000   0.00259   0.00259   1.88041
   A57        1.87742   0.00008   0.00000   0.00279   0.00280   1.88022
   A58        1.88185   0.00016   0.00000  -0.00336  -0.00341   1.87845
    D1       -3.13241   0.00079   0.00000   0.04010   0.03968  -3.09273
    D2       -0.01121   0.00021   0.00000  -0.00633  -0.00591  -0.01712
    D3       -2.96968   0.00070   0.00000   0.01934   0.01889  -2.95079
    D4        1.22389  -0.00075   0.00000  -0.01555  -0.01566   1.20823
    D5       -0.76711  -0.00043   0.00000  -0.01338  -0.01320  -0.78030
    D6        0.19286   0.00142   0.00000   0.06750   0.06730   0.26016
    D7       -1.89676  -0.00002   0.00000   0.03260   0.03275  -1.86401
    D8        2.39543   0.00029   0.00000   0.03478   0.03521   2.43064
    D9        1.51049  -0.00218   0.00000  -0.06896  -0.06851   1.44198
   D10       -2.68013  -0.00106   0.00000  -0.03761  -0.03743  -2.71756
   D11       -0.68554  -0.00049   0.00000  -0.01270  -0.01302  -0.69856
   D12       -2.72321  -0.00111   0.00000  -0.03759  -0.03738  -2.76060
   D13       -0.63064   0.00001   0.00000  -0.00624  -0.00631  -0.63695
   D14        1.36394   0.00058   0.00000   0.01867   0.01811   1.38205
   D15       -0.68021   0.00012   0.00000  -0.02477  -0.02438  -0.70459
   D16        1.41236   0.00124   0.00000   0.00658   0.00670   1.41906
   D17       -2.87624   0.00181   0.00000   0.03149   0.03111  -2.84513
   D18       -1.17443   0.00207   0.00000   0.08413   0.08407  -1.09036
   D19        0.98025   0.00082   0.00000   0.05789   0.05786   1.03811
   D20        2.96956   0.00170   0.00000   0.07384   0.07379   3.04335
   D21        3.01042   0.00208   0.00000   0.06616   0.06627   3.07669
   D22       -1.11808   0.00083   0.00000   0.03992   0.04006  -1.07802
   D23        0.87122   0.00170   0.00000   0.05587   0.05599   0.92721
   D24        1.03162  -0.00151   0.00000   0.01000   0.00991   1.04152
   D25       -3.09689  -0.00276   0.00000  -0.01625  -0.01630  -3.11319
   D26       -1.10759  -0.00188   0.00000  -0.00030  -0.00037  -1.10796
   D27       -3.01669   0.00015   0.00000  -0.00308  -0.00309  -3.01978
   D28       -0.84307  -0.00044   0.00000  -0.02395  -0.02385  -0.86692
   D29        1.16079  -0.00079   0.00000  -0.02582  -0.02579   1.13500
   D30        1.11070   0.00097   0.00000   0.01968   0.01959   1.13029
   D31       -2.99887   0.00037   0.00000  -0.00119  -0.00117  -3.00004
   D32       -0.99500   0.00003   0.00000  -0.00305  -0.00311  -0.99811
   D33       -0.89234   0.00024   0.00000   0.00517   0.00513  -0.88720
   D34        1.28128  -0.00036   0.00000  -0.01570  -0.01563   1.26565
   D35       -2.99804  -0.00071   0.00000  -0.01756  -0.01757  -3.01561
   D36        1.65293  -0.00152   0.00000  -0.05857  -0.05850   1.59443
   D37       -2.53403  -0.00107   0.00000  -0.03681  -0.03679  -2.57082
   D38       -0.54001   0.00019   0.00000  -0.01446  -0.01456  -0.55457
   D39       -0.52350  -0.00017   0.00000  -0.03018  -0.03010  -0.55360
   D40        1.57273   0.00028   0.00000  -0.00842  -0.00839   1.56433
   D41       -2.71644   0.00154   0.00000   0.01393   0.01384  -2.70260
   D42       -2.52322  -0.00100   0.00000  -0.04108  -0.04101  -2.56423
   D43       -0.42700  -0.00055   0.00000  -0.01933  -0.01930  -0.44630
   D44        1.56702   0.00071   0.00000   0.00303   0.00293   1.56996
   D45       -1.10403   0.00124   0.00000   0.04008   0.03999  -1.06404
   D46        3.04959   0.00119   0.00000   0.03202   0.03192   3.08150
   D47        1.05118   0.00054   0.00000   0.02039   0.02033   1.07151
   D48        3.07560   0.00019   0.00000   0.01285   0.01282   3.08842
   D49        0.94603   0.00014   0.00000   0.00478   0.00475   0.95078
   D50       -1.05238  -0.00051   0.00000  -0.00684  -0.00684  -1.05922
   D51        1.09133  -0.00050   0.00000  -0.00325  -0.00315   1.08818
   D52       -1.03823  -0.00055   0.00000  -0.01132  -0.01123  -1.04946
   D53       -3.03664  -0.00120   0.00000  -0.02295  -0.02282  -3.05946
   D54       -3.02865  -0.00059   0.00000  -0.02477  -0.02475  -3.05340
   D55       -0.89575  -0.00071   0.00000  -0.02854  -0.02853  -0.92428
   D56        1.13758  -0.00067   0.00000  -0.02887  -0.02887   1.10871
   D57       -0.90625   0.00005   0.00000  -0.01167  -0.01167  -0.91792
   D58        1.22665  -0.00007   0.00000  -0.01545  -0.01544   1.21120
   D59       -3.02321  -0.00004   0.00000  -0.01578  -0.01578  -3.03899
   D60        1.09991   0.00034   0.00000  -0.00383  -0.00383   1.09608
   D61       -3.05038   0.00022   0.00000  -0.00760  -0.00761  -3.05799
   D62       -1.01705   0.00026   0.00000  -0.00793  -0.00795  -1.02500
   D63       -3.13340  -0.00013   0.00000  -0.00045  -0.00045  -3.13386
   D64       -1.00650   0.00020   0.00000   0.00287   0.00285  -1.00365
   D65        1.02220  -0.00054   0.00000  -0.00488  -0.00485   1.01735
   D66        1.01615  -0.00004   0.00000   0.00238   0.00239   1.01854
   D67       -3.14012   0.00028   0.00000   0.00570   0.00569  -3.13444
   D68       -1.11143  -0.00045   0.00000  -0.00204  -0.00201  -1.11344
   D69       -1.01116   0.00033   0.00000   0.00722   0.00722  -1.00394
   D70        1.11575   0.00065   0.00000   0.01054   0.01052   1.12626
   D71       -3.13874  -0.00009   0.00000   0.00280   0.00282  -3.13592
   D72        3.14116   0.00003   0.00000   0.00048   0.00048  -3.14154
   D73       -1.05039   0.00035   0.00000   0.00575   0.00573  -1.04465
   D74        1.05028  -0.00032   0.00000  -0.00541  -0.00540   1.04488
   D75        1.00997   0.00034   0.00000   0.00449   0.00449   1.01446
   D76        3.10160   0.00066   0.00000   0.00976   0.00975   3.11135
   D77       -1.08092  -0.00001   0.00000  -0.00140  -0.00139  -1.08230
   D78       -1.00913  -0.00033   0.00000  -0.00347  -0.00347  -1.01261
   D79        1.08250  -0.00001   0.00000   0.00180   0.00178   1.08428
   D80       -3.10002  -0.00068   0.00000  -0.00936  -0.00935  -3.10937
         Item               Value     Threshold  Converged?
 Maximum Force            0.018083     0.000450     NO 
 RMS     Force            0.003019     0.000300     NO 
 Maximum Displacement     0.482273     0.001800     NO 
 RMS     Displacement     0.094103     0.001200     NO 
 Predicted change in Energy=-3.193437D-03
 GradGradGradGradGradGradGradGradGradGradGradGradGradGradGradGradGradGrad

                          Input orientation:                          
 ---------------------------------------------------------------------
 Center     Atomic      Atomic             Coordinates (Angstroms)
 Number     Number       Type             X           Y           Z
 ---------------------------------------------------------------------
      1          8           0        5.625160   -0.350720    0.640728
      2          6           0        4.547324   -0.447423   -0.170613
      3          6           0        3.439323   -1.258665    0.461759
      4          6           0        2.312790   -1.620097   -0.507016
      5          6           0        2.599707   -2.852536   -1.374280
      6          6           0        3.803746   -2.704389   -2.313806
      7          6           0        3.976189   -3.880534   -3.296488
      8          6           0        3.269182   -3.698416   -4.647453
      9          6           0        1.746187   -3.542246   -4.568180
     10          6           0        1.078280   -3.487513   -5.945624
     11          6           0       -0.442532   -3.320587   -5.865649
     12          8           0        4.493644    0.127502   -1.237347
     13          1           0        6.266173    0.218661    0.181492
     14          1           0        3.053834   -0.652745    1.291903
     15          1           0        3.875713   -2.155460    0.912940
     16          1           0        1.401544   -1.797618    0.076547
     17          1           0        2.114062   -0.756938   -1.150801
     18          1           0        2.769121   -3.719850   -0.721458
     19          1           0        1.698207   -3.082025   -1.952954
     20          1           0        3.717801   -1.763761   -2.869569
     21          1           0        4.712620   -2.604484   -1.709107
     22          1           0        5.044555   -4.034957   -3.492549
     23          1           0        3.620548   -4.806877   -2.825594
     24          1           0        3.506524   -4.558399   -5.288096
     25          1           0        3.690876   -2.817435   -5.149000
     26          1           0        1.322646   -4.376407   -3.992878
     27          1           0        1.496868   -2.626261   -4.018136
     28          1           0        1.507826   -2.658018   -6.521879
     29          1           0        1.318305   -4.403696   -6.500350
     30          1           0       -0.894739   -3.284426   -6.862208
     31          1           0       -0.901511   -4.152812   -5.320841
     32          1           0       -0.709972   -2.395066   -5.344195
 ---------------------------------------------------------------------
                    Distance matrix (angstroms):
                    1          2          3          4          5
     1  O    0.000000
     2  C    1.352537   0.000000
     3  C    2.373663   1.511845   0.000000
     4  C    3.728328   2.545874   1.529129   0.000000
     5  C    4.412789   3.320632   2.572240   1.534071   0.000000
     6  C    4.193635   3.200013   3.150664   2.581304   1.534394
     7  C    5.538985   4.677985   4.613766   3.956971   2.578054
     8  C    6.687493   5.678442   5.664396   4.730467   3.446356
     9  C    7.236366   6.063242   5.777693   4.528659   3.377158
[...]
 Alpha virt. eigenvalues --    4.09558   4.14245   4.14438   4.17417   4.19727
 Alpha virt. eigenvalues --    4.21969   4.22858   4.28410   4.31494   4.34480
 Alpha virt. eigenvalues --    4.35765   4.37639   4.39023   4.44310   4.44527
 Alpha virt. eigenvalues --    4.46338   4.50286   4.51478   4.53420   4.53874
 Alpha virt. eigenvalues --    4.57305   4.59254   4.60723   4.61342   4.62619
 Alpha virt. eigenvalues --    4.64067   4.68193   4.69980   4.72179   4.76161
 Alpha virt. eigenvalues --    4.78684   4.79685   4.82068   4.85348   4.93068
 Alpha virt. eigenvalues --    4.99257   5.05824   5.08618   5.16994   5.21116
 Alpha virt. eigenvalues --    5.22918   5.38682   5.40315   5.50989   5.59439
 Alpha virt. eigenvalues --    5.74914   5.85471   5.87780   6.13850   6.19999
 Alpha virt. eigenvalues --    6.33420   6.33724   6.45359   6.49084   6.64089
 Alpha virt. eigenvalues --    6.69786   6.74250   6.83184   6.88076   7.07487
 Alpha virt. eigenvalues --    7.08653   7.26110  22.40880  22.47557  22.54856
 Alpha virt. eigenvalues --   22.56499  22.59527  22.60187  22.62695  22.65913
 Alpha virt. eigenvalues --   22.67692  23.28820  44.01001  44.06536
          Condensed to atoms (all electrons):
               1          2          3          4          5          6
     1  O    7.941957   0.364945  -0.117545   0.005744   0.004432  -0.012885
     2  C    0.364945   4.517531   0.242777  -0.010881  -0.003179   0.006970
     3  C   -0.117545   0.242777   5.395473   0.171726  -0.034655   0.015351
     4  C    0.005744  -0.010881   0.171726   5.190003   0.233973  -0.047483
     5  C    0.004432  -0.003179  -0.034655   0.233973   5.304834   0.160525
     6  C   -0.012885   0.006970   0.015351  -0.047483   0.160525   5.459809
     7  C   -0.000163   0.000022  -0.001760   0.010165  -0.019631   0.161238
     8  C   -0.000002  -0.000045  -0.000058  -0.000176  -0.007466  -0.029648
     9  C   -0.000000   0.000052   0.000174  -0.001175   0.006642   0.014476
    10  C   -0.000000  -0.000000   0.000006  -0.000134   0.001572  -0.002182
    11  C    0.000000   0.000000  -0.000000   0.000024  -0.000206   0.000254
    12  O   -0.089913   0.652683  -0.095392   0.006937  -0.001612   0.001293
    13  H    0.289525  -0.029079   0.019834  -0.001323  -0.000026   0.000317
    14  H    0.002003  -0.022380   0.400597  -0.030764   0.005046   0.000261
    15  H    0.005937  -0.030085   0.401306  -0.047173   0.009334  -0.007499
    16  H   -0.000125   0.004571  -0.042301   0.434967  -0.054131   0.011164
    17  H    0.000669  -0.004932  -0.044334   0.432131  -0.035383  -0.008311
    18  H   -0.000184   0.000488  -0.012769  -0.018885   0.422138  -0.060153
    19  H    0.000023   0.000177   0.009517  -0.057851   0.447000  -0.049904
    20  H    0.000064  -0.000348  -0.006222   0.010272  -0.058919   0.423478
    21  H    0.009091  -0.004228   0.009390  -0.018311  -0.033745   0.410290
    22  H   -0.000000   0.000003   0.000008  -0.000343   0.005522  -0.045290
    23  H    0.000007  -0.000035  -0.000115   0.000848  -0.007816  -0.064839
    24  H   -0.000000   0.000002  -0.000001   0.000054  -0.000792   0.012992
    25  H    0.000000  -0.000016  -0.000002   0.000007   0.001641  -0.016174
    26  H    0.000000  -0.000005  -0.000029   0.000349  -0.000381  -0.007266
    27  H   -0.000001   0.000049  -0.000008   0.000903  -0.013451   0.019401
    28  H    0.000000  -0.000000  -0.000000   0.000002   0.000014  -0.000065
    29  H    0.000000   0.000000   0.000000   0.000002  -0.000086   0.000092
    30  H    0.000000   0.000000   0.000000  -0.000000   0.000003  -0.000004
    31  H   -0.000000   0.000000  -0.000000  -0.000003   0.000015   0.000020
    32  H   -0.000000  -0.000000   0.000000   0.000006  -0.000026  -0.000042
               7          8          9         10         11         12
     1  O   -0.000163  -0.000002  -0.000000  -0.000000   0.000000  -0.089913
     2  C    0.000022  -0.000045   0.000052  -0.000000   0.000000   0.652683
     3  C   -0.001760  -0.000058   0.000174   0.000006  -0.000000  -0.095392
     4  C    0.010165  -0.000176  -0.001175  -0.000134   0.000024   0.006937
     5  C   -0.019631  -0.007466   0.006642   0.001572  -0.000206  -0.001612
     6  C    0.161238  -0.029648   0.014476  -0.002182   0.000254   0.001293
     7  C    5.179471   0.250379  -0.044330   0.010952  -0.001121   0.000536
     8  C    0.250379   5.204549   0.201654  -0.047603   0.012508  -0.000133
     9  C   -0.044330   0.201654   5.347734   0.243993  -0.057871   0.000059
    10  C    0.010952  -0.047603   0.243993   5.109733   0.268797  -0.000000
    11  C   -0.001121   0.012508  -0.057871   0.268797   5.039636   0.000000
    12  O    0.000536  -0.000133   0.000059  -0.000000   0.000000   7.845465
    13  H   -0.000021   0.000005  -0.000001   0.000000  -0.000000   0.006298
    14  H    0.000034  -0.000000   0.000002  -0.000000  -0.000000   0.000111
    15  H    0.000043   0.000000  -0.000002  -0.000000   0.000000   0.004183
    16  H   -0.000465   0.000024  -0.000027  -0.000000  -0.000000   0.000505
    17  H   -0.000307  -0.000122   0.000273  -0.000007   0.000002   0.006327
    18  H   -0.004813   0.002180  -0.001314  -0.000040   0.000005  -0.000141
    19  H    0.000421  -0.001181  -0.002105   0.001141  -0.000036   0.000023
    20  H   -0.042714   0.009578  -0.010666  -0.000276   0.000045   0.002837
    21  H   -0.029412   0.004555  -0.000048   0.000053  -0.000003  -0.006261
    22  H    0.440802  -0.054627   0.010863  -0.000513   0.000031   0.000011
    23  H    0.444459  -0.039776  -0.011663  -0.000645   0.000024  -0.000011
    24  H   -0.054192   0.440262  -0.047011  -0.004849  -0.000079   0.000000
    25  H   -0.029920   0.436930  -0.060385  -0.003988  -0.000386   0.000000
    26  H    0.010104  -0.051238   0.415049  -0.031589  -0.005408  -0.000001
    27  H   -0.019979  -0.033394   0.413844  -0.031701  -0.004813  -0.000029
    28  H    0.000152  -0.003833  -0.047421   0.427648  -0.040525   0.000000
    29  H   -0.000682  -0.005428  -0.055301   0.435603  -0.039162  -0.000000
    30  H    0.000038  -0.000788   0.013303  -0.051947   0.422465   0.000000
    31  H   -0.000046  -0.000217  -0.004848  -0.042619   0.413740   0.000000
    32  H    0.000028  -0.000461  -0.006802  -0.040906   0.415679   0.000000
              13         14         15         16         17         18
     1  O    0.289525   0.002003   0.005937  -0.000125   0.000669  -0.000184
     2  C   -0.029079  -0.022380  -0.030085   0.004571  -0.004932   0.000488
     3  C    0.019834   0.400597   0.401306  -0.042301  -0.044334  -0.012769
     4  C   -0.001323  -0.030764  -0.047173   0.434967   0.432131  -0.018885
     5  C   -0.000026   0.005046   0.009334  -0.054131  -0.035383   0.422138
     6  C    0.000317   0.000261  -0.007499   0.011164  -0.008311  -0.060153
     7  C   -0.000021   0.000034   0.000043  -0.000465  -0.000307  -0.004813
     8  C    0.000005  -0.000000   0.000000   0.000024  -0.000122   0.002180
     9  C   -0.000001   0.000002  -0.000002  -0.000027   0.000273  -0.001314
    10  C    0.000000  -0.000000  -0.000000  -0.000000  -0.000007  -0.000040
    11  C   -0.000000  -0.000000   0.000000  -0.000000   0.000002   0.000005
    12  O    0.006298   0.000111   0.004183   0.000505   0.006327  -0.000141
    13  H    0.381221  -0.000572  -0.000895   0.000030  -0.000042   0.000023
    14  H   -0.000572   0.498066  -0.015565  -0.006843  -0.001110  -0.000286
    15  H   -0.000895  -0.015565   0.499763  -0.000691   0.005567   0.002621
    16  H    0.000030  -0.006843  -0.000691   0.537241  -0.018074  -0.003260
    17  H   -0.000042  -0.001110   0.005567  -0.018074   0.485509   0.004625
    18  H    0.000023  -0.000286   0.002621  -0.003260   0.004625   0.527037
    19  H   -0.000008  -0.000140   0.000012  -0.006704  -0.002749  -0.017779
    20  H    0.000016  -0.000062   0.000271   0.000121   0.000065   0.005507
    21  H   -0.000637   0.000301   0.000658  -0.000621   0.001577  -0.002763
    22  H    0.000004  -0.000003   0.000020   0.000018  -0.000007   0.000339
    23  H   -0.000000  -0.000000   0.000019  -0.000006  -0.000015   0.001575
    24  H   -0.000000  -0.000000  -0.000000  -0.000002  -0.000001  -0.000012
    25  H   -0.000000   0.000000   0.000000   0.000004   0.000002  -0.000020
    26  H    0.000000   0.000000   0.000001   0.000023   0.000003   0.000391
    27  H    0.000000   0.000000   0.000001  -0.000116   0.000562   0.000612
    28  H   -0.000000   0.000000   0.000000   0.000000   0.000002   0.000002
    29  H    0.000000   0.000000  -0.000000  -0.000000   0.000000   0.000000
    30  H   -0.000000   0.000000  -0.000000   0.000000  -0.000000  -0.000000
    31  H   -0.000000   0.000000  -0.000000  -0.000000   0.000001   0.000001
    32  H    0.000000  -0.000000   0.000000   0.000000   0.000003  -0.000001
              19         20         21         22         23         24
     1  O    0.000023   0.000064   0.009091  -0.000000   0.000007  -0.000000
     2  C    0.000177  -0.000348  -0.004228   0.000003  -0.000035   0.000002
     3  C    0.009517  -0.006222   0.009390   0.000008  -0.000115  -0.000001
     4  C   -0.057851   0.010272  -0.018311  -0.000343   0.000848   0.000054
     5  C    0.447000  -0.058919  -0.033745   0.005522  -0.007816  -0.000792
     6  C   -0.049904   0.423478   0.410290  -0.045290  -0.064839   0.012992
     7  C    0.000421  -0.042714  -0.029412   0.440802   0.444459  -0.054192
     8  C   -0.001181   0.009578   0.004555  -0.054627  -0.039776   0.440262
     9  C   -0.002105  -0.010666  -0.000048   0.010863  -0.011663  -0.047011
    10  C    0.001141  -0.000276   0.000053  -0.000513  -0.000645  -0.004849
    11  C   -0.000036   0.000045  -0.000003   0.000031   0.000024  -0.000079
    12  O    0.000023   0.002837  -0.006261   0.000011  -0.000011   0.000000
    13  H   -0.000008   0.000016  -0.000637   0.000004  -0.000000  -0.000000
    14  H   -0.000140  -0.000062   0.000301  -0.000003  -0.000000  -0.000000
    15  H    0.000012   0.000271   0.000658   0.000020   0.000019  -0.000000
    16  H   -0.006704   0.000121  -0.000621   0.000018  -0.000006  -0.000002
    17  H   -0.002749   0.000065   0.001577  -0.000007  -0.000015  -0.000001
    18  H   -0.017779   0.005507  -0.002763   0.000339   0.001575  -0.000012
    19  H    0.521447   0.001321   0.004409  -0.000193   0.000951   0.000009
    20  H    0.001321   0.488862  -0.021028   0.002353   0.005312   0.000206
    21  H    0.004409  -0.021028   0.535445  -0.010664   0.001287  -0.000172
    22  H   -0.000193   0.002353  -0.010664   0.539768  -0.021158  -0.006661
    23  H    0.000951   0.005312   0.001287  -0.021158   0.534634  -0.001927
    24  H    0.000009   0.000206  -0.000172  -0.006661  -0.001927   0.539359
    25  H   -0.000065   0.002253  -0.000266  -0.003392   0.006168  -0.022530
    26  H   -0.003952   0.000994  -0.000171   0.000173   0.001458  -0.002392
    27  H   -0.004323  -0.000116   0.000285  -0.000545   0.001835   0.005800
    28  H   -0.000053   0.000082  -0.000008   0.000019  -0.000037   0.000484
    29  H    0.000002  -0.000008   0.000002  -0.000048   0.000169   0.002206
    30  H    0.000002  -0.000001   0.000000  -0.000001  -0.000001  -0.000002
    31  H    0.000009  -0.000001  -0.000000   0.000000  -0.000011   0.000122
    32  H    0.000067  -0.000002   0.000000  -0.000000   0.000004  -0.000042
              25         26         27         28         29         30
     1  O    0.000000   0.000000  -0.000001   0.000000   0.000000   0.000000
     2  C   -0.000016  -0.000005   0.000049  -0.000000   0.000000   0.000000
     3  C   -0.000002  -0.000029  -0.000008  -0.000000   0.000000   0.000000
     4  C    0.000007   0.000349   0.000903   0.000002   0.000002  -0.000000
     5  C    0.001641  -0.000381  -0.013451   0.000014  -0.000086   0.000003
     6  C   -0.016174  -0.007266   0.019401  -0.000065   0.000092  -0.000004
     7  C   -0.029920   0.010104  -0.019979   0.000152  -0.000682   0.000038
     8  C    0.436930  -0.051238  -0.033394  -0.003833  -0.005428  -0.000788
     9  C   -0.060385   0.415049   0.413844  -0.047421  -0.055301   0.013303
    10  C   -0.003988  -0.031589  -0.031701   0.427648   0.435603  -0.051947
    11  C   -0.000386  -0.005408  -0.004813  -0.040525  -0.039162   0.422465
    12  O    0.000000  -0.000001  -0.000029   0.000000  -0.000000   0.000000
    13  H   -0.000000   0.000000   0.000000  -0.000000   0.000000  -0.000000
    14  H    0.000000   0.000000   0.000000   0.000000   0.000000   0.000000
    15  H    0.000000   0.000001   0.000001   0.000000  -0.000000  -0.000000
    16  H    0.000004   0.000023  -0.000116   0.000000  -0.000000   0.000000
    17  H    0.000002   0.000003   0.000562   0.000002   0.000000  -0.000000
    18  H   -0.000020   0.000391   0.000612   0.000002   0.000000  -0.000000
    19  H   -0.000065  -0.003952  -0.004323  -0.000053   0.000002   0.000002
    20  H    0.002253   0.000994  -0.000116   0.000082  -0.000008  -0.000001
    21  H   -0.000266  -0.000171   0.000285  -0.000008   0.000002   0.000000
    22  H   -0.003392   0.000173  -0.000545   0.000019  -0.000048  -0.000001
    23  H    0.006168   0.001458   0.001835  -0.000037   0.000169  -0.000001
    24  H   -0.022530  -0.002392   0.005800   0.000484   0.002206  -0.000002
    25  H    0.531869   0.006697  -0.002700   0.001774   0.000813   0.000003
    26  H    0.006697   0.555376  -0.037024   0.007696  -0.006684  -0.000107
    27  H   -0.002700  -0.037024   0.557041  -0.007234   0.008065  -0.000090
    28  H    0.001774   0.007696  -0.007234   0.566775  -0.034192  -0.004228
    29  H    0.000813  -0.006684   0.008065  -0.034192   0.566653  -0.004039
    30  H    0.000003  -0.000107  -0.000090  -0.004228  -0.004039   0.532985
    31  H   -0.000047   0.002716  -0.000086   0.007674  -0.005645  -0.024906
    32  H    0.000141   0.000245   0.002766  -0.005479   0.007428  -0.024281
              31         32
     1  O   -0.000000  -0.000000
     2  C    0.000000  -0.000000
     3  C   -0.000000   0.000000
     4  C   -0.000003   0.000006
     5  C    0.000015  -0.000026
     6  C    0.000020  -0.000042
     7  C   -0.000046   0.000028
     8  C   -0.000217  -0.000461
     9  C   -0.004848  -0.006802
    10  C   -0.042619  -0.040906
    11  C    0.413740   0.415679
    12  O    0.000000   0.000000
    13  H   -0.000000   0.000000
    14  H    0.000000  -0.000000
    15  H   -0.000000   0.000000
    16  H   -0.000000   0.000000
    17  H    0.000001   0.000003
    18  H    0.000001  -0.000001
    19  H    0.000009   0.000067
    20  H   -0.000001  -0.000002
    21  H   -0.000000   0.000000
    22  H    0.000000  -0.000000
    23  H   -0.000011   0.000004
    24  H    0.000122  -0.000042
    25  H   -0.000047   0.000141
    26  H    0.002716   0.000245
    27  H   -0.000086   0.002766
    28  H    0.007674  -0.005479
    29  H   -0.005645   0.007428
    30  H   -0.024906  -0.024281
    31  H    0.551526  -0.031922
    32  H   -0.031922   0.547065
 Mulliken charges:
               1
     1  O   -0.403578
     2  C    0.314944
     3  C   -0.310967
     4  C   -0.263613
     5  C   -0.331187
     6  C   -0.346185
     7  C   -0.259290
     8  C   -0.286429
     9  C   -0.317147
    10  C   -0.240501
    11  C   -0.423601
    12  O   -0.333775
    13  H    0.335330
    14  H    0.171306
    15  H    0.172174
    16  H    0.144699
    17  H    0.178077
    18  H    0.154877
    19  H    0.160510
    20  H    0.186727
    21  H    0.150995
    22  H    0.143509
    23  H    0.149304
    24  H    0.139169
    25  H    0.151588
    26  H    0.144970
    27  H    0.144446
    28  H    0.130752
    29  H    0.130238
    30  H    0.141596
    31  H    0.134528
    32  H    0.136530
 Sum of Mulliken charges =  -0.00000
 Mulliken charges with hydrogens summed into heavy atoms:
               1
     1  O   -0.068248
     2  C    0.314944
     3  C    0.032514
     4  C    0.059163
     5  C   -0.015800
     6  C   -0.008462
     7  C    0.033523
     8  C    0.004328
     9  C   -0.027731
    10  C    0.020490
    11  C   -0.010947
    12  O   -0.333775
 Electronic spatial extent (au):  <R**2>=           3761.6735
 Charge=             -0.0000 electrons
 Dipole moment (field-independent basis, Debye):
    X=              0.3790    Y=              0.3764    Z=             -1.3192  Tot=              1.4232
 Quadrupole moment (field-independent basis, Debye-Ang):
   XX=            -74.1236   YY=            -75.9160   ZZ=            -79.7747
   XY=              0.7603   XZ=             -1.0562   YZ=              4.0862
 Traceless Quadrupole moment (field-independent basis, Debye-Ang):
   XX=              2.4811   YY=              0.6888   ZZ=             -3.1699
   XY=              0.7603   XZ=             -1.0562   YZ=              4.0862
 Octapole moment (field-independent basis, Debye-Ang**2):
  XXX=             49.3060  YYY=              3.3782  ZZZ=              0.2235  XYY=             21.3038
  XXY=              7.1742  XXZ=             11.0504  XZZ=              7.6682  YZZ=              6.4236
  YYZ=              4.6452  XYZ=             15.9921
 Hexadecapole moment (field-independent basis, Debye-Ang**3):
 XXXX=          -3872.0183 YYYY=           -667.5442 ZZZZ=           -440.9831 XXXY=             12.8861
 XXXZ=            100.6013 YYYX=              5.8166 YYYZ=              9.4105 ZZZX=              9.9120
 ZZZY=             12.6002 XXYY=           -745.4210 XXZZ=           -709.8283 YYZZ=           -180.0863
 XXYZ=             53.7841 YYXZ=             21.1370 ZZXY=             28.0861
 N-N= 7.247371832509D+02 E-N=-2.714465233341D+03  KE= 5.405713967285D+02
 Unable to Open any file for archive entry.
 1\1\GINC-NOTCH075\SP\RM062X\def2TZVP\C10H20O2\U6032257\03-Feb-2022\0\\
 # M062X/def2tzvp int=(grid=ultrafine) nmr=giao guess=read geom=check\\
 Ac1.xyz\\0,1\O,0,5.7173964782,-0.5864464511,0.1845883149\C,0,4.4520271
 82,-0.3825571542,-0.2591654897\C,0,3.4439224114,-1.2318685098,0.482634
 0395\C,0,2.2764761137,-1.6859412678,-0.4048032889\C,0,2.5930158236,-2.
 9030979775,-1.2839248295\C,0,3.7719803575,-2.7151494915,-2.2496773559\
 C,0,3.9620649057,-3.8848033313,-3.2370694166\C,0,3.2810975766,-3.69624
 01702,-4.6010161671\C,0,1.7590654019,-3.5311968529,-4.564544517\C,0,1.
 1334751461,-3.4431328645,-5.9597860992\C,0,-0.3854181049,-3.2633513431
 ,-5.9242201787\O,0,4.1937687977,0.4185280006,-1.1310890434\H,0,6.27901
 12681,0.0231370458,-0.3241186856\H,0,3.0685020481,-0.6013595636,1.2990
 156917\H,0,3.9548920235,-2.0787606023,0.9500159042\H,0,1.4231747604,-1
 .9277333543,0.2382015115\H,0,1.9752221998,-0.8387457555,-1.0304869151\
 H,0,2.8039909854,-3.7682188696,-0.639268337\H,0,1.690976255,-3.1627132
 47,-1.8476486349\H,0,3.6491416129,-1.7769901301,-2.8051984191\H,0,4.68
 9715071,-2.5944420754,-1.6615513083\H,0,5.0330736794,-4.0350706536,-3.
 4171655971\H,0,3.6030547346,-4.8145573414,-2.7740076869\H,0,3.52724472
 24,-4.5568809183,-5.2377196911\H,0,3.7198942296,-2.8186063046,-5.09604
 30983\H,0,1.3107696238,-4.3738107007,-4.0188801619\H,0,1.4958217652,-2
 .6265322767,-4.001720809\H,0,1.5903565836,-2.607626576,-6.506815199\H,
 0,1.3846186917,-4.3499207167,-6.5261709658\H,0,-0.8080374866,-3.203945
 9539,-6.9321880766\H,0,-0.8693439548,-4.1004271032,-5.4084444747\H,0,-
 0.6609509024,-2.3457374895,-5.3924310153\\Version=ES64L-G16RevC.01\Sta
 te=1-A\HF=-543.54038\RMSD=2.834e-09\Dipole=0.1043657,-0.4223102,0.3525
 314\Quadrupole=1.9942903,-3.8879236,1.8936333,1.484961,-0.4375185,1.01
 94922\PG=C01 [X(C10H20O2)]\\@
 The archive entry for this job was punched.


 ART, GLORY, FREEDOM FAIL, BUT NATURE STILL IS FAIR.

                                           -- BYRON
 Job cpu time:       0 days  0 hours 39 minutes 19.7 seconds.
 Elapsed time:       0 days  0 hours  1 minutes 24.8 seconds.
 File lengths (MBytes):  RWF=    140 Int=      0 D2E=      0 Chk=     24 Scr=      1
 Normal termination of Gaussian 16 at Thu Feb  3 09:55:53 2022.
