 Entering Gaussian System, Link 0=/uufs/chpc.utah.edu/sys/installdir/gaussian16/C01/AVX2/g16/g16
 Input=Ac1_clust-18.com
 Output=Ac1_clust-18.log
 Initial command:
 /uufs/chpc.utah.edu/sys/installdir/gaussian16/C01/AVX2/g16/l1.exe "/scratch/general/lustre/u6032257/3857473/notchpeak.peaks/Gau-190286.inp" -scrdir="/scratch/general/lustre/u6032257/3857473/notchpeak.peaks/"
 Entering Link 1 = /uufs/chpc.utah.edu/sys/installdir/gaussian16/C01/AVX2/g16/l1.exe PID=    190288.
  
 Copyright (c) 1988-2019, Gaussian, Inc.  All Rights Reserved.
  
 This is part of the Gaussian(R) 16 program.  It is based on
 the Gaussian(R) 09 system (copyright 2009, Gaussian, Inc.),
 the Gaussian(R) 03 system (copyright 2003, Gaussian, Inc.),
 the Gaussian(R) 98 system (copyright 1998, Gaussian, Inc.),
 the Gaussian(R) 94 system (copyright 1995, Gaussian, Inc.),
 the Gaussian 92(TM) system (copyright 1992, Gaussian, Inc.),
 the Gaussian 90(TM) system (copyright 1990, Gaussian, Inc.),
 the Gaussian 88(TM) system (copyright 1988, Gaussian, Inc.),
 the Gaussian 86(TM) system (copyright 1986, Carnegie Mellon
 University), and the Gaussian 82(TM) system (copyright 1983,
 Carnegie Mellon University). Gaussian is a federally registered
 trademark of Gaussian, Inc.
  
 This software contains proprietary and confidential information,
 including trade secrets, belonging to Gaussian, Inc.
  
 This software is provided under written license and may be
 used, copied, transmitted, or stored only in accord with that
 written license.
  
 The following legend is applicable only to US Government
 contracts under FAR:
  
                    RESTRICTED RIGHTS LEGEND
  
 Use, reproduction and disclosure by the US Government is
 subject to restrictions as set forth in subparagraphs (a)
 and (c) of the Commercial Computer Software - Restricted
 Rights clause in FAR 52.227-19.
  
 Gaussian, Inc.
 340 Quinnipiac St., Bldg. 40, Wallingford CT 06492
  
  
 ---------------------------------------------------------------
 Warning -- This program may not be used in any manner that
 competes with the business of Gaussian, Inc. or will provide
 assistance to any competitor of Gaussian, Inc.  The licensee
 of this program is prohibited from giving any competitor of
 Gaussian, Inc. access to this program.  By using this program,
 the user acknowledges that Gaussian, Inc. is engaged in the
 business of creating and licensing software in the field of
 computational chemistry and represents and warrants to the
 licensee that it is not a competitor of Gaussian, Inc. and that
 it will not use this program in any manner prohibited above.
 ---------------------------------------------------------------
  

 Cite this work as:
 Gaussian 16, Revision C.01,
 M. J. Frisch, G. W. Trucks, H. B. Schlegel, G. E. Scuseria, 
 M. A. Robb, J. R. Cheeseman, G. Scalmani, V. Barone, 
 G. A. Petersson, H. Nakatsuji, X. Li, M. Caricato, A. V. Marenich, 
 J. Bloino, B. G. Janesko, R. Gomperts, B. Mennucci, H. P. Hratchian, 
 J. V. Ortiz, A. F. Izmaylov, J. L. Sonnenberg, D. Williams-Young, 
 F. Ding, F. Lipparini, F. Egidi, J. Goings, B. Peng, A. Petrone, 
 T. Henderson, D. Ranasinghe, V. G. Zakrzewski, J. Gao, N. Rega, 
 G. Zheng, W. Liang, M. Hada, M. Ehara, K. Toyota, R. Fukuda, 
 J. Hasegawa, M. Ishida, T. Nakajima, Y. Honda, O. Kitao, H. Nakai, 
 T. Vreven, K. Throssell, J. A. Montgomery, Jr., J. E. Peralta, 
 F. Ogliaro, M. J. Bearpark, J. J. Heyd, E. N. Brothers, K. N. Kudin, 
 V. N. Staroverov, T. A. Keith, R. Kobayashi, J. Normand, 
 K. Raghavachari, A. P. Rendell, J. C. Burant, S. S. Iyengar, 
 J. Tomasi, M. Cossi, J. M. Millam, M. Klene, C. Adamo, R. Cammi, 
 J. W. Ochterski, R. L. Martin, K. Morokuma, O. Farkas, 
 J. B. Foresman, and D. J. Fox, Gaussian, Inc., Wallingford CT, 2019.
 
 ******************************************
 Gaussian 16:  ES64L-G16RevC.01  3-Jul-2019
                 3-Feb-2022 
 ******************************************
 %NProcShared=32
 Will use up to   32 processors via shared memory.
 %mem=16GB
 %chk=Ac1_clust-18.chk
 ----------------------------------------------------------------------
 # B3LYP/6-31G(d,p) empiricaldispersion=GD3BJ int=(grid=ultrafine) opt 
 freq=noraman
 ----------------------------------------------------------------------
 1/18=20,19=15,26=4,38=1/1,3;
 2/9=110,12=2,17=6,18=5,40=1/2;
 3/5=1,6=6,7=101,11=2,25=1,30=1,71=1,74=-5,75=-5,124=41/1,2,3;
 4//1;
 5/5=2,38=5/2;
 6/7=2,8=2,9=2,10=2,28=1/1;
 7//1,2,3,16;
 1/18=20,19=15,26=4/3(2);
 2/9=110/2;
 99//99;
 2/9=110/2;
 3/5=1,6=6,7=101,11=2,25=1,30=1,71=1,74=-5,75=-5,124=41/1,2,3;
 4/5=5,16=3,69=1/1;
 5/5=2,38=5/2;
 7//1,2,3,16;
 1/18=20,19=15,26=4/3(-5);
 2/9=110/2;
 6/7=2,8=2,9=2,10=2,19=2,28=1/1;
 99/9=1/99;
 -------
 Ac1.xyz
 -------
 Symbolic Z-matrix:
 Charge =  0 Multiplicity = 1
 O                     6.2069   -0.7717   -0.7211 
 C                     4.9306   -0.7998   -0.2832 
 C                     4.5033   -2.2099    0.1258 
 C                     2.9895   -2.4055    0.4087 
 C                     2.1264   -2.7283   -0.8306 
 C                     1.9943   -1.5764   -1.8471 
 C                     0.9759   -1.8425   -2.976 
 C                     1.2666   -3.0685   -3.8684 
 C                     2.6019   -2.9902   -4.6373 
 C                     2.8807   -4.2063   -5.5416 
 C                     1.9196   -4.338    -6.734 
 O                     4.2285    0.1992   -0.21 
 H                     6.3585    0.1491   -0.9368 
 H                     5.0599   -2.4109    1.0405 
 H                     4.8526   -2.9249   -0.6189 
 H                     2.8832   -3.2397    1.1047 
 H                     2.5749   -1.5449    0.9397 
 H                     2.5274   -3.6138   -1.3257 
 H                     1.128    -3.0079   -0.4896 
 H                     1.6954   -0.6693   -1.3184 
 H                     2.9663   -1.3476   -2.2831 
 H                    -0.0162   -1.9554   -2.5357 
 H                     0.9114   -0.954    -3.6065 
 H                     0.4462   -3.1667   -4.58 
 H                     1.24     -3.9786   -3.2678 
 H                     2.6312   -2.0766   -5.2337 
 H                     3.4224   -2.9051   -3.9237 
 H                     3.9003   -4.1319   -5.9236 
 H                     2.8546   -5.1212   -4.9472 
 H                     1.918    -3.4342   -7.3444 
 H                     2.2113   -5.1685   -7.3776 
 H                     0.8958   -4.525    -6.4097 
 

 GradGradGradGradGradGradGradGradGradGradGradGradGradGradGradGradGradGrad
 Berny optimization.
 Initialization pass.
                           ----------------------------
                           !    Initial Parameters    !
                           ! (Angstroms and Degrees)  !
 --------------------------                            --------------------------
 ! Name  Definition              Value          Derivative Info.                !
 --------------------------------------------------------------------------------
 ! R1    R(1,2)                  1.3496         estimate D2E/DX2                !
 ! R2    R(1,13)                 0.9578         estimate D2E/DX2                !
 ! R3    R(2,3)                  1.5291         estimate D2E/DX2                !
 ! R4    R(2,12)                 1.2232         estimate D2E/DX2                !
 ! R5    R(3,4)                  1.5524         estimate D2E/DX2                !
 ! R6    R(3,14)                 1.0894         estimate D2E/DX2                !
 ! R7    R(3,15)                 1.0899         estimate D2E/DX2                !
 ! R8    R(4,5)                  1.5443         estimate D2E/DX2                !
 ! R9    R(4,16)                 1.0916         estimate D2E/DX2                !
 ! R10   R(4,17)                 1.0929         estimate D2E/DX2                !
 ! R11   R(5,6)                  1.5419         estimate D2E/DX2                !
 ! R12   R(5,18)                 1.0909         estimate D2E/DX2                !
 ! R13   R(5,19)                 1.0914         estimate D2E/DX2                !
 ! R14   R(6,7)                  1.5435         estimate D2E/DX2                !
 ! R15   R(6,20)                 1.0916         estimate D2E/DX2                !
 ! R16   R(6,21)                 1.0896         estimate D2E/DX2                !
 ! R17   R(7,8)                  1.544          estimate D2E/DX2                !
 ! R18   R(7,22)                 1.0913         estimate D2E/DX2                !
 ! R19   R(7,23)                 1.0914         estimate D2E/DX2                !
 ! R20   R(8,9)                  1.5428         estimate D2E/DX2                !
 ! R21   R(8,24)                 1.0904         estimate D2E/DX2                !
 ! R22   R(8,25)                 1.0907         estimate D2E/DX2                !
 ! R23   R(9,10)                 1.5409         estimate D2E/DX2                !
 ! R24   R(9,26)                 1.0914         estimate D2E/DX2                !
 ! R25   R(9,27)                 1.0907         estimate D2E/DX2                !
 ! R26   R(10,11)                1.5372         estimate D2E/DX2                !
 ! R27   R(10,28)                1.0913         estimate D2E/DX2                !
 ! R28   R(10,29)                1.0913         estimate D2E/DX2                !
 ! R29   R(11,30)                1.0906         estimate D2E/DX2                !
 ! R30   R(11,31)                1.0904         estimate D2E/DX2                !
 ! R31   R(11,32)                1.0901         estimate D2E/DX2                !
 ! A1    A(2,1,13)             104.0498         estimate D2E/DX2                !
 ! A2    A(1,2,3)              111.7305         estimate D2E/DX2                !
 ! A3    A(1,2,12)             123.0382         estimate D2E/DX2                !
 ! A4    A(3,2,12)             125.22           estimate D2E/DX2                !
 ! A5    A(2,3,4)              115.94           estimate D2E/DX2                !
 ! A6    A(2,3,14)             104.5924         estimate D2E/DX2                !
 ! A7    A(2,3,15)             109.4298         estimate D2E/DX2                !
 ! A8    A(4,3,14)             108.7811         estimate D2E/DX2                !
 ! A9    A(4,3,15)             110.7562         estimate D2E/DX2                !
 ! A10   A(14,3,15)            106.793          estimate D2E/DX2                !
 ! A11   A(3,4,5)              115.156          estimate D2E/DX2                !
 ! A12   A(3,4,16)             107.905          estimate D2E/DX2                !
 ! A13   A(3,4,17)             111.0538         estimate D2E/DX2                !
 ! A14   A(5,4,16)             107.3073         estimate D2E/DX2                !
 ! A15   A(5,4,17)             110.027          estimate D2E/DX2                !
 ! A16   A(16,4,17)            104.7755         estimate D2E/DX2                !
 ! A17   A(4,5,6)              114.8819         estimate D2E/DX2                !
 ! A18   A(4,5,18)             109.1737         estimate D2E/DX2                !
 ! A19   A(4,5,19)             108.3041         estimate D2E/DX2                !
 ! A20   A(6,5,18)             109.7972         estimate D2E/DX2                !
 ! A21   A(6,5,19)             108.6005         estimate D2E/DX2                !
 ! A22   A(18,5,19)            105.6706         estimate D2E/DX2                !
 ! A23   A(5,6,7)              114.1981         estimate D2E/DX2                !
 ! A24   A(5,6,20)             108.9616         estimate D2E/DX2                !
 ! A25   A(5,6,21)             110.135          estimate D2E/DX2                !
 ! A26   A(7,6,20)             108.4709         estimate D2E/DX2                !
 ! A27   A(7,6,21)             109.398          estimate D2E/DX2                !
 ! A28   A(20,6,21)            105.2817         estimate D2E/DX2                !
 ! A29   A(6,7,8)              115.8105         estimate D2E/DX2                !
 ! A30   A(6,7,22)             108.819          estimate D2E/DX2                !
 ! A31   A(6,7,23)             108.7338         estimate D2E/DX2                !
 ! A32   A(8,7,22)             108.797          estimate D2E/DX2                !
 ! A33   A(8,7,23)             108.8841         estimate D2E/DX2                !
 ! A34   A(22,7,23)            105.2829         estimate D2E/DX2                !
 ! A35   A(7,8,9)              114.2485         estimate D2E/DX2                !
 ! A36   A(7,8,24)             107.8804         estimate D2E/DX2                !
 ! A37   A(7,8,25)             109.858          estimate D2E/DX2                !
 ! A38   A(9,8,24)             109.2988         estimate D2E/DX2                !
 ! A39   A(9,8,25)             109.7472         estimate D2E/DX2                !
 ! A40   A(24,8,25)            105.4171         estimate D2E/DX2                !
 ! A41   A(8,9,10)             114.1429         estimate D2E/DX2                !
 ! A42   A(8,9,26)             109.7577         estimate D2E/DX2                !
 ! A43   A(8,9,27)             109.206          estimate D2E/DX2                !
 ! A44   A(10,9,26)            109.5775         estimate D2E/DX2                !
 ! A45   A(10,9,27)            108.0242         estimate D2E/DX2                !
 ! A46   A(26,9,27)            105.7833         estimate D2E/DX2                !
 ! A47   A(9,10,11)            114.1878         estimate D2E/DX2                !
 ! A48   A(9,10,28)            108.7024         estimate D2E/DX2                !
 ! A49   A(9,10,29)            109.7339         estimate D2E/DX2                !
 ! A50   A(11,10,28)           108.5697         estimate D2E/DX2                !
 ! A51   A(11,10,29)           109.6159         estimate D2E/DX2                !
 ! A52   A(28,10,29)           105.6723         estimate D2E/DX2                !
 ! A53   A(10,11,30)           111.3504         estimate D2E/DX2                !
 ! A54   A(10,11,31)           110.8451         estimate D2E/DX2                !
 ! A55   A(10,11,32)           111.7861         estimate D2E/DX2                !
 ! A56   A(30,11,31)           107.5307         estimate D2E/DX2                !
 ! A57   A(30,11,32)           107.8958         estimate D2E/DX2                !
 ! A58   A(31,11,32)           107.2282         estimate D2E/DX2                !
 ! D1    D(13,1,2,3)          -179.5294         estimate D2E/DX2                !
 ! D2    D(13,1,2,12)           -0.6939         estimate D2E/DX2                !
 ! D3    D(1,2,3,4)           -169.7306         estimate D2E/DX2                !
 ! D4    D(1,2,3,14)            70.4944         estimate D2E/DX2                !
 ! D5    D(1,2,3,15)           -43.6103         estimate D2E/DX2                !
 ! D6    D(12,2,3,4)            11.4644         estimate D2E/DX2                !
 ! D7    D(12,2,3,14)         -108.3107         estimate D2E/DX2                !
 ! D8    D(12,2,3,15)          137.5846         estimate D2E/DX2                !
 ! D9    D(2,3,4,5)             86.361          estimate D2E/DX2                !
 ! D10   D(2,3,4,16)          -153.8288         estimate D2E/DX2                !
 ! D11   D(2,3,4,17)           -39.5262         estimate D2E/DX2                !
 ! D12   D(14,3,4,5)          -156.1654         estimate D2E/DX2                !
 ! D13   D(14,3,4,16)          -36.3551         estimate D2E/DX2                !
 ! D14   D(14,3,4,17)           77.9474         estimate D2E/DX2                !
 ! D15   D(15,3,4,5)           -39.0861         estimate D2E/DX2                !
 ! D16   D(15,3,4,16)           80.7242         estimate D2E/DX2                !
 ! D17   D(15,3,4,17)         -164.9733         estimate D2E/DX2                !
 ! D18   D(3,4,5,6)            -67.8514         estimate D2E/DX2                !
 ! D19   D(3,4,5,18)            55.966          estimate D2E/DX2                !
 ! D20   D(3,4,5,19)           170.5632         estimate D2E/DX2                !
 ! D21   D(16,4,5,6)           172.0095         estimate D2E/DX2                !
 ! D22   D(16,4,5,18)          -64.1731         estimate D2E/DX2                !
 ! D23   D(16,4,5,19)           50.4241         estimate D2E/DX2                !
 ! D24   D(17,4,5,6)            58.5625         estimate D2E/DX2                !
 ! D25   D(17,4,5,18)         -177.6201         estimate D2E/DX2                !
 ! D26   D(17,4,5,19)          -63.0229         estimate D2E/DX2                !
 ! D27   D(4,5,6,7)           -171.918          estimate D2E/DX2                !
 ! D28   D(4,5,6,20)           -50.4738         estimate D2E/DX2                !
 ! D29   D(4,5,6,21)            64.5376         estimate D2E/DX2                !
 ! D30   D(18,5,6,7)            64.596          estimate D2E/DX2                !
 ! D31   D(18,5,6,20)         -173.9598         estimate D2E/DX2                !
 ! D32   D(18,5,6,21)          -58.9485         estimate D2E/DX2                !
 ! D33   D(19,5,6,7)           -50.494          estimate D2E/DX2                !
 ! D34   D(19,5,6,20)           70.9502         estimate D2E/DX2                !
 ! D35   D(19,5,6,21)         -174.0385         estimate D2E/DX2                !
 ! D36   D(5,6,7,8)            -60.3068         estimate D2E/DX2                !
 ! D37   D(5,6,7,22)            62.5788         estimate D2E/DX2                !
 ! D38   D(5,6,7,23)           176.7603         estimate D2E/DX2                !
 ! D39   D(20,6,7,8)           177.9785         estimate D2E/DX2                !
 ! D40   D(20,6,7,22)          -59.1359         estimate D2E/DX2                !
 ! D41   D(20,6,7,23)           55.0456         estimate D2E/DX2                !
 ! D42   D(21,6,7,8)            63.6342         estimate D2E/DX2                !
 ! D43   D(21,6,7,22)         -173.4803         estimate D2E/DX2                !
 ! D44   D(21,6,7,23)          -59.2987         estimate D2E/DX2                !
 ! D45   D(6,7,8,9)            -61.3051         estimate D2E/DX2                !
 ! D46   D(6,7,8,24)           176.9467         estimate D2E/DX2                !
 ! D47   D(6,7,8,25)            62.521          estimate D2E/DX2                !
 ! D48   D(22,7,8,9)           175.7977         estimate D2E/DX2                !
 ! D49   D(22,7,8,24)           54.0495         estimate D2E/DX2                !
 ! D50   D(22,7,8,25)          -60.3762         estimate D2E/DX2                !
 ! D51   D(23,7,8,9)            61.5487         estimate D2E/DX2                !
 ! D52   D(23,7,8,24)          -60.1995         estimate D2E/DX2                !
 ! D53   D(23,7,8,25)         -174.6252         estimate D2E/DX2                !
 ! D54   D(7,8,9,10)          -179.2236         estimate D2E/DX2                !
 ! D55   D(7,8,9,26)           -55.7766         estimate D2E/DX2                !
 ! D56   D(7,8,9,27)            59.7654         estimate D2E/DX2                !
 ! D57   D(24,8,9,10)          -58.2583         estimate D2E/DX2                !
 ! D58   D(24,8,9,26)           65.1887         estimate D2E/DX2                !
 ! D59   D(24,8,9,27)         -179.2693         estimate D2E/DX2                !
 ! D60   D(25,8,9,10)           56.8909         estimate D2E/DX2                !
 ! D61   D(25,8,9,26)         -179.6622         estimate D2E/DX2                !
 ! D62   D(25,8,9,27)          -64.1201         estimate D2E/DX2                !
 ! D63   D(8,9,10,11)           66.9082         estimate D2E/DX2                !
 ! D64   D(8,9,10,28)         -171.7179         estimate D2E/DX2                !
 ! D65   D(8,9,10,29)          -56.6036         estimate D2E/DX2                !
 ! D66   D(26,9,10,11)         -56.6361         estimate D2E/DX2                !
 ! D67   D(26,9,10,28)          64.7378         estimate D2E/DX2                !
 ! D68   D(26,9,10,29)         179.8521         estimate D2E/DX2                !
 ! D69   D(27,9,10,11)        -171.4271         estimate D2E/DX2                !
 ! D70   D(27,9,10,28)         -50.0531         estimate D2E/DX2                !
 ! D71   D(27,9,10,29)          65.0611         estimate D2E/DX2                !
 ! D72   D(9,10,11,30)          56.0074         estimate D2E/DX2                !
 ! D73   D(9,10,11,31)         175.6707         estimate D2E/DX2                !
 ! D74   D(9,10,11,32)         -64.7593         estimate D2E/DX2                !
 ! D75   D(28,10,11,30)        -65.4398         estimate D2E/DX2                !
 ! D76   D(28,10,11,31)         54.2235         estimate D2E/DX2                !
 ! D77   D(28,10,11,32)        173.7934         estimate D2E/DX2                !
 ! D78   D(29,10,11,30)        179.5828         estimate D2E/DX2                !
 ! D79   D(29,10,11,31)        -60.7539         estimate D2E/DX2                !
 ! D80   D(29,10,11,32)         58.8161         estimate D2E/DX2                !
 --------------------------------------------------------------------------------
 Trust Radius=3.00D-01 FncErr=1.00D-07 GrdErr=1.00D-06 EigMax=2.50D+02 EigMin=1.00D-04
 Number of steps in this run=    179 maximum allowed number of steps=    192.
 GradGradGradGradGradGradGradGradGradGradGradGradGradGradGradGradGradGrad

                          Input orientation:                          
 ---------------------------------------------------------------------
 Center     Atomic      Atomic             Coordinates (Angstroms)
 Number     Number       Type             X           Y           Z
 ---------------------------------------------------------------------
      1          8           0        6.206900   -0.771700   -0.721100
      2          6           0        4.930600   -0.799800   -0.283200
      3          6           0        4.503300   -2.209900    0.125800
      4          6           0        2.989500   -2.405500    0.408700
      5          6           0        2.126400   -2.728300   -0.830600
      6          6           0        1.994300   -1.576400   -1.847100
      7          6           0        0.975900   -1.842500   -2.976000
      8          6           0        1.266600   -3.068500   -3.868400
      9          6           0        2.601900   -2.990200   -4.637300
     10          6           0        2.880700   -4.206300   -5.541600
     11          6           0        1.919600   -4.338000   -6.734000
     12          8           0        4.228500    0.199200   -0.210000
     13          1           0        6.358500    0.149100   -0.936800
     14          1           0        5.059900   -2.410900    1.040500
     15          1           0        4.852600   -2.924900   -0.618900
     16          1           0        2.883200   -3.239700    1.104700
     17          1           0        2.574900   -1.544900    0.939700
     18          1           0        2.527400   -3.613800   -1.325700
     19          1           0        1.128000   -3.007900   -0.489600
     20          1           0        1.695400   -0.669300   -1.318400
     21          1           0        2.966300   -1.347600   -2.283100
     22          1           0       -0.016200   -1.955400   -2.535700
     23          1           0        0.911400   -0.954000   -3.606500
     24          1           0        0.446200   -3.166700   -4.580000
     25          1           0        1.240000   -3.978600   -3.267800
     26          1           0        2.631200   -2.076600   -5.233700
     27          1           0        3.422400   -2.905100   -3.923700
     28          1           0        3.900300   -4.131900   -5.923600
     29          1           0        2.854600   -5.121200   -4.947200
     30          1           0        1.918000   -3.434200   -7.344400
     31          1           0        2.211300   -5.168500   -7.377600
     32          1           0        0.895800   -4.525000   -6.409700
 ---------------------------------------------------------------------
                    Distance matrix (angstroms):
                    1          2          3          4          5
     1  O    0.000000
     2  C    1.349625   0.000000
     3  C    2.384934   1.529133   0.000000
     4  C    3.781192   2.612445   1.552380   0.000000
     5  C    4.526671   3.447071   2.614019   1.544346   0.000000
     6  C    4.434120   3.416248   3.254034   2.601243   1.541946
     7  C    5.796080   4.896738   4.711549   3.978410   2.590566
     8  C    6.291848   5.605850   5.212202   4.658491   3.175409
     9  C    5.766662   5.401748   5.187611   5.094529   3.845212
    10  C    6.789500   6.592200   6.223975   6.217780   4.994695
    11  C    8.200878   7.949704   7.632901   7.476457   6.122420
    12  O    2.262286   1.223235   2.447864   2.949978   3.657079
    13  H    0.957800   1.834803   3.183672   4.436949   5.118728
    14  H    2.665674   2.089149   1.089441   2.164661   3.493878
    15  H    2.545750   2.152865   1.089869   2.190178   2.741466
    16  H    4.524550   3.474367   2.154868   1.091607   2.140015
    17  H    4.067864   2.756806   2.196221   1.092926   2.176132
    18  H    4.688475   3.844577   2.825238   2.163716   1.090887
    19  H    5.554224   4.402053   3.522523   2.152908   1.091448
    20  H    4.552020   3.399292   3.513327   2.769830   2.159442
    21  H    3.643212   2.856249   2.984749   2.892314   2.172906
    22  H    6.589453   5.556977   5.251117   4.231585   2.845255
    23  H    6.033331   5.217477   5.330018   4.748387   3.511408
    24  H    7.335721   6.646394   6.286500   5.651100   4.131981
    25  H    6.437390   5.712542   5.029309   4.364865   2.879045
    26  H    5.903554   5.605792   5.678624   5.663323   4.479601
    27  H    4.749893   4.467683   4.248541   4.382544   3.358294
    28  H    6.608884   6.631630   6.375965   6.626314   5.572743
    29  H    6.929357   6.688585   6.076941   6.006571   4.816912
    30  H    8.327765   8.116426   7.999161   7.894105   6.555251
    31  H    8.922201   8.764168   8.384962   8.298568   6.987488
    32  H    8.640325   8.227438   7.815786   7.440863   5.989062
                    6          7          8          9         10
     6  C    0.000000
     7  C    1.543491   0.000000
     8  C    2.615638   1.544008   0.000000
     9  C    3.186412   2.592491   1.542843   0.000000
    10  C    4.620759   3.974684   2.588340   1.540905   0.000000
    11  C    5.613716   4.608758   3.201516   2.584231   1.537165
    12  O    3.290061   4.732727   5.730149   5.693776   7.046343
    13  H    4.780401   6.090746   6.698856   6.136852   7.229715
    14  H    4.293312   5.756249   6.238498   6.214078   7.162152
    15  H    3.390694   4.664366   4.841412   4.606241   5.455580
    16  H    3.502832   4.716150   5.232058   5.754298   6.716221
    17  H    2.846813   4.240056   5.210646   5.761298   7.013117
    18  H    2.169574   2.875438   2.890033   3.370626   4.271966
    19  H    2.154640   2.750178   3.382184   4.401830   5.480039
    20  H    1.091648   2.154464   3.527397   4.150110   5.634778
    21  H    1.089601   2.164885   2.891998   2.893645   4.335587
    22  H    2.158685   1.091271   2.158855   3.513116   4.742786
    23  H    2.157671   1.091386   2.160062   2.840150   4.266170
    24  H    3.520570   2.146370   1.090447   2.163672   2.816422
    25  H    2.891007   2.172054   1.090738   2.169617   2.813167
    26  H    3.482083   2.809276   2.170263   1.091429   2.166258
    27  H    2.849067   2.830657   2.162691   1.090728   2.145731
    28  H    5.175062   4.741499   3.505858   2.154968   1.091349
    29  H    4.787102   4.262044   2.810539   2.168192   1.091345
    30  H    5.803236   4.743836   3.555367   2.827233   2.184724
    31  H    6.598235   5.653545   4.197254   3.522329   2.178261
    32  H    5.542406   4.358041   2.952472   2.899619   2.189748
                   11         12         13         14         15
    11  C    0.000000
    12  O    8.275251   0.000000
    13  H    8.570031   2.251144   0.000000
    14  H    8.603374   3.011245   3.485639   0.000000
    15  H    6.927755   3.211962   3.437771   1.749508   0.000000
    16  H    7.973707   3.919732   5.265871   2.330033   2.635988
    17  H    8.192466   2.664224   4.550441   2.633504   3.085701
    18  H    5.490318   4.321747   5.384049   3.668709   2.526006
    19  H    6.433376   4.469538   6.125746   4.261156   3.727768
    20  H    6.545101   2.898178   4.749726   4.462896   3.942708
    21  H    5.463386   2.878104   3.944573   4.069408   2.969102
    22  H    5.200945   5.297986   6.900884   6.226032   5.321585
    23  H    4.716904   4.885615   6.165633   6.397438   5.323839
    24  H    2.860519   6.688197   7.695630   7.310778   5.930020
    25  H    3.550432   5.977900   6.976425   5.967476   4.601938
    26  H    2.805567   5.741794   6.108179   6.736166   5.191398
    27  H    3.494195   4.906938   5.183666   5.250612   3.601051
    28  H    2.149976   7.177142   7.016971   7.266719   5.523003
    29  H    2.163396   7.255020   7.492442   6.932649   5.248802
    30  H    1.090617   8.333047   8.579943   9.012504   7.355516
    31  H    1.090431   9.179095   9.325237   9.305014   7.595409
    32  H    1.090094   8.477101   9.035537   8.792874   7.193744
                   16         17         18         19         20
    16  H    0.000000
    17  H    1.730497   0.000000
    18  H    2.484630   3.068329   0.000000
    19  H    2.382488   2.505352   1.739109   0.000000
    20  H    3.726827   2.576667   3.059797   2.545172   0.000000
    21  H    3.881255   3.252470   2.498982   3.058200   1.733760
    22  H    4.827883   4.354390   3.268683   2.569723   2.462813
    23  H    5.595340   4.876918   3.858502   3.739049   2.435387
    24  H    6.185476   6.134223   3.888671   4.149872   4.293663
    25  H    4.729147   5.040626   2.358438   2.945029   3.867689
    26  H    6.449157   6.196510   4.200741   5.062945   4.264480
    27  H    5.068284   5.120650   2.837761   4.131329   3.843035
    28  H    7.157340   7.453465   4.826382   6.203014   6.169202
    29  H    6.337693   6.893747   3.936315   5.226603   5.859296
    30  H    8.506276   8.522164   6.052138   6.913329   6.633770
    31  H    8.724743   9.079656   6.256397   7.299745   7.564579
    32  H    7.878322   8.106420   5.416591   6.115807   6.436390
                   21         22         23         24         25
    21  H    0.000000
    22  H    3.054265   0.000000
    23  H    2.475666   1.734894   0.000000
    24  H    3.864683   2.420790   2.461738   0.000000
    25  H    3.297257   2.491455   3.061193   1.735272   0.000000
    26  H    3.057740   3.781881   2.620252   2.527819   3.068844
    27  H    2.307683   3.827851   3.195705   3.058910   2.519023
    28  H    4.677384   5.617294   4.939790   3.829841   3.762176
    29  H    4.620602   4.907047   4.789474   3.123347   2.594774
    30  H    5.574010   5.389951   4.597448   3.143192   4.168300
    31  H    6.412740   6.223324   5.802839   3.866439   4.387453
    32  H    5.604611   4.737348   4.539847   2.322697   3.207579
                   26         27         28         29         30
    26  H    0.000000
    27  H    1.740261   0.000000
    28  H    2.512138   2.394374   0.000000
    29  H    3.066199   2.506202   1.739414   0.000000
    30  H    2.608982   3.774169   2.536725   3.077297   0.000000
    31  H    3.785825   4.303390   2.457921   2.514541   1.759240
    32  H    3.223236   3.897176   3.068850   2.516199   1.763066
                   31         32
    31  H    0.000000
    32  H    1.755410   0.000000
 Stoichiometry    C10H20O2
 Framework group  C1[X(C10H20O2)]
 Deg. of freedom    90
 Full point group                 C1      NOp   1
 Largest Abelian subgroup         C1      NOp   1
 Largest concise Abelian subgroup C1      NOp   1
                         Standard orientation:                         
 ---------------------------------------------------------------------
 Center     Atomic      Atomic             Coordinates (Angstroms)
 Number     Number       Type             X           Y           Z
 ---------------------------------------------------------------------
      1          8           0       -3.189048    2.169441   -0.153469
      2          6           0       -3.032728    0.831148   -0.231085
      3          6           0       -2.626517    0.229597    1.114789
      4          6           0       -2.180409   -1.257046    1.087196
      5          6           0       -0.687111   -1.488535    0.768639
      6          6           0       -0.266667   -1.125195   -0.669696
      7          6           0        1.174173   -1.543291   -1.032377
      8          6           0        2.292507   -0.919189   -0.169947
      9          6           0        2.364885    0.620204   -0.243388
     10          6           0        3.493700    1.239190    0.603383
     11          6           0        4.909444    0.904157    0.107099
     12          8           0       -3.221430    0.196195   -1.259448
     13          1           0       -3.446143    2.425312   -1.039930
     14          1           0       -3.518125    0.316799    1.734718
     15          1           0       -1.860878    0.854129    1.574758
     16          1           0       -2.371873   -1.683255    2.073752
     17          1           0       -2.803509   -1.841359    0.405425
     18          1           0       -0.078048   -0.932997    1.483101
     19          1           0       -0.458737   -2.541550    0.942607
     20          1           0       -0.952606   -1.603626   -1.371328
     21          1           0       -0.385715   -0.054999   -0.836246
     22          1           0        1.250485   -2.630335   -0.974202
     23          1           0        1.357255   -1.297706   -2.079894
     24          1           0        3.243109   -1.340737   -0.498167
     25          1           0        2.178900   -1.233671    0.868275
     26          1           0        2.472542    0.935332   -1.282773
     27          1           0        1.417928    1.040607    0.097522
     28          1           0        3.374170    2.323970    0.606562
     29          1           0        3.386951    0.927782    1.643894
     30          1           0        5.044849    1.197563   -0.934546
     31          1           0        5.661655    1.429167    0.696660
     32          1           0        5.123948   -0.161748    0.185463
 ---------------------------------------------------------------------
 Rotational constants (GHZ):           1.3328854           0.3464087           0.3144759
 Standard basis: 6-31G(d,p) (6D, 7F)
 There are   280 symmetry adapted cartesian basis functions of A   symmetry.
 There are   280 symmetry adapted basis functions of A   symmetry.
   280 basis functions,   476 primitive gaussians,   280 cartesian basis functions
    48 alpha electrons       48 beta electrons
       nuclear repulsion energy       722.3190625988 Hartrees.
 NAtoms=   32 NActive=   32 NUniq=   32 SFac= 1.00D+00 NAtFMM=   60 NAOKFM=F Big=F
 Integral buffers will be    131072 words long.
 Raffenetti 2 integral format.
 Two-electron integral symmetry is turned on.
 Nuclear repulsion after empirical dispersion term =      722.2703412602 Hartrees.
 One-electron integrals computed using PRISM.
 NBasis=   280 RedAO= T EigKep=  3.44D-03  NBF=   280
 NBsUse=   280 1.00D-06 EigRej= -1.00D+00 NBFU=   280
 ExpMin= 1.61D-01 ExpMax= 5.48D+03 ExpMxC= 8.25D+02 IAcc=3 IRadAn=         5 AccDes= 0.00D+00
 Harris functional with IExCor=  402 and IRadAn=       5 diagonalized for initial guess.
 HarFok:  IExCor=  402 AccDes= 0.00D+00 IRadAn=         5 IDoV= 1 UseB2=F ITyADJ=14
 ICtDFT=  3500011 ScaDFX=  1.000000  1.000000  1.000000  1.000000
 FoFCou: FMM=F IPFlag=           0 FMFlag=      100000 FMFlg1=           0
         NFxFlg=           0 DoJE=T BraDBF=F KetDBF=T FulRan=T
         wScrn=  0.000000 ICntrl=       500 IOpCl=  0 I1Cent=   200000004 NGrid=           0
         NMat0=    1 NMatS0=      1 NMatT0=    0 NMatD0=    1 NMtDS0=    0 NMtDT0=    0
 Petite list used in FoFCou.
 Requested convergence on RMS density matrix=1.00D-08 within 128 cycles.
 Requested convergence on MAX density matrix=1.00D-06.
 Requested convergence on             energy=1.00D-06.
 No special actions if energy rises.
 Integral accuracy reduced to 1.0D-05 until final iterations.
 Initial convergence to 1.0D-05 achieved.  Increase integral accuracy.
 SCF Done:  E(RB3LYP) =  -543.664240535     A.U. after   13 cycles
            NFock= 13  Conv=0.73D-08     -V/T= 2.0097

 **********************************************************************

            Population analysis using the SCF Density.

 **********************************************************************

 Orbital symmetries:
       Occupied  (A) (A) (A) (A) (A) (A) (A) (A) (A) (A) (A) (A)
                 (A) (A) (A) (A) (A) (A) (A) (A) (A) (A) (A) (A)
                 (A) (A) (A) (A) (A) (A) (A) (A) (A) (A) (A) (A)
                 (A) (A) (A) (A) (A) (A) (A) (A) (A) (A) (A) (A)
       Virtual   (A) (A) (A) (A) (A) (A) (A) (A) (A) (A) (A) (A)
                 (A) (A) (A) (A) (A) (A) (A) (A) (A) (A) (A) (A)
                 (A) (A) (A) (A) (A) (A) (A) (A) (A) (A) (A) (A)
                 (A) (A) (A) (A) (A) (A) (A) (A) (A) (A) (A) (A)
                 (A) (A) (A) (A) (A) (A) (A) (A) (A) (A) (A) (A)
                 (A) (A) (A) (A) (A) (A) (A) (A) (A) (A) (A) (A)
                 (A) (A) (A) (A) (A) (A) (A) (A) (A) (A) (A) (A)
                 (A) (A) (A) (A) (A) (A) (A) (A) (A) (A) (A) (A)
                 (A) (A) (A) (A) (A) (A) (A) (A) (A) (A) (A) (A)
                 (A) (A) (A) (A) (A) (A) (A) (A) (A) (A) (A) (A)
                 (A) (A) (A) (A) (A) (A) (A) (A) (A) (A) (A) (A)
                 (A) (A) (A) (A) (A) (A) (A) (A) (A) (A) (A) (A)
                 (A) (A) (A) (A) (A) (A) (A) (A) (A) (A) (A) (A)
                 (A) (A) (A) (A) (A) (A) (A) (A) (A) (A) (A) (A)
                 (A) (A) (A) (A) (A) (A) (A) (A) (A) (A) (A) (A)
                 (A) (A) (A) (A) (A) (A) (A) (A) (A) (A) (A) (A)
                 (A) (A) (A) (A) (A) (A) (A) (A) (A) (A) (A) (A)
                 (A) (A) (A) (A) (A) (A) (A) (A) (A) (A) (A) (A)
                 (A) (A) (A) (A) (A) (A) (A) (A) (A) (A) (A) (A)
                 (A) (A) (A) (A)
 The electronic state is 1-A.
 Alpha  occ. eigenvalues --  -19.19960 -19.13864 -10.32213 -10.20186 -10.18547
 Alpha  occ. eigenvalues --  -10.17663 -10.17557 -10.17253 -10.17144 -10.17123
 Alpha  occ. eigenvalues --  -10.16839 -10.16812  -1.10893  -1.01155  -0.80805
 Alpha  occ. eigenvalues --   -0.79179  -0.76264  -0.72484  -0.68646  -0.64968
 Alpha  occ. eigenvalues --   -0.61674  -0.58425  -0.56807  -0.54420  -0.49282
 Alpha  occ. eigenvalues --   -0.48267  -0.47786  -0.46123  -0.44639  -0.44032
 Alpha  occ. eigenvalues --   -0.42233  -0.41923  -0.40815  -0.39439  -0.39028
 Alpha  occ. eigenvalues --   -0.37889  -0.37453  -0.35476  -0.34787  -0.34584
 Alpha  occ. eigenvalues --   -0.32888  -0.32665  -0.32146  -0.31751  -0.30470
 Alpha  occ. eigenvalues --   -0.30284  -0.29763  -0.27292
 Alpha virt. eigenvalues --    0.00952   0.07605   0.08339   0.10070   0.11096
 Alpha virt. eigenvalues --    0.12012   0.12424   0.14037   0.14931   0.15424
 Alpha virt. eigenvalues --    0.16121   0.16978   0.17376   0.17915   0.18367
 Alpha virt. eigenvalues --    0.18879   0.19200   0.19582   0.21390   0.21697
 Alpha virt. eigenvalues --    0.22562   0.23054   0.23887   0.24111   0.25383
 Alpha virt. eigenvalues --    0.25643   0.26079   0.27954   0.28644   0.29418
 Alpha virt. eigenvalues --    0.31173   0.36967   0.49073   0.49943   0.51106
 Alpha virt. eigenvalues --    0.51607   0.52698   0.52951   0.53624   0.55117
 Alpha virt. eigenvalues --    0.56600   0.57314   0.58882   0.61905   0.63496
 Alpha virt. eigenvalues --    0.64462   0.64936   0.65731   0.66630   0.68010
 Alpha virt. eigenvalues --    0.68622   0.69582   0.70087   0.71105   0.72937
 Alpha virt. eigenvalues --    0.74788   0.76670   0.79332   0.81362   0.82022
 Alpha virt. eigenvalues --    0.83611   0.85591   0.85751   0.85945   0.87406
 Alpha virt. eigenvalues --    0.88065   0.88364   0.88400   0.89051   0.89495
 Alpha virt. eigenvalues --    0.90634   0.91362   0.92520   0.93100   0.94318
 Alpha virt. eigenvalues --    0.94857   0.95155   0.95690   0.97190   0.98288
 Alpha virt. eigenvalues --    0.98662   0.99539   1.00313   1.02417   1.06006
 Alpha virt. eigenvalues --    1.06681   1.08716   1.11255   1.12896   1.15553
 Alpha virt. eigenvalues --    1.19048   1.27220   1.28891   1.30865   1.34774
 Alpha virt. eigenvalues --    1.37387   1.39341   1.39840   1.42511   1.47217
 Alpha virt. eigenvalues --    1.51140   1.53092   1.55758   1.56243   1.58670
 Alpha virt. eigenvalues --    1.59852   1.61718   1.64820   1.65918   1.66872
 Alpha virt. eigenvalues --    1.70182   1.70342   1.71324   1.73651   1.75200
 Alpha virt. eigenvalues --    1.76473   1.77281   1.79601   1.80317   1.84432
 Alpha virt. eigenvalues --    1.85471   1.85705   1.87066   1.87325   1.89613
 Alpha virt. eigenvalues --    1.90466   1.90938   1.92773   1.94058   1.96457
 Alpha virt. eigenvalues --    1.99181   2.01760   2.03494   2.03714   2.06294
 Alpha virt. eigenvalues --    2.09015   2.11752   2.13025   2.14125   2.15169
 Alpha virt. eigenvalues --    2.15699   2.17235   2.19066   2.19739   2.21833
 Alpha virt. eigenvalues --    2.22510   2.23945   2.24358   2.25590   2.26919
 Alpha virt. eigenvalues --    2.27514   2.28799   2.28844   2.31123   2.31685
 Alpha virt. eigenvalues --    2.32567   2.34515   2.36266   2.37290   2.41051
 Alpha virt. eigenvalues --    2.42084   2.45168   2.47824   2.49802   2.50988
 Alpha virt. eigenvalues --    2.52483   2.53865   2.56134   2.56887   2.57290
 Alpha virt. eigenvalues --    2.60698   2.61219   2.63292   2.65242   2.65689
 Alpha virt. eigenvalues --    2.69205   2.70424   2.72551   2.73080   2.74738
 Alpha virt. eigenvalues --    2.75758   2.78296   2.79220   2.80699   2.80965
 Alpha virt. eigenvalues --    2.84398   2.84919   2.86540   2.87189   2.90206
 Alpha virt. eigenvalues --    2.90252   2.91324   2.92019   2.92354   2.92525
 Alpha virt. eigenvalues --    2.93134   2.95715   2.96266   3.01825   3.14922
 Alpha virt. eigenvalues --    3.20403   3.25684   3.28562   3.31592   3.32459
 Alpha virt. eigenvalues --    3.33437   3.35175   3.35992   3.36602   3.40772
 Alpha virt. eigenvalues --    3.43239   3.44858   3.46144   3.47342   3.49650
 Alpha virt. eigenvalues --    3.52256   3.55926   3.57241   3.60306   3.60834
 Alpha virt. eigenvalues --    3.93582   4.15507   4.25508   4.28246   4.33322
 Alpha virt. eigenvalues --    4.43680   4.52696   4.60800   4.63679   4.67381
 Alpha virt. eigenvalues --    4.71224   4.76629
          Condensed to atoms (all electrons):
               1          2          3          4          5          6
     1  O    8.114200   0.256457  -0.093664   0.002422  -0.000004  -0.000062
     2  C    0.256457   4.383766   0.325364  -0.030855  -0.002500   0.002045
     3  C   -0.093664   0.325364   5.129758   0.342534  -0.035168  -0.004814
     4  C    0.002422  -0.030855   0.342534   4.924201   0.373250  -0.040200
     5  C   -0.000004  -0.002500  -0.035168   0.373250   4.893397   0.379946
     6  C   -0.000062   0.002045  -0.004814  -0.040200   0.379946   4.902704
     7  C    0.000000   0.000008  -0.000075   0.004155  -0.038612   0.365119
     8  C   -0.000000   0.000001  -0.000011   0.000134  -0.004324  -0.042263
     9  C   -0.000000  -0.000003  -0.000015   0.000011  -0.001670  -0.004439
    10  C    0.000000  -0.000000   0.000000   0.000000  -0.000004   0.000132
    11  C   -0.000000   0.000000  -0.000000  -0.000000  -0.000000  -0.000001
    12  O   -0.080840   0.559433  -0.083208   0.001578  -0.001475   0.000762
    13  H    0.267950  -0.009625   0.011145  -0.000302   0.000007  -0.000012
    14  H    0.001669  -0.027576   0.367659  -0.027967   0.003146   0.000102
    15  H    0.003167  -0.024941   0.365368  -0.037457  -0.005234  -0.000145
    16  H   -0.000049   0.004553  -0.032038   0.368410  -0.034285   0.004895
    17  H    0.000183  -0.006124  -0.038533   0.383435  -0.032803  -0.006471
    18  H   -0.000003  -0.000217  -0.007866  -0.038368   0.381854  -0.040480
    19  H    0.000000  -0.000049   0.004802  -0.034481   0.380802  -0.041352
    20  H    0.000018   0.000502  -0.001205  -0.004149  -0.039661   0.385098
    21  H   -0.000185   0.002179   0.003743  -0.003893  -0.039730   0.382281
    22  H   -0.000000  -0.000000   0.000005  -0.000029  -0.007371  -0.038633
    23  H   -0.000000   0.000003   0.000004  -0.000147   0.004764  -0.034092
    24  H    0.000000   0.000000  -0.000000  -0.000002   0.000061   0.004796
    25  H    0.000000   0.000000   0.000007  -0.000107   0.003887  -0.007819
    26  H   -0.000000  -0.000000   0.000000   0.000000   0.000095  -0.000995
    27  H    0.000002  -0.000008   0.000020  -0.000091   0.000254   0.002812
    28  H   -0.000000  -0.000000   0.000000  -0.000000   0.000000  -0.000000
    29  H   -0.000000  -0.000000  -0.000000   0.000000   0.000002  -0.000019
    30  H    0.000000  -0.000000   0.000000   0.000000  -0.000000   0.000000
    31  H   -0.000000  -0.000000   0.000000   0.000000   0.000000   0.000000
    32  H    0.000000  -0.000000   0.000000   0.000000   0.000000  -0.000000
               7          8          9         10         11         12
     1  O    0.000000  -0.000000  -0.000000   0.000000  -0.000000  -0.080840
     2  C    0.000008   0.000001  -0.000003  -0.000000   0.000000   0.559433
     3  C   -0.000075  -0.000011  -0.000015   0.000000  -0.000000  -0.083208
     4  C    0.004155   0.000134   0.000011   0.000000  -0.000000   0.001578
     5  C   -0.038612  -0.004324  -0.001670  -0.000004  -0.000000  -0.001475
     6  C    0.365119  -0.042263  -0.004439   0.000132  -0.000001   0.000762
     7  C    4.928309   0.367643  -0.038952   0.003733   0.000078   0.000118
     8  C    0.367643   4.909101   0.383445  -0.039075  -0.004979  -0.000001
     9  C   -0.038952   0.383445   4.894361   0.377220  -0.045630   0.000000
    10  C    0.003733  -0.039075   0.377220   4.874279   0.375924  -0.000000
    11  C    0.000078  -0.004979  -0.045630   0.375924   4.914795   0.000000
    12  O    0.000118  -0.000001   0.000000  -0.000000   0.000000   8.052762
    13  H   -0.000000   0.000000  -0.000000  -0.000000   0.000000   0.011573
    14  H    0.000001  -0.000000   0.000000  -0.000000   0.000000   0.000465
    15  H   -0.000047  -0.000005  -0.000017  -0.000000   0.000000   0.001981
    16  H   -0.000147   0.000004  -0.000000  -0.000000   0.000000   0.000257
    17  H    0.000034   0.000003  -0.000001   0.000000  -0.000000   0.007457
    18  H   -0.004680   0.002673   0.000299  -0.000049   0.000001  -0.000015
    19  H   -0.004189  -0.001131   0.000118   0.000000  -0.000000  -0.000027
    20  H   -0.032121   0.004746   0.000092  -0.000001   0.000000   0.002515
    21  H   -0.037433  -0.007518   0.003371  -0.000138  -0.000000   0.000351
    22  H    0.374764  -0.033875   0.004718  -0.000151  -0.000001  -0.000001
    23  H    0.377390  -0.038669  -0.006964   0.000060  -0.000016   0.000000
    24  H   -0.031587   0.380040  -0.040967  -0.004787   0.002719   0.000000
    25  H   -0.037778   0.381577  -0.041697  -0.003136  -0.000602  -0.000000
    26  H   -0.002495  -0.041581   0.381930  -0.038542  -0.007167   0.000000
    27  H   -0.005480  -0.039841   0.378712  -0.033507   0.005072  -0.000002
    28  H   -0.000154   0.004587  -0.032881   0.381014  -0.040170   0.000000
    29  H    0.000082  -0.007407  -0.038036   0.384353  -0.039869   0.000000
    30  H   -0.000020  -0.000578  -0.004780  -0.035762   0.387139  -0.000000
    31  H    0.000000   0.000149   0.004301  -0.028279   0.380766  -0.000000
    32  H   -0.000128   0.002104  -0.004537  -0.034758   0.388516  -0.000000
              13         14         15         16         17         18
     1  O    0.267950   0.001669   0.003167  -0.000049   0.000183  -0.000003
     2  C   -0.009625  -0.027576  -0.024941   0.004553  -0.006124  -0.000217
     3  C    0.011145   0.367659   0.365368  -0.032038  -0.038533  -0.007866
     4  C   -0.000302  -0.027967  -0.037457   0.368410   0.383435  -0.038368
     5  C    0.000007   0.003146  -0.005234  -0.034285  -0.032803   0.381854
     6  C   -0.000012   0.000102  -0.000145   0.004895  -0.006471  -0.040480
     7  C   -0.000000   0.000001  -0.000047  -0.000147   0.000034  -0.004680
     8  C    0.000000  -0.000000  -0.000005   0.000004   0.000003   0.002673
     9  C   -0.000000   0.000000  -0.000017  -0.000000  -0.000001   0.000299
    10  C   -0.000000  -0.000000  -0.000000  -0.000000   0.000000  -0.000049
    11  C    0.000000   0.000000   0.000000   0.000000  -0.000000   0.000001
    12  O    0.011573   0.000465   0.001981   0.000257   0.007457  -0.000015
    13  H    0.401059  -0.000416  -0.000385   0.000004  -0.000018   0.000000
    14  H   -0.000416   0.578743  -0.026615  -0.007228   0.000415   0.000037
    15  H   -0.000385  -0.026615   0.583765  -0.000148   0.004861   0.005425
    16  H    0.000004  -0.007228  -0.000148   0.652308  -0.038408  -0.003566
    17  H   -0.000018   0.000415   0.004861  -0.038408   0.600408   0.005526
    18  H    0.000000   0.000037   0.005425  -0.003566   0.005526   0.648236
    19  H   -0.000000  -0.000169   0.000060  -0.004799  -0.003118  -0.040437
    20  H   -0.000002  -0.000014   0.000094   0.000055   0.004894   0.005965
    21  H    0.000008   0.000023  -0.000077  -0.000057  -0.000395  -0.006915
    22  H   -0.000000   0.000000   0.000001  -0.000005   0.000001  -0.000262
    23  H    0.000000  -0.000000  -0.000000   0.000003  -0.000007  -0.000069
    24  H    0.000000   0.000000   0.000000  -0.000000   0.000000  -0.000049
    25  H   -0.000000  -0.000000  -0.000004   0.000009  -0.000001   0.001276
    26  H    0.000000  -0.000000  -0.000001   0.000000  -0.000000  -0.000021
    27  H    0.000000  -0.000001   0.000345  -0.000000   0.000003   0.001035
    28  H   -0.000000   0.000000  -0.000000  -0.000000  -0.000000  -0.000002
    29  H    0.000000  -0.000000  -0.000000  -0.000000   0.000000   0.000036
    30  H   -0.000000   0.000000  -0.000000  -0.000000  -0.000000   0.000000
    31  H   -0.000000   0.000000  -0.000000  -0.000000   0.000000  -0.000000
    32  H   -0.000000   0.000000  -0.000000  -0.000000  -0.000000  -0.000000
              19         20         21         22         23         24
     1  O    0.000000   0.000018  -0.000185  -0.000000  -0.000000   0.000000
     2  C   -0.000049   0.000502   0.002179  -0.000000   0.000003   0.000000
     3  C    0.004802  -0.001205   0.003743   0.000005   0.000004  -0.000000
     4  C   -0.034481  -0.004149  -0.003893  -0.000029  -0.000147  -0.000002
     5  C    0.380802  -0.039661  -0.039730  -0.007371   0.004764   0.000061
     6  C   -0.041352   0.385098   0.382281  -0.038633  -0.034092   0.004796
     7  C   -0.004189  -0.032121  -0.037433   0.374764   0.377390  -0.031587
     8  C   -0.001131   0.004746  -0.007518  -0.033875  -0.038669   0.380040
     9  C    0.000118   0.000092   0.003371   0.004718  -0.006964  -0.040967
    10  C    0.000000  -0.000001  -0.000138  -0.000151   0.000060  -0.004787
    11  C   -0.000000   0.000000  -0.000000  -0.000001  -0.000016   0.002719
    12  O   -0.000027   0.002515   0.000351  -0.000001   0.000000   0.000000
    13  H   -0.000000  -0.000002   0.000008  -0.000000   0.000000   0.000000
    14  H   -0.000169  -0.000014   0.000023   0.000000  -0.000000   0.000000
    15  H    0.000060   0.000094  -0.000077   0.000001  -0.000000   0.000000
    16  H   -0.004799   0.000055  -0.000057  -0.000005   0.000003  -0.000000
    17  H   -0.003118   0.004894  -0.000395   0.000001  -0.000007   0.000000
    18  H   -0.040437   0.005965  -0.006915  -0.000262  -0.000069  -0.000049
    19  H    0.645198  -0.004526   0.006158   0.005844   0.000031  -0.000051
    20  H   -0.004526   0.619013  -0.038887  -0.004322  -0.003541  -0.000146
    21  H    0.006158  -0.038887   0.642485   0.006126  -0.003934  -0.000001
    22  H    0.005844  -0.004322   0.006126   0.654697  -0.039471  -0.003771
    23  H    0.000031  -0.003541  -0.003934  -0.039471   0.649777  -0.004334
    24  H   -0.000051  -0.000146  -0.000001  -0.003771  -0.004334   0.646311
    25  H    0.000675  -0.000009   0.000082  -0.003541   0.006121  -0.041174
    26  H   -0.000002  -0.000034   0.000497   0.000003   0.005059  -0.005584
    27  H   -0.000024  -0.000064   0.002110  -0.000009  -0.000283   0.006227
    28  H    0.000000  -0.000000   0.000010   0.000003   0.000001   0.000003
    29  H   -0.000001  -0.000000   0.000007   0.000000   0.000009  -0.000264
    30  H   -0.000000  -0.000000   0.000000   0.000000   0.000002   0.000378
    31  H   -0.000000  -0.000000  -0.000000  -0.000000  -0.000000  -0.000138
    32  H   -0.000000  -0.000000  -0.000000   0.000008   0.000009   0.002302
              25         26         27         28         29         30
     1  O    0.000000  -0.000000   0.000002  -0.000000  -0.000000   0.000000
     2  C    0.000000  -0.000000  -0.000008  -0.000000  -0.000000  -0.000000
     3  C    0.000007   0.000000   0.000020   0.000000  -0.000000   0.000000
     4  C   -0.000107   0.000000  -0.000091  -0.000000   0.000000   0.000000
     5  C    0.003887   0.000095   0.000254   0.000000   0.000002  -0.000000
     6  C   -0.007819  -0.000995   0.002812  -0.000000  -0.000019   0.000000
     7  C   -0.037778  -0.002495  -0.005480  -0.000154   0.000082  -0.000020
     8  C    0.381577  -0.041581  -0.039841   0.004587  -0.007407  -0.000578
     9  C   -0.041697   0.381930   0.378712  -0.032881  -0.038036  -0.004780
    10  C   -0.003136  -0.038542  -0.033507   0.381014   0.384353  -0.035762
    11  C   -0.000602  -0.007167   0.005072  -0.040170  -0.039869   0.387139
    12  O   -0.000000   0.000000  -0.000002   0.000000   0.000000  -0.000000
    13  H   -0.000000   0.000000   0.000000  -0.000000   0.000000  -0.000000
    14  H   -0.000000  -0.000000  -0.000001   0.000000  -0.000000   0.000000
    15  H   -0.000004  -0.000001   0.000345  -0.000000  -0.000000  -0.000000
    16  H    0.000009   0.000000  -0.000000  -0.000000  -0.000000  -0.000000
    17  H   -0.000001  -0.000000   0.000003  -0.000000   0.000000  -0.000000
    18  H    0.001276  -0.000021   0.001035  -0.000002   0.000036   0.000000
    19  H    0.000675  -0.000002  -0.000024   0.000000  -0.000001  -0.000000
    20  H   -0.000009  -0.000034  -0.000064  -0.000000  -0.000000  -0.000000
    21  H    0.000082   0.000497   0.002110   0.000010   0.000007   0.000000
    22  H   -0.003541   0.000003  -0.000009   0.000003   0.000000   0.000000
    23  H    0.006121   0.005059  -0.000283   0.000001   0.000009   0.000002
    24  H   -0.041174  -0.005584   0.006227   0.000003  -0.000264   0.000378
    25  H    0.647595   0.006215  -0.006146   0.000015   0.005433   0.000071
    26  H    0.006215   0.647268  -0.041226  -0.002990   0.006100   0.005427
    27  H   -0.006146  -0.041226   0.650257  -0.004495  -0.003219   0.000037
    28  H    0.000015  -0.002990  -0.004495   0.649180  -0.040285  -0.004372
    29  H    0.005433   0.006100  -0.003219  -0.040285   0.645098   0.005531
    30  H    0.000071   0.005427   0.000037  -0.004372   0.005531   0.611604
    31  H   -0.000021   0.000009  -0.000186  -0.004199  -0.002540  -0.032547
    32  H    0.000344  -0.000158  -0.000016   0.005536  -0.005314  -0.033934
              31         32
     1  O   -0.000000   0.000000
     2  C   -0.000000  -0.000000
     3  C    0.000000   0.000000
     4  C    0.000000   0.000000
     5  C    0.000000   0.000000
     6  C    0.000000  -0.000000
     7  C    0.000000  -0.000128
     8  C    0.000149   0.002104
     9  C    0.004301  -0.004537
    10  C   -0.028279  -0.034758
    11  C    0.380766   0.388516
    12  O   -0.000000  -0.000000
    13  H   -0.000000  -0.000000
    14  H    0.000000   0.000000
    15  H   -0.000000  -0.000000
    16  H   -0.000000  -0.000000
    17  H    0.000000  -0.000000
    18  H   -0.000000  -0.000000
    19  H   -0.000000  -0.000000
    20  H   -0.000000  -0.000000
    21  H   -0.000000  -0.000000
    22  H   -0.000000   0.000008
    23  H   -0.000000   0.000009
    24  H   -0.000138   0.002302
    25  H   -0.000021   0.000344
    26  H    0.000009  -0.000158
    27  H   -0.000186  -0.000016
    28  H   -0.004199   0.005536
    29  H   -0.002540  -0.005314
    30  H   -0.032547  -0.033934
    31  H    0.616026  -0.032185
    32  H   -0.032185   0.606594
 Mulliken charges:
               1
     1  O   -0.471261
     2  C    0.567588
     3  C   -0.253810
     4  C   -0.182083
     5  C   -0.178624
     6  C   -0.168898
     7  C   -0.187538
     8  C   -0.174950
     9  C   -0.167988
    10  C   -0.178528
    11  C   -0.316576
    12  O   -0.473684
    13  H    0.319015
    14  H    0.137727
    15  H    0.130013
    16  H    0.090232
    17  H    0.118661
    18  H    0.090634
    19  H    0.090665
    20  H    0.105690
    21  H    0.089732
    22  H    0.085275
    23  H    0.088291
    24  H    0.090018
    25  H    0.088726
    26  H    0.088191
    27  H    0.087714
    28  H    0.089200
    29  H    0.090303
    30  H    0.101804
    31  H    0.098845
    32  H    0.105617
 Sum of Mulliken charges =  -0.00000
 Mulliken charges with hydrogens summed into heavy atoms:
               1
     1  O   -0.152247
     2  C    0.567588
     3  C    0.013930
     4  C    0.026810
     5  C    0.002675
     6  C    0.026524
     7  C   -0.013972
     8  C    0.003793
     9  C    0.007917
    10  C    0.000975
    11  C   -0.010309
    12  O   -0.473684
 Electronic spatial extent (au):  <R**2>=           3694.1837
 Charge=              0.0000 electrons
 Dipole moment (field-independent basis, Debye):
    X=              0.0887    Y=              0.7807    Z=              1.1134  Tot=              1.3627
 Quadrupole moment (field-independent basis, Debye-Ang):
   XX=            -76.9063   YY=            -73.9671   ZZ=            -76.3847
   XY=             -3.3990   XZ=             -3.3104   YZ=             -3.8020
 Traceless Quadrupole moment (field-independent basis, Debye-Ang):
   XX=             -1.1536   YY=              1.7856   ZZ=             -0.6320
   XY=             -3.3990   XZ=             -3.3104   YZ=             -3.8020
 Octapole moment (field-independent basis, Debye-Ang**2):
  XXX=            -38.0425  YYY=             13.4058  ZZZ=             -2.2524  XYY=            -18.4236
  XXY=             18.4094  XXZ=              7.6196  XZZ=             -8.2211  YZZ=              8.5171
  YYZ=            -12.4947  XYZ=             13.3314
 Hexadecapole moment (field-independent basis, Debye-Ang**3):
 XXXX=          -3654.4650 YYYY=           -770.1671 ZZZZ=           -411.6017 XXXY=            -95.9509
 XXXZ=             -4.0736 YYYX=            -53.6224 YYYZ=            -32.5812 ZZZX=              4.4794
 ZZZY=            -10.0138 XXYY=           -702.0669 XXZZ=           -676.7743 YYZZ=           -187.9377
 XXYZ=            -47.9352 YYXZ=             44.6106 ZZXY=            -25.5329
 N-N= 7.222703412602D+02 E-N=-2.707954031455D+03  KE= 5.384616348675D+02
 Calling FoFJK, ICntrl=      2127 FMM=F ISym2X=0 I1Cent= 0 IOpClX= 0 NMat=1 NMatS=1 NMatT=0.
 ***** Axes restored to original set *****
 -------------------------------------------------------------------
 Center     Atomic                   Forces (Hartrees/Bohr)
 Number     Number              X              Y              Z
 -------------------------------------------------------------------
      1        8          -0.003796043   -0.009665436    0.002565230
      2        6          -0.024330128   -0.000188389    0.003484909
      3        6          -0.010365483    0.009513331    0.002527837
      4        6           0.002207218   -0.001197809   -0.006362961
      5        6           0.003382070    0.010126372   -0.001092552
      6        6          -0.004073354   -0.004691369   -0.000293998
      7        6           0.006133292   -0.004839697    0.001376200
      8        6           0.004000787    0.007493135   -0.001385039
      9        6          -0.004551810   -0.008017880    0.003714980
     10        6          -0.004460822    0.005990078   -0.003595592
     11        6           0.002806334   -0.001705038    0.004622263
     12        8           0.013755116   -0.012791277   -0.001777451
     13        1           0.006341517    0.014475144   -0.004090967
     14        1           0.004264670   -0.002833634    0.003323133
     15        1           0.002528223   -0.001336182   -0.002266580
     16        1           0.002427035   -0.003545912    0.001255528
     17        1           0.002776611    0.004351310   -0.002132352
     18        1           0.002629067   -0.003563710   -0.001792696
     19        1          -0.003918908   -0.000533744    0.001847973
     20        1          -0.000378314    0.001982384    0.001832489
     21        1           0.004093981    0.000258107   -0.001268702
     22        1          -0.003750140   -0.001824328    0.002419137
     23        1           0.001227367    0.003354307   -0.002718849
     24        1          -0.002807883   -0.000036274   -0.002976955
     25        1           0.001672476   -0.003798851    0.002601809
     26        1          -0.001174601    0.003647609   -0.002945398
     27        1           0.002783996    0.000494865    0.003308929
     28        1           0.003639310    0.000917440   -0.001243132
     29        1          -0.001212377   -0.003125048    0.002996793
     30        1           0.000130109    0.003199692   -0.001123505
     31        1           0.000801161   -0.002293122   -0.001704083
     32        1          -0.002780475    0.000183926    0.000893601
 -------------------------------------------------------------------
 Cartesian Forces:  Max     0.024330128 RMS     0.005045008

 GradGradGradGradGradGradGradGradGradGradGradGradGradGradGradGradGradGrad
 Berny optimization.
 FormGI is forming the generalized inverse of G from B-inverse, IUseBI=4.
 Internal  Forces:  Max     0.018447261 RMS     0.003081787
 Search for a local minimum.
 Step number   1 out of a maximum of  179
 All quantities printed in internal units (Hartrees-Bohrs-Radians)
 Mixed Optimization -- RFO/linear search
 Second derivative matrix not updated -- first step.
 ITU=  0
     Eigenvalues ---    0.00230   0.00230   0.00230   0.00230   0.00230
     Eigenvalues ---    0.00230   0.00230   0.00274   0.00381   0.00858
     Eigenvalues ---    0.02358   0.03102   0.03102   0.03190   0.03232
     Eigenvalues ---    0.03233   0.03257   0.03267   0.03587   0.04646
     Eigenvalues ---    0.04676   0.04676   0.04677   0.04680   0.04691
     Eigenvalues ---    0.04704   0.05203   0.05344   0.05458   0.08545
     Eigenvalues ---    0.08567   0.08575   0.08577   0.08670   0.08752
     Eigenvalues ---    0.08838   0.09870   0.12374   0.12388   0.12395
     Eigenvalues ---    0.12398   0.12462   0.12542   0.12576   0.13167
     Eigenvalues ---    0.16000   0.16000   0.16000   0.16000   0.21892
     Eigenvalues ---    0.21898   0.21898   0.21908   0.21911   0.21924
     Eigenvalues ---    0.21929   0.22013   0.24997   0.25000   0.27450
     Eigenvalues ---    0.28137   0.28167   0.28212   0.28269   0.28347
     Eigenvalues ---    0.28439   0.28772   0.29504   0.34477   0.34623
     Eigenvalues ---    0.34628   0.34646   0.34648   0.34653   0.34657
     Eigenvalues ---    0.34658   0.34666   0.34710   0.34727   0.34729
     Eigenvalues ---    0.34741   0.34761   0.34763   0.34802   0.34828
     Eigenvalues ---    0.34859   0.34877   0.55101   0.55949   0.93964
 RFO step:  Lambda=-5.84424323D-03 EMin= 2.30000000D-03
 Linear search not attempted -- first point.
 Iteration  1 RMS(Cart)=  0.09520472 RMS(Int)=  0.00145003
 Iteration  2 RMS(Cart)=  0.00307907 RMS(Int)=  0.00019602
 Iteration  3 RMS(Cart)=  0.00000475 RMS(Int)=  0.00019600
 Iteration  4 RMS(Cart)=  0.00000000 RMS(Int)=  0.00019600
 Variable       Old X    -DE/DX   Delta X   Delta X   Delta X     New X
                                 (Linear)    (Quad)   (Total)
    R1        2.55042   0.00300   0.00000   0.00539   0.00539   2.55581
    R2        1.80998   0.01584   0.00000   0.02802   0.02802   1.83800
    R3        2.88964  -0.00982   0.00000  -0.03265  -0.03265   2.85699
    R4        2.31158  -0.01845   0.00000  -0.01951  -0.01951   2.29207
    R5        2.93357  -0.01235   0.00000  -0.04407  -0.04407   2.88950
    R6        2.05874   0.00549   0.00000   0.01549   0.01549   2.07423
    R7        2.05955   0.00324   0.00000   0.00914   0.00914   2.06869
    R8        2.91839  -0.00580   0.00000  -0.02020  -0.02020   2.89819
    R9        2.06284   0.00327   0.00000   0.00930   0.00930   2.07213
   R10        2.06533   0.00134   0.00000   0.00381   0.00381   2.06914
   R11        2.91385  -0.00526   0.00000  -0.01818  -0.01818   2.89568
   R12        2.06148   0.00467   0.00000   0.01324   0.01324   2.07472
   R13        2.06254   0.00430   0.00000   0.01220   0.01220   2.07474
   R14        2.91677  -0.00466   0.00000  -0.01619  -0.01619   2.90059
   R15        2.06292   0.00264   0.00000   0.00749   0.00749   2.07041
   R16        2.05905   0.00421   0.00000   0.01189   0.01189   2.07094
   R17        2.91775  -0.00439   0.00000  -0.01526  -0.01526   2.90249
   R18        2.06220   0.00457   0.00000   0.01298   0.01298   2.07518
   R19        2.06242   0.00423   0.00000   0.01200   0.01200   2.07442
   R20        2.91555  -0.00597   0.00000  -0.02069  -0.02069   2.89486
   R21        2.06065   0.00406   0.00000   0.01148   0.01148   2.07213
   R22        2.06120   0.00456   0.00000   0.01292   0.01292   2.07412
   R23        2.91189  -0.00319   0.00000  -0.01099  -0.01099   2.90090
   R24        2.06250   0.00463   0.00000   0.01314   0.01314   2.07565
   R25        2.06118   0.00430   0.00000   0.01217   0.01217   2.07335
   R26        2.90482  -0.00263   0.00000  -0.00896  -0.00896   2.89586
   R27        2.06235   0.00390   0.00000   0.01106   0.01106   2.07341
   R28        2.06234   0.00428   0.00000   0.01215   0.01215   2.07449
   R29        2.06097   0.00328   0.00000   0.00928   0.00928   2.07025
   R30        2.06062   0.00297   0.00000   0.00839   0.00839   2.06901
   R31        2.05998   0.00285   0.00000   0.00804   0.00804   2.06802
    A1        1.81601   0.00705   0.00000   0.04252   0.04252   1.85854
    A2        1.95007   0.00045   0.00000   0.00146   0.00112   1.95119
    A3        2.14742  -0.00470   0.00000  -0.01868  -0.01900   2.12842
    A4        2.18550   0.00424   0.00000   0.01632   0.01597   2.20147
    A5        2.02353  -0.00843   0.00000  -0.03828  -0.03842   1.98511
    A6        1.82548   0.00322   0.00000   0.02639   0.02685   1.85233
    A7        1.90991   0.00126   0.00000  -0.01353  -0.01392   1.89599
    A8        1.89859   0.00320   0.00000   0.03034   0.03058   1.92917
    A9        1.93306   0.00329   0.00000   0.00717   0.00639   1.93945
   A10        1.86389  -0.00218   0.00000  -0.00847  -0.00855   1.85534
   A11        2.00985  -0.00247   0.00000  -0.01975  -0.02033   1.98953
   A12        1.88330  -0.00005   0.00000   0.00479   0.00516   1.88846
   A13        1.93826  -0.00212   0.00000  -0.03934  -0.03997   1.89828
   A14        1.87287   0.00206   0.00000   0.02967   0.02968   1.90255
   A15        1.92033   0.00159   0.00000  -0.00357  -0.00503   1.91531
   A16        1.82868   0.00151   0.00000   0.03692   0.03691   1.86559
   A17        2.00507  -0.00142   0.00000  -0.00857  -0.00862   1.99644
   A18        1.90544  -0.00018   0.00000  -0.00879  -0.00887   1.89657
   A19        1.89026   0.00036   0.00000   0.00410   0.00414   1.89440
   A20        1.91632   0.00042   0.00000  -0.00253  -0.00265   1.91367
   A21        1.89544   0.00076   0.00000   0.00895   0.00897   1.90440
   A22        1.84430   0.00019   0.00000   0.00855   0.00856   1.85286
   A23        1.99313  -0.00283   0.00000  -0.01418  -0.01421   1.97892
   A24        1.90174   0.00057   0.00000   0.00341   0.00348   1.90522
   A25        1.92222   0.00024   0.00000  -0.00672  -0.00677   1.91545
   A26        1.89317   0.00147   0.00000   0.01302   0.01302   1.90620
   A27        1.90935   0.00109   0.00000   0.00227   0.00213   1.91148
   A28        1.83751  -0.00032   0.00000   0.00400   0.00397   1.84148
   A29        2.02127  -0.00197   0.00000  -0.01259  -0.01264   2.00864
   A30        1.89925   0.00073   0.00000   0.00276   0.00272   1.90197
   A31        1.89776   0.00015   0.00000  -0.00262  -0.00266   1.89511
   A32        1.89887   0.00016   0.00000  -0.00174  -0.00176   1.89711
   A33        1.90039   0.00064   0.00000   0.00102   0.00096   1.90135
   A34        1.83753   0.00051   0.00000   0.01596   0.01596   1.85350
   A35        1.99401  -0.00138   0.00000  -0.00879  -0.00886   1.98515
   A36        1.88287   0.00052   0.00000   0.00800   0.00800   1.89087
   A37        1.91738   0.00090   0.00000   0.00067   0.00048   1.91786
   A38        1.90762   0.00061   0.00000   0.00632   0.00637   1.91399
   A39        1.91545  -0.00078   0.00000  -0.01450  -0.01456   1.90089
   A40        1.83988   0.00031   0.00000   0.01039   0.01040   1.85028
   A41        1.99217  -0.00060   0.00000  -0.00449  -0.00455   1.98761
   A42        1.91563  -0.00048   0.00000  -0.01142  -0.01149   1.90414
   A43        1.90600  -0.00001   0.00000   0.00319   0.00320   1.90920
   A44        1.91249   0.00010   0.00000  -0.00490  -0.00501   1.90748
   A45        1.88538   0.00078   0.00000   0.01141   0.01142   1.89680
   A46        1.84627   0.00030   0.00000   0.00760   0.00762   1.85389
   A47        1.99295  -0.00013   0.00000  -0.00253  -0.00258   1.99038
   A48        1.89721  -0.00010   0.00000   0.00212   0.00213   1.89934
   A49        1.91522  -0.00060   0.00000  -0.01076  -0.01081   1.90441
   A50        1.89490   0.00045   0.00000   0.00824   0.00824   1.90314
   A51        1.91316  -0.00002   0.00000  -0.00456  -0.00464   1.90852
   A52        1.84433   0.00045   0.00000   0.00872   0.00874   1.85307
   A53        1.94343  -0.00116   0.00000  -0.00869  -0.00870   1.93473
   A54        1.93461   0.00030   0.00000   0.00394   0.00394   1.93855
   A55        1.95104   0.00009   0.00000   0.00011   0.00008   1.95112
   A56        1.87676   0.00054   0.00000   0.00410   0.00411   1.88087
   A57        1.88314   0.00011   0.00000  -0.00330  -0.00333   1.87981
   A58        1.87148   0.00018   0.00000   0.00429   0.00428   1.87576
    D1       -3.13338   0.00081   0.00000   0.04098   0.04056  -3.09282
    D2       -0.01211   0.00024   0.00000  -0.00522  -0.00480  -0.01691
    D3       -2.96236   0.00069   0.00000   0.01933   0.01889  -2.94347
    D4        1.23036  -0.00074   0.00000  -0.01529  -0.01540   1.21496
    D5       -0.76114  -0.00041   0.00000  -0.01283  -0.01266  -0.77380
    D6        0.20009   0.00140   0.00000   0.06723   0.06705   0.26714
    D7       -1.89038  -0.00002   0.00000   0.03262   0.03276  -1.85762
    D8        2.40130   0.00030   0.00000   0.03508   0.03550   2.43681
    D9        1.50728  -0.00212   0.00000  -0.06748  -0.06704   1.44025
   D10       -2.68482  -0.00111   0.00000  -0.03877  -0.03859  -2.72341
   D11       -0.68986  -0.00046   0.00000  -0.01272  -0.01304  -0.70290
   D12       -2.72560  -0.00104   0.00000  -0.03603  -0.03581  -2.76141
   D13       -0.63452  -0.00003   0.00000  -0.00731  -0.00737  -0.64189
   D14        1.36044   0.00062   0.00000   0.01874   0.01818   1.37862
   D15       -0.68218   0.00013   0.00000  -0.02400  -0.02362  -0.70580
   D16        1.40890   0.00114   0.00000   0.00471   0.00482   1.41373
   D17       -2.87933   0.00179   0.00000   0.03076   0.03038  -2.84895
   D18       -1.18423   0.00167   0.00000   0.06785   0.06776  -1.11647
   D19        0.97679   0.00106   0.00000   0.05130   0.05128   1.02807
   D20        2.97689   0.00138   0.00000   0.05899   0.05893   3.03582
   D21        3.00213   0.00181   0.00000   0.05277   0.05289   3.05502
   D22       -1.12003   0.00120   0.00000   0.03623   0.03640  -1.08363
   D23        0.88007   0.00152   0.00000   0.04392   0.04405   0.92412
   D24        1.02211  -0.00184   0.00000  -0.00463  -0.00475   1.01736
   D25       -3.10006  -0.00246   0.00000  -0.02118  -0.02123  -3.12129
   D26       -1.09996  -0.00214   0.00000  -0.01349  -0.01358  -1.11354
   D27       -3.00053  -0.00073   0.00000  -0.02959  -0.02955  -3.03008
   D28       -0.88093  -0.00034   0.00000  -0.01991  -0.01989  -0.90082
   D29        1.12639  -0.00027   0.00000  -0.01688  -0.01690   1.10949
   D30        1.12741   0.00021   0.00000  -0.00959  -0.00956   1.11785
   D31       -3.03617   0.00061   0.00000   0.00010   0.00010  -3.03607
   D32       -1.02884   0.00068   0.00000   0.00313   0.00308  -1.02576
   D33       -0.88129  -0.00067   0.00000  -0.02339  -0.02336  -0.90465
   D34        1.23831  -0.00027   0.00000  -0.01370  -0.01371   1.22461
   D35       -3.03754  -0.00020   0.00000  -0.01067  -0.01072  -3.04826
   D36       -1.05255   0.00039   0.00000   0.01476   0.01476  -1.03779
   D37        1.09221  -0.00023   0.00000   0.00561   0.00560   1.09780
   D38        3.08505   0.00084   0.00000   0.02452   0.02449   3.10954
   D39        3.10631   0.00048   0.00000   0.01032   0.01036   3.11668
   D40       -1.03212  -0.00015   0.00000   0.00117   0.00120  -1.03091
   D41        0.96073   0.00092   0.00000   0.02008   0.02010   0.98083
   D42        1.11063  -0.00050   0.00000  -0.00262  -0.00262   1.10801
   D43       -3.02780  -0.00113   0.00000  -0.01176  -0.01178  -3.03958
   D44       -1.03496  -0.00006   0.00000   0.00715   0.00712  -1.02784
   D45       -1.06998   0.00077   0.00000   0.02602   0.02603  -1.04395
   D46        3.08830   0.00053   0.00000   0.01789   0.01792   3.10622
   D47        1.09120  -0.00058   0.00000   0.00092   0.00091   1.09211
   D48        3.06825   0.00109   0.00000   0.03279   0.03278   3.10103
   D49        0.94334   0.00084   0.00000   0.02466   0.02467   0.96801
   D50       -1.05376  -0.00026   0.00000   0.00769   0.00766  -1.04610
   D51        1.07423   0.00006   0.00000   0.01432   0.01432   1.08855
   D52       -1.05068  -0.00018   0.00000   0.00619   0.00621  -1.04447
   D53       -3.04779  -0.00129   0.00000  -0.01079  -0.01080  -3.05859
   D54       -3.12804   0.00022   0.00000   0.00224   0.00226  -3.12578
   D55       -0.97349  -0.00046   0.00000  -0.01631  -0.01622  -0.98971
   D56        1.04310  -0.00038   0.00000  -0.01176  -0.01171   1.03139
   D57       -1.01680   0.00039   0.00000   0.01123   0.01122  -1.00558
   D58        1.13776  -0.00029   0.00000  -0.00731  -0.00727   1.13049
   D59       -3.12884  -0.00020   0.00000  -0.00276  -0.00276  -3.13160
   D60        0.99293   0.00067   0.00000   0.01918   0.01909   1.01202
   D61       -3.13570  -0.00002   0.00000   0.00064   0.00061  -3.13509
   D62       -1.11911   0.00007   0.00000   0.00518   0.00512  -1.11399
   D63        1.16777  -0.00080   0.00000  -0.02919  -0.02916   1.13861
   D64       -2.99704  -0.00038   0.00000  -0.01874  -0.01873  -3.01577
   D65       -0.98792  -0.00022   0.00000  -0.01300  -0.01302  -1.00093
   D66       -0.98849   0.00019   0.00000  -0.00715  -0.00714  -0.99563
   D67        1.12989   0.00062   0.00000   0.00329   0.00329   1.13318
   D68        3.13901   0.00078   0.00000   0.00903   0.00900  -3.13517
   D69       -2.99197  -0.00064   0.00000  -0.01977  -0.01975  -3.01172
   D70       -0.87359  -0.00021   0.00000  -0.00932  -0.00932  -0.88291
   D71        1.13553  -0.00005   0.00000  -0.00358  -0.00360   1.13193
   D72        0.97751   0.00015   0.00000   0.01083   0.01084   0.98835
   D73        3.06603   0.00027   0.00000   0.01289   0.01288   3.07891
   D74       -1.13026   0.00075   0.00000   0.02105   0.02104  -1.10923
   D75       -1.14214   0.00003   0.00000   0.00377   0.00378  -1.13836
   D76        0.94638   0.00015   0.00000   0.00582   0.00581   0.95219
   D77        3.03327   0.00064   0.00000   0.01398   0.01398   3.04724
   D78        3.13431  -0.00075   0.00000  -0.00868  -0.00867   3.12564
   D79       -1.06035  -0.00063   0.00000  -0.00663  -0.00663  -1.06699
   D80        1.02654  -0.00014   0.00000   0.00153   0.00153   1.02806
         Item               Value     Threshold  Converged?
 Maximum Force            0.018447     0.000450     NO 
 RMS     Force            0.003082     0.000300     NO 
 Maximum Displacement     0.364269     0.001800     NO 
 RMS     Displacement     0.095082     0.001200     NO 
 Predicted change in Energy=-3.107285D-03
 GradGradGradGradGradGradGradGradGradGradGradGradGradGradGradGradGradGrad

                          Input orientation:                          
 ---------------------------------------------------------------------
 Center     Atomic      Atomic             Coordinates (Angstroms)
 Number     Number       Type             X           Y           Z
 ---------------------------------------------------------------------
      1          8           0        6.038282   -0.756785   -0.913863
      2          6           0        4.793040   -0.849331   -0.394244
      3          6           0        4.469008   -2.261125    0.038827
      4          6           0        2.993288   -2.478457    0.375036
      5          6           0        2.106926   -2.740462   -0.848815
      6          6           0        2.023481   -1.568280   -1.832202
      7          6           0        1.012466   -1.794091   -2.964833
      8          6           0        1.284196   -3.023250   -3.844847
      9          6           0        2.642006   -2.986632   -4.553160
     10          6           0        2.907681   -4.203196   -5.450870
     11          6           0        1.963707   -4.309775   -6.653313
     12          8           0        4.085729    0.124657   -0.245212
     13          1           0        6.181091    0.182344   -1.122793
     14          1           0        5.097445   -2.462904    0.915842
     15          1           0        4.801373   -2.951720   -0.742830
     16          1           0        2.919950   -3.332720    1.058575
     17          1           0        2.623368   -1.603129    0.918968
     18          1           0        2.480371   -3.632483   -1.368631
     19          1           0        1.096095   -2.990368   -0.500729
     20          1           0        1.754472   -0.658123   -1.284829
     21          1           0        3.013567   -1.371762   -2.258921
     22          1           0        0.006989   -1.885716   -2.532945
     23          1           0        0.992627   -0.898759   -3.599666
     24          1           0        0.482007   -3.099262   -4.588538
     25          1           0        1.223306   -3.936695   -3.239388
     26          1           0        2.708878   -2.070161   -5.154871
     27          1           0        3.441590   -2.920903   -3.804747
     28          1           0        3.942954   -4.157779   -5.811425
     29          1           0        2.833653   -5.117714   -4.848139
     30          1           0        2.006127   -3.401305   -7.264105
     31          1           0        2.235371   -5.155591   -7.293268
     32          1           0        0.924357   -4.453525   -6.342364
 ---------------------------------------------------------------------
                    Distance matrix (angstroms):
                    1          2          3          4          5
     1  O    0.000000
     2  C    1.352478   0.000000
     3  C    2.373453   1.511857   0.000000
     4  C    3.727922   2.546556   1.529058   0.000000
     5  C    4.403949   3.316356   2.568483   1.533655   0.000000
     6  C    4.197678   3.202353   3.156167   2.576984   1.532326
     7  C    5.526419   4.668323   4.603019   3.942935   2.563395
     8  C    6.027343   5.380016   5.080038   4.585325   3.119785
     9  C    5.454484   5.146998   4.995062   4.966765   3.750877
[...]
 Alpha virt. eigenvalues --    4.09022   4.10878   4.14176   4.17238   4.19754
 Alpha virt. eigenvalues --    4.20620   4.22928   4.25960   4.28838   4.34765
 Alpha virt. eigenvalues --    4.35272   4.37674   4.41174   4.41703   4.43820
 Alpha virt. eigenvalues --    4.45535   4.47160   4.50117   4.52131   4.56955
 Alpha virt. eigenvalues --    4.57595   4.59536   4.61313   4.63705   4.64559
 Alpha virt. eigenvalues --    4.65725   4.68476   4.69032   4.74284   4.76408
 Alpha virt. eigenvalues --    4.76638   4.78554   4.80236   4.85171   4.91118
 Alpha virt. eigenvalues --    4.95714   5.03223   5.04386   5.17033   5.20952
 Alpha virt. eigenvalues --    5.22826   5.38745   5.40226   5.50958   5.59412
 Alpha virt. eigenvalues --    5.74885   5.85566   5.87904   6.13902   6.20164
 Alpha virt. eigenvalues --    6.33364   6.33748   6.45389   6.48945   6.64035
 Alpha virt. eigenvalues --    6.70155   6.74328   6.82837   6.88068   7.07441
 Alpha virt. eigenvalues --    7.08580   7.26150  22.41932  22.50493  22.55541
 Alpha virt. eigenvalues --   22.56608  22.58603  22.60296  22.62216  22.63546
 Alpha virt. eigenvalues --   22.71503  23.29439  44.00432  44.07297
          Condensed to atoms (all electrons):
               1          2          3          4          5          6
     1  O    7.946554   0.358798  -0.115023   0.005451   0.005592  -0.014099
     2  C    0.358798   4.533997   0.239244  -0.013448  -0.001373   0.008136
     3  C   -0.115023   0.239244   5.387639   0.183597  -0.040356   0.011499
     4  C    0.005451  -0.013448   0.183597   5.163122   0.244494  -0.041012
     5  C    0.005592  -0.001373  -0.040356   0.244494   5.320825   0.141642
     6  C   -0.014099   0.008136   0.011499  -0.041012   0.141642   5.432427
     7  C   -0.000469  -0.000371  -0.000097   0.009687  -0.047962   0.213930
     8  C    0.000152  -0.000178  -0.000290  -0.000770   0.035010  -0.082769
     9  C   -0.000558   0.000493  -0.000435   0.000578  -0.015733   0.044231
    10  C    0.000013   0.000009  -0.000006  -0.000010   0.000292  -0.002570
    11  C   -0.000000   0.000000  -0.000001   0.000001   0.000118   0.000049
    12  O   -0.090072   0.655982  -0.094175   0.005914  -0.000871   0.002532
    13  H    0.289295  -0.028468   0.019580  -0.001275  -0.000042   0.000246
    14  H    0.002092  -0.022116   0.399760  -0.028944   0.004627   0.000418
    15  H    0.004948  -0.033710   0.403570  -0.049380   0.011121  -0.006654
    16  H   -0.000137   0.004909  -0.042369   0.436723  -0.054323   0.010432
    17  H    0.000709  -0.006106  -0.045471   0.435571  -0.039522  -0.008311
    18  H   -0.000288   0.000274  -0.012562  -0.029489   0.430676  -0.054815
    19  H    0.000006   0.000220   0.009788  -0.045010   0.427720  -0.047229
    20  H    0.000098   0.000375  -0.004128   0.004194  -0.043857   0.432174
    21  H    0.008430  -0.005633   0.009600  -0.015871  -0.055802   0.417941
    22  H   -0.000002  -0.000007   0.000068  -0.000589  -0.009417  -0.042511
    23  H   -0.000001  -0.000016   0.000178  -0.000712   0.010922  -0.069699
    24  H    0.000000  -0.000001  -0.000022   0.000066  -0.000482   0.011607
    25  H   -0.000001  -0.000016   0.000303   0.000275  -0.000420  -0.013608
    26  H   -0.000002  -0.000034   0.000088  -0.000019   0.000317  -0.005565
    27  H    0.001205   0.000177  -0.001694   0.000461  -0.000464   0.011389
    28  H   -0.000000   0.000002   0.000003  -0.000004   0.000028   0.000002
    29  H   -0.000000  -0.000001   0.000002  -0.000003  -0.000173   0.000160
    30  H   -0.000000   0.000000  -0.000000   0.000000  -0.000012   0.000066
    31  H    0.000000  -0.000000   0.000000  -0.000000   0.000000  -0.000002
    32  H    0.000000  -0.000000   0.000000  -0.000000   0.000019  -0.000118
               7          8          9         10         11         12
     1  O   -0.000469   0.000152  -0.000558   0.000013  -0.000000  -0.090072
     2  C   -0.000371  -0.000178   0.000493   0.000009   0.000000   0.655982
     3  C   -0.000097  -0.000290  -0.000435  -0.000006  -0.000001  -0.094175
     4  C    0.009687  -0.000770   0.000578  -0.000010   0.000001   0.005914
     5  C   -0.047962   0.035010  -0.015733   0.000292   0.000118  -0.000871
     6  C    0.213930  -0.082769   0.044231  -0.002570   0.000049   0.002532
     7  C    5.187621   0.211520  -0.048100   0.009927  -0.000827   0.000573
     8  C    0.211520   5.387137   0.163683  -0.044964   0.013649  -0.000070
     9  C   -0.048100   0.163683   5.315013   0.245494  -0.059063   0.000039
    10  C    0.009927  -0.044964   0.245494   5.101651   0.264273   0.000000
    11  C   -0.000827   0.013649  -0.059063   0.264273   5.077946   0.000000
    12  O    0.000573  -0.000070   0.000039   0.000000   0.000000   7.839495
    13  H   -0.000028   0.000007   0.000014  -0.000000   0.000000   0.006251
    14  H    0.000046  -0.000021   0.000005   0.000000  -0.000000   0.000107
    15  H   -0.000118   0.000072   0.000137  -0.000004   0.000002   0.004434
    16  H   -0.000642   0.000164  -0.000010  -0.000002   0.000000   0.000412
    17  H   -0.000565  -0.000017  -0.000003  -0.000000   0.000000   0.006748
    18  H   -0.013239   0.008683  -0.002910   0.000068   0.000065  -0.000126
    19  H    0.005650  -0.005321   0.000798   0.000012  -0.000006   0.000016
    20  H   -0.041069   0.009999  -0.000260   0.000022   0.000007   0.001661
    21  H   -0.027103  -0.010902  -0.004030   0.000766  -0.000144  -0.007149
    22  H    0.451528  -0.069128   0.010991  -0.000629  -0.000005  -0.000012
    23  H    0.447060  -0.036384  -0.008274  -0.000287   0.000149   0.000008
    24  H   -0.044843   0.431776  -0.040076  -0.005648  -0.001245   0.000000
    25  H   -0.026843   0.423429  -0.061352   0.001288  -0.001762   0.000000
    26  H    0.009444  -0.072081   0.430583  -0.029172  -0.010955  -0.000001
    27  H   -0.019012  -0.036670   0.415700  -0.037911   0.009341  -0.000019
    28  H   -0.000490   0.011898  -0.061258   0.438835  -0.039452  -0.000000
    29  H   -0.000061  -0.013241  -0.037078   0.428773  -0.054093   0.000000
    30  H   -0.000201  -0.004443   0.005162  -0.048589   0.407570   0.000000
    31  H    0.000043  -0.000298   0.011650  -0.044825   0.416925   0.000000
    32  H    0.000654   0.005842  -0.013270  -0.039205   0.418193  -0.000000
              13         14         15         16         17         18
     1  O    0.289295   0.002092   0.004948  -0.000137   0.000709  -0.000288
     2  C   -0.028468  -0.022116  -0.033710   0.004909  -0.006106   0.000274
     3  C    0.019580   0.399760   0.403570  -0.042369  -0.045471  -0.012562
     4  C   -0.001275  -0.028944  -0.049380   0.436723   0.435571  -0.029489
     5  C   -0.000042   0.004627   0.011121  -0.054323  -0.039522   0.430676
     6  C    0.000246   0.000418  -0.006654   0.010432  -0.008311  -0.054815
     7  C   -0.000028   0.000046  -0.000118  -0.000642  -0.000565  -0.013239
     8  C    0.000007  -0.000021   0.000072   0.000164  -0.000017   0.008683
     9  C    0.000014   0.000005   0.000137  -0.000010  -0.000003  -0.002910
    10  C   -0.000000   0.000000  -0.000004  -0.000002  -0.000000   0.000068
    11  C    0.000000  -0.000000   0.000002   0.000000   0.000000   0.000065
    12  O    0.006251   0.000107   0.004434   0.000412   0.006748  -0.000126
    13  H    0.380933  -0.000584  -0.000836   0.000031  -0.000048   0.000028
    14  H   -0.000584   0.498068  -0.016144  -0.007074  -0.001059  -0.000239
    15  H   -0.000836  -0.016144   0.504112  -0.000731   0.005794   0.001835
    16  H    0.000031  -0.007074  -0.000731   0.537820  -0.018782  -0.003330
    17  H   -0.000048  -0.001059   0.005794  -0.018782   0.486602   0.005422
    18  H    0.000028  -0.000239   0.001835  -0.003330   0.005422   0.534206
    19  H   -0.000008  -0.000124   0.000085  -0.006960  -0.002498  -0.019931
    20  H    0.000034  -0.000099   0.000197   0.000201   0.000644   0.004664
    21  H   -0.000669   0.000259   0.001055  -0.000680   0.001660  -0.000226
    22  H   -0.000000   0.000002  -0.000006  -0.000009   0.000115   0.001261
    23  H    0.000001  -0.000001   0.000004   0.000016  -0.000004  -0.000621
    24  H   -0.000000   0.000000   0.000005  -0.000002   0.000001   0.000616
    25  H   -0.000000   0.000002  -0.000043  -0.000003  -0.000031  -0.008937
    26  H    0.000002   0.000000  -0.000023   0.000001  -0.000001  -0.000057
    27  H   -0.000022  -0.000001   0.000533   0.000006  -0.000007   0.001590
    28  H    0.000000  -0.000000  -0.000001   0.000000   0.000000  -0.000022
    29  H   -0.000000   0.000000   0.000005   0.000000   0.000000   0.000279
    30  H   -0.000000   0.000000   0.000000  -0.000000  -0.000000   0.000000
    31  H    0.000000   0.000000  -0.000000  -0.000000   0.000000  -0.000001
    32  H    0.000000   0.000000  -0.000000   0.000000  -0.000000  -0.000008
              19         20         21         22         23         24
     1  O    0.000006   0.000098   0.008430  -0.000002  -0.000001   0.000000
     2  C    0.000220   0.000375  -0.005633  -0.000007  -0.000016  -0.000001
     3  C    0.009788  -0.004128   0.009600   0.000068   0.000178  -0.000022
     4  C   -0.045010   0.004194  -0.015871  -0.000589  -0.000712   0.000066
     5  C    0.427720  -0.043857  -0.055802  -0.009417   0.010922  -0.000482
     6  C   -0.047229   0.432174   0.417941  -0.042511  -0.069699   0.011607
     7  C    0.005650  -0.041069  -0.027103   0.451528   0.447060  -0.044843
     8  C   -0.005321   0.009999  -0.010902  -0.069128  -0.036384   0.431776
     9  C    0.000798  -0.000260  -0.004030   0.010991  -0.008274  -0.040076
    10  C    0.000012   0.000022   0.000766  -0.000629  -0.000287  -0.005648
    11  C   -0.000006   0.000007  -0.000144  -0.000005   0.000149  -0.001245
    12  O    0.000016   0.001661  -0.007149  -0.000012   0.000008   0.000000
    13  H   -0.000008   0.000034  -0.000669  -0.000000   0.000001  -0.000000
    14  H   -0.000124  -0.000099   0.000259   0.000002  -0.000001   0.000000
    15  H    0.000085   0.000197   0.001055  -0.000006   0.000004   0.000005
    16  H   -0.006960   0.000201  -0.000680  -0.000009   0.000016  -0.000002
    17  H   -0.002498   0.000644   0.001660   0.000115  -0.000004   0.000001
    18  H   -0.019931   0.004664  -0.000226   0.001261  -0.000621   0.000616
    19  H    0.523864  -0.000076   0.005217   0.001423   0.000142  -0.000271
    20  H   -0.000076   0.485172  -0.019079  -0.003738  -0.006613   0.000006
    21  H    0.005217  -0.019079   0.543841   0.005912  -0.002033  -0.000782
    22  H    0.001423  -0.003738   0.005912   0.530471  -0.017517  -0.006578
    23  H    0.000142  -0.006613  -0.002033  -0.017517   0.528535  -0.004135
    24  H   -0.000271   0.000006  -0.000782  -0.006578  -0.004135   0.529612
    25  H    0.001338  -0.000832   0.002206  -0.001436   0.005468  -0.020846
    26  H    0.000001  -0.000272   0.001588   0.000073   0.001442  -0.000227
    27  H   -0.000177   0.000781  -0.012242  -0.000630   0.001265   0.004954
    28  H    0.000000  -0.000002   0.000002   0.000018   0.000034  -0.000459
    29  H    0.000004  -0.000002   0.000028   0.000017  -0.000018   0.001470
    30  H    0.000000  -0.000000   0.000005   0.000011  -0.000006   0.000946
    31  H   -0.000000  -0.000000   0.000002  -0.000002  -0.000004   0.000283
    32  H   -0.000000  -0.000000   0.000001  -0.000003   0.000050  -0.006221
              25         26         27         28         29         30
     1  O   -0.000001  -0.000002   0.001205  -0.000000  -0.000000  -0.000000
     2  C   -0.000016  -0.000034   0.000177   0.000002  -0.000001   0.000000
     3  C    0.000303   0.000088  -0.001694   0.000003   0.000002  -0.000000
     4  C    0.000275  -0.000019   0.000461  -0.000004  -0.000003   0.000000
     5  C   -0.000420   0.000317  -0.000464   0.000028  -0.000173  -0.000012
     6  C   -0.013608  -0.005565   0.011389   0.000002   0.000160   0.000066
     7  C   -0.026843   0.009444  -0.019012  -0.000490  -0.000061  -0.000201
     8  C    0.423429  -0.072081  -0.036670   0.011898  -0.013241  -0.004443
     9  C   -0.061352   0.430583   0.415700  -0.061258  -0.037078   0.005162
    10  C    0.001288  -0.029172  -0.037911   0.438835   0.428773  -0.048589
    11  C   -0.001762  -0.010955   0.009341  -0.039452  -0.054093   0.407570
    12  O    0.000000  -0.000001  -0.000019  -0.000000   0.000000   0.000000
    13  H   -0.000000   0.000002  -0.000022   0.000000  -0.000000  -0.000000
    14  H    0.000002   0.000000  -0.000001  -0.000000   0.000000   0.000000
    15  H   -0.000043  -0.000023   0.000533  -0.000001   0.000005   0.000000
    16  H   -0.000003   0.000001   0.000006   0.000000   0.000000  -0.000000
    17  H   -0.000031  -0.000001  -0.000007   0.000000   0.000000  -0.000000
    18  H   -0.008937  -0.000057   0.001590  -0.000022   0.000279   0.000000
    19  H    0.001338   0.000001  -0.000177   0.000000   0.000004   0.000000
    20  H   -0.000832  -0.000272   0.000781  -0.000002  -0.000002  -0.000000
    21  H    0.002206   0.001588  -0.012242   0.000002   0.000028   0.000005
    22  H   -0.001436   0.000073  -0.000630   0.000018   0.000017   0.000011
    23  H    0.005468   0.001442   0.001265   0.000034  -0.000018  -0.000006
    24  H   -0.020846  -0.000227   0.004954  -0.000459   0.001470   0.000946
    25  H    0.534684   0.006883  -0.001763   0.000009   0.002717   0.000163
    26  H    0.006883   0.533486  -0.021670  -0.003203   0.006750   0.002668
    27  H   -0.001763  -0.021670   0.555560  -0.007913  -0.003177   0.000152
    28  H    0.000009  -0.003203  -0.007913   0.553927  -0.025307  -0.003815
    29  H    0.002717   0.006750  -0.003177  -0.025307   0.560002   0.007749
    30  H    0.000163   0.002668   0.000152  -0.003815   0.007749   0.550063
    31  H   -0.000068  -0.000192  -0.000339  -0.005512  -0.003764  -0.023708
    32  H    0.000227   0.000962  -0.000548   0.006448  -0.003594  -0.030937
              31         32
     1  O    0.000000   0.000000
     2  C   -0.000000  -0.000000
     3  C    0.000000   0.000000
     4  C   -0.000000  -0.000000
     5  C    0.000000   0.000019
     6  C   -0.000002  -0.000118
     7  C    0.000043   0.000654
     8  C   -0.000298   0.005842
     9  C    0.011650  -0.013270
    10  C   -0.044825  -0.039205
    11  C    0.416925   0.418193
    12  O    0.000000  -0.000000
    13  H    0.000000   0.000000
    14  H    0.000000   0.000000
    15  H   -0.000000  -0.000000
    16  H   -0.000000   0.000000
    17  H    0.000000  -0.000000
    18  H   -0.000001  -0.000008
    19  H   -0.000000  -0.000000
    20  H   -0.000000  -0.000000
    21  H    0.000002   0.000001
    22  H   -0.000002  -0.000003
    23  H   -0.000004   0.000050
    24  H    0.000283  -0.006221
    25  H   -0.000068   0.000227
    26  H   -0.000192   0.000962
    27  H   -0.000339  -0.000548
    28  H   -0.005512   0.006448
    29  H   -0.003764  -0.003594
    30  H   -0.023708  -0.030937
    31  H    0.531495  -0.024342
    32  H   -0.024342   0.546011
 Mulliken charges:
               1
     1  O   -0.402693
     2  C    0.308861
     3  C   -0.308291
     4  C   -0.263599
     5  C   -0.322595
     6  C   -0.349919
     7  C   -0.275642
     8  C   -0.325472
     9  C   -0.292161
    10  C   -0.237601
    11  C   -0.440732
    12  O   -0.331678
    13  H    0.335558
    14  H    0.171019
    15  H    0.169741
    16  H    0.144339
    17  H    0.179160
    18  H    0.157132
    19  H    0.151328
    20  H    0.179799
    21  H    0.163831
    22  H    0.150329
    23  H    0.151052
    24  H    0.150496
    25  H    0.158970
    26  H    0.149186
    27  H    0.141143
    28  H    0.136233
    29  H    0.132556
    30  H    0.137153
    31  H    0.142657
    32  H    0.139839
 Sum of Mulliken charges =  -0.00000
 Mulliken charges with hydrogens summed into heavy atoms:
               1
     1  O   -0.067134
     2  C    0.308861
     3  C    0.032468
     4  C    0.059900
     5  C   -0.014135
     6  C   -0.006289
     7  C    0.025739
     8  C   -0.016007
     9  C   -0.001832
    10  C    0.031188
    11  C   -0.021082
    12  O   -0.331678
 Electronic spatial extent (au):  <R**2>=           3468.7208
 Charge=              0.0000 electrons
 Dipole moment (field-independent basis, Debye):
    X=              0.8478    Y=              0.5515    Z=              1.0855  Tot=              1.4837
 Quadrupole moment (field-independent basis, Debye-Ang):
   XX=            -83.8874   YY=            -75.1312   ZZ=            -75.9649
   XY=             -2.7688   XZ=             -4.8979   YZ=             -3.3615
 Traceless Quadrupole moment (field-independent basis, Debye-Ang):
   XX=             -5.5596   YY=              3.1966   ZZ=              2.3630
   XY=             -2.7688   XZ=             -4.8979   YZ=             -3.3615
 Octapole moment (field-independent basis, Debye-Ang**2):
  XXX=             -3.8168  YYY=             13.3267  ZZZ=             -3.3832  XYY=            -17.1867
  XXY=             15.9016  XXZ=             19.9538  XZZ=            -10.3038  YZZ=              9.6937
  YYZ=            -12.5823  XYZ=              9.1268
 Hexadecapole moment (field-independent basis, Debye-Ang**3):
 XXXX=          -3650.5594 YYYY=           -723.6185 ZZZZ=           -434.2194 XXXY=            -63.9217
 XXXZ=            -58.6606 YYYX=            -44.6399 YYYZ=            -34.6784 ZZZX=              5.1060
 ZZZY=            -17.2912 XXYY=           -670.7324 XXZZ=           -651.8369 YYZZ=           -181.2756
 XXYZ=            -21.5179 YYXZ=             35.3315 ZZXY=            -21.9437
 N-N= 7.347945624750D+02 E-N=-2.734523767177D+03  KE= 5.405724881861D+02
 Unable to Open any file for archive entry.
 1\1\GINC-NOTCH075\SP\RM062X\def2TZVP\C10H20O2\U6032257\03-Feb-2022\0\\
 # M062X/def2tzvp int=(grid=ultrafine) nmr=giao guess=read geom=check\\
 Ac1.xyz\\0,1\O,0,5.6838193296,-0.7728901332,-1.3380256099\C,0,4.749532
 125,-0.8435537277,-0.3568549913\C,0,4.475298488,-2.2684769637,0.069775
 4668\C,0,2.9967646932,-2.5159867703,0.403325425\C,0,2.1131872196,-2.74
 30904154,-0.8307309678\C,0,2.0681095593,-1.5680171824,-1.8143700193\C,
 0,1.0626658653,-1.7613848489,-2.9589199385\C,0,1.3022170414,-2.9947434
 181,-3.8436472377\C,0,2.6765024172,-3.0200812184,-4.5217268328\C,0,2.9
 048592653,-4.2340461892,-5.43362374\C,0,1.9931042015,-4.2768324784,-6.
 663398489\O,0,4.2341290632,0.1447571919,0.1182598668\H,0,5.8096612506,
 0.1745953504,-1.5177277917\H,0,5.0910510059,-2.4357263123,0.9627436599
 \H,0,4.8386887321,-2.9566897206,-0.6989441282\H,0,2.929277873,-3.39501
 32074,1.0535101029\H,0,2.6292925202,-1.6609961583,0.981038676\H,0,2.46
 22090917,-3.6451065609,-1.3506096902\H,0,1.0918096821,-2.9641330062,-0
 .4933179359\H,0,1.8173175218,-0.6512337258,-1.2682214943\H,0,3.0656197
 129,-1.4004721684,-2.2375149926\H,0,0.0510440956,-1.8215890297,-2.5360
 440178\H,0,1.0757202823,-0.8644776507,-3.5920974245\H,0,0.5155076168,-
 3.0252459839,-4.6063947385\H,0,1.1793164981,-3.9106651551,-3.250492576
 7\H,0,2.8088006846,-2.0976270108,-5.1054973885\H,0,3.4610747976,-3.008
 0253951,-3.7553914941\H,0,3.9507198457,-4.2342725296,-5.7650056475\H,0
 ,2.771918117,-5.1535517572,-4.8473418614\H,0,2.0986670672,-3.363844997
 1,-7.2606746064\H,0,2.2388986027,-5.1266339952,-7.3080824606\H,0,0.938
 6157336,-4.3699448323,-6.3862971222\\Version=ES64L-G16RevC.01\State=1-
 A\HF=-543.5421721\RMSD=2.998e-09\Dipole=0.1896592,-0.5014609,-0.230866
 9\Quadrupole=2.3219599,-1.3044859,-1.017474,1.23347,0.0262899,-5.57379
 92\PG=C01 [X(C10H20O2)]\\@
 The archive entry for this job was punched.


 Once you get people laughing, they're
 listening and you can tell them almost anything.
                                 -- Herb Gardner
 Job cpu time:       0 days  0 hours 41 minutes 27.9 seconds.
 Elapsed time:       0 days  0 hours  1 minutes 28.8 seconds.
 File lengths (MBytes):  RWF=    140 Int=      0 D2E=      0 Chk=     24 Scr=      1
 Normal termination of Gaussian 16 at Thu Feb  3 07:42:18 2022.
