 Entering Gaussian System, Link 0=/uufs/chpc.utah.edu/sys/installdir/gaussian16/C01/AVX2/g16/g16
 Input=Ac1_clust-2.com
 Output=Ac1_clust-2.log
 Initial command:
 /uufs/chpc.utah.edu/sys/installdir/gaussian16/C01/AVX2/g16/l1.exe "/scratch/general/lustre/u6032257/3857486/notchpeak.peaks/Gau-279057.inp" -scrdir="/scratch/general/lustre/u6032257/3857486/notchpeak.peaks/"
 Entering Link 1 = /uufs/chpc.utah.edu/sys/installdir/gaussian16/C01/AVX2/g16/l1.exe PID=    279059.
  
 Copyright (c) 1988-2019, Gaussian, Inc.  All Rights Reserved.
  
 This is part of the Gaussian(R) 16 program.  It is based on
 the Gaussian(R) 09 system (copyright 2009, Gaussian, Inc.),
 the Gaussian(R) 03 system (copyright 2003, Gaussian, Inc.),
 the Gaussian(R) 98 system (copyright 1998, Gaussian, Inc.),
 the Gaussian(R) 94 system (copyright 1995, Gaussian, Inc.),
 the Gaussian 92(TM) system (copyright 1992, Gaussian, Inc.),
 the Gaussian 90(TM) system (copyright 1990, Gaussian, Inc.),
 the Gaussian 88(TM) system (copyright 1988, Gaussian, Inc.),
 the Gaussian 86(TM) system (copyright 1986, Carnegie Mellon
 University), and the Gaussian 82(TM) system (copyright 1983,
 Carnegie Mellon University). Gaussian is a federally registered
 trademark of Gaussian, Inc.
  
 This software contains proprietary and confidential information,
 including trade secrets, belonging to Gaussian, Inc.
  
 This software is provided under written license and may be
 used, copied, transmitted, or stored only in accord with that
 written license.
  
 The following legend is applicable only to US Government
 contracts under FAR:
  
                    RESTRICTED RIGHTS LEGEND
  
 Use, reproduction and disclosure by the US Government is
 subject to restrictions as set forth in subparagraphs (a)
 and (c) of the Commercial Computer Software - Restricted
 Rights clause in FAR 52.227-19.
  
 Gaussian, Inc.
 340 Quinnipiac St., Bldg. 40, Wallingford CT 06492
  
  
 ---------------------------------------------------------------
 Warning -- This program may not be used in any manner that
 competes with the business of Gaussian, Inc. or will provide
 assistance to any competitor of Gaussian, Inc.  The licensee
 of this program is prohibited from giving any competitor of
 Gaussian, Inc. access to this program.  By using this program,
 the user acknowledges that Gaussian, Inc. is engaged in the
 business of creating and licensing software in the field of
 computational chemistry and represents and warrants to the
 licensee that it is not a competitor of Gaussian, Inc. and that
 it will not use this program in any manner prohibited above.
 ---------------------------------------------------------------
  

 Cite this work as:
 Gaussian 16, Revision C.01,
 M. J. Frisch, G. W. Trucks, H. B. Schlegel, G. E. Scuseria, 
 M. A. Robb, J. R. Cheeseman, G. Scalmani, V. Barone, 
 G. A. Petersson, H. Nakatsuji, X. Li, M. Caricato, A. V. Marenich, 
 J. Bloino, B. G. Janesko, R. Gomperts, B. Mennucci, H. P. Hratchian, 
 J. V. Ortiz, A. F. Izmaylov, J. L. Sonnenberg, D. Williams-Young, 
 F. Ding, F. Lipparini, F. Egidi, J. Goings, B. Peng, A. Petrone, 
 T. Henderson, D. Ranasinghe, V. G. Zakrzewski, J. Gao, N. Rega, 
 G. Zheng, W. Liang, M. Hada, M. Ehara, K. Toyota, R. Fukuda, 
 J. Hasegawa, M. Ishida, T. Nakajima, Y. Honda, O. Kitao, H. Nakai, 
 T. Vreven, K. Throssell, J. A. Montgomery, Jr., J. E. Peralta, 
 F. Ogliaro, M. J. Bearpark, J. J. Heyd, E. N. Brothers, K. N. Kudin, 
 V. N. Staroverov, T. A. Keith, R. Kobayashi, J. Normand, 
 K. Raghavachari, A. P. Rendell, J. C. Burant, S. S. Iyengar, 
 J. Tomasi, M. Cossi, J. M. Millam, M. Klene, C. Adamo, R. Cammi, 
 J. W. Ochterski, R. L. Martin, K. Morokuma, O. Farkas, 
 J. B. Foresman, and D. J. Fox, Gaussian, Inc., Wallingford CT, 2019.
 
 ******************************************
 Gaussian 16:  ES64L-G16RevC.01  3-Jul-2019
                 3-Feb-2022 
 ******************************************
 %NProcShared=32
 Will use up to   32 processors via shared memory.
 %mem=16GB
 %chk=Ac1_clust-2.chk
 ----------------------------------------------------------------------
 # B3LYP/6-31G(d,p) empiricaldispersion=GD3BJ int=(grid=ultrafine) opt 
 freq=noraman
 ----------------------------------------------------------------------
 1/18=20,19=15,26=4,38=1/1,3;
 2/9=110,12=2,17=6,18=5,40=1/2;
 3/5=1,6=6,7=101,11=2,25=1,30=1,71=1,74=-5,75=-5,124=41/1,2,3;
 4//1;
 5/5=2,38=5/2;
 6/7=2,8=2,9=2,10=2,28=1/1;
 7//1,2,3,16;
 1/18=20,19=15,26=4/3(2);
 2/9=110/2;
 99//99;
 2/9=110/2;
 3/5=1,6=6,7=101,11=2,25=1,30=1,71=1,74=-5,75=-5,124=41/1,2,3;
 4/5=5,16=3,69=1/1;
 5/5=2,38=5/2;
 7//1,2,3,16;
 1/18=20,19=15,26=4/3(-5);
 2/9=110/2;
 6/7=2,8=2,9=2,10=2,19=2,28=1/1;
 99/9=1/99;
 -------
 Ac1.xyz
 -------
 Symbolic Z-matrix:
 Charge =  0 Multiplicity = 1
 O                     5.1818    0.4794   -0.882 
 C                     4.9464   -0.8184   -0.596 
 C                     3.9414   -0.9731    0.5464 
 C                     3.4185   -2.4127    0.8004 
 C                     2.1938   -2.828    -0.0445 
 C                     2.4627   -2.9592   -1.5553 
 C                     1.2495   -3.5035   -2.3336 
 C                     1.5146   -3.7263   -3.8358 
 C                     1.7902   -2.4311   -4.6277 
 C                     1.8829   -2.635    -6.1521 
 C                     3.0815   -3.4882   -6.597 
 O                     5.4991   -1.7406   -1.1792 
 H                     5.8202    0.4478   -1.5952 
 H                     3.1126   -0.2814    0.3964 
 H                     4.4782   -0.6339    1.4317 
 H                     4.2193   -3.1469    0.6821 
 H                     3.1282   -2.4843    1.8502 
 H                     1.8319   -3.787     0.3305 
 H                     1.3788   -2.1213    0.1215 
 H                     2.7402   -1.9855   -1.9578 
 H                     3.323    -3.6117   -1.7167 
 H                     0.9425   -4.4537   -1.8934 
 H                     0.3993   -2.8306   -2.2087 
 H                     0.6489   -4.2298   -4.2693 
 H                     2.3497   -4.4187   -3.9527 
 H                     0.9954   -1.7124   -4.421 
 H                     2.7113   -1.9658   -4.2735 
 H                     0.9584   -3.082    -6.5217 
 H                     1.9516   -1.6581   -6.6337 
 H                     3.0097   -4.5099   -6.2234 
 H                     3.1372   -3.5438   -7.6846 
 H                     4.0224   -3.0674   -6.2402 
 

 GradGradGradGradGradGradGradGradGradGradGradGradGradGradGradGradGradGrad
 Berny optimization.
 Initialization pass.
                           ----------------------------
                           !    Initial Parameters    !
                           ! (Angstroms and Degrees)  !
 --------------------------                            --------------------------
 ! Name  Definition              Value          Derivative Info.                !
 --------------------------------------------------------------------------------
 ! R1    R(1,2)                  1.3496         estimate D2E/DX2                !
 ! R2    R(1,13)                 0.9577         estimate D2E/DX2                !
 ! R3    R(2,3)                  1.5294         estimate D2E/DX2                !
 ! R4    R(2,12)                 1.2231         estimate D2E/DX2                !
 ! R5    R(3,4)                  1.5525         estimate D2E/DX2                !
 ! R6    R(3,14)                 1.0899         estimate D2E/DX2                !
 ! R7    R(3,15)                 1.0895         estimate D2E/DX2                !
 ! R8    R(4,5)                  1.5447         estimate D2E/DX2                !
 ! R9    R(4,16)                 1.0929         estimate D2E/DX2                !
 ! R10   R(4,17)                 1.0915         estimate D2E/DX2                !
 ! R11   R(5,6)                  1.5401         estimate D2E/DX2                !
 ! R12   R(5,18)                 1.0915         estimate D2E/DX2                !
 ! R13   R(5,19)                 1.0914         estimate D2E/DX2                !
 ! R14   R(6,7)                  1.5407         estimate D2E/DX2                !
 ! R15   R(6,20)                 1.0895         estimate D2E/DX2                !
 ! R16   R(6,21)                 1.0918         estimate D2E/DX2                !
 ! R17   R(7,8)                  1.5416         estimate D2E/DX2                !
 ! R18   R(7,22)                 1.0913         estimate D2E/DX2                !
 ! R19   R(7,23)                 1.0914         estimate D2E/DX2                !
 ! R20   R(8,9)                  1.5429         estimate D2E/DX2                !
 ! R21   R(8,24)                 1.0913         estimate D2E/DX2                !
 ! R22   R(8,25)                 1.0911         estimate D2E/DX2                !
 ! R23   R(9,10)                 1.5408         estimate D2E/DX2                !
 ! R24   R(9,26)                 1.0913         estimate D2E/DX2                !
 ! R25   R(9,27)                 1.091          estimate D2E/DX2                !
 ! R26   R(10,11)                1.5371         estimate D2E/DX2                !
 ! R27   R(10,28)                1.0914         estimate D2E/DX2                !
 ! R28   R(10,29)                1.0913         estimate D2E/DX2                !
 ! R29   R(11,30)                1.0902         estimate D2E/DX2                !
 ! R30   R(11,31)                1.0904         estimate D2E/DX2                !
 ! R31   R(11,32)                1.0907         estimate D2E/DX2                !
 ! A1    A(2,1,13)             104.025          estimate D2E/DX2                !
 ! A2    A(1,2,3)              111.7262         estimate D2E/DX2                !
 ! A3    A(1,2,12)             123.0354         estimate D2E/DX2                !
 ! A4    A(3,2,12)             125.228          estimate D2E/DX2                !
 ! A5    A(2,3,4)              115.933          estimate D2E/DX2                !
 ! A6    A(2,3,14)             109.4332         estimate D2E/DX2                !
 ! A7    A(2,3,15)             104.5787         estimate D2E/DX2                !
 ! A8    A(4,3,14)             110.7861         estimate D2E/DX2                !
 ! A9    A(4,3,15)             108.7656         estimate D2E/DX2                !
 ! A10   A(14,3,15)            106.7935         estimate D2E/DX2                !
 ! A11   A(3,4,5)              115.2666         estimate D2E/DX2                !
 ! A12   A(3,4,16)             111.0045         estimate D2E/DX2                !
 ! A13   A(3,4,17)             107.9232         estimate D2E/DX2                !
 ! A14   A(5,4,16)             109.9453         estimate D2E/DX2                !
 ! A15   A(5,4,17)             107.3103         estimate D2E/DX2                !
 ! A16   A(16,4,17)            104.7689         estimate D2E/DX2                !
 ! A17   A(4,5,6)              114.8986         estimate D2E/DX2                !
 ! A18   A(4,5,18)             108.1303         estimate D2E/DX2                !
 ! A19   A(4,5,19)             109.5576         estimate D2E/DX2                !
 ! A20   A(6,5,18)             108.6674         estimate D2E/DX2                !
 ! A21   A(6,5,19)             109.5562         estimate D2E/DX2                !
 ! A22   A(18,5,19)            105.6089         estimate D2E/DX2                !
 ! A23   A(5,6,7)              112.8388         estimate D2E/DX2                !
 ! A24   A(5,6,20)             109.3126         estimate D2E/DX2                !
 ! A25   A(5,6,21)             109.4821         estimate D2E/DX2                !
 ! A26   A(7,6,20)             109.2475         estimate D2E/DX2                !
 ! A27   A(7,6,21)             109.5522         estimate D2E/DX2                !
 ! A28   A(20,6,21)            106.1889         estimate D2E/DX2                !
 ! A29   A(6,7,8)              114.0722         estimate D2E/DX2                !
 ! A30   A(6,7,22)             108.9868         estimate D2E/DX2                !
 ! A31   A(6,7,23)             109.7409         estimate D2E/DX2                !
 ! A32   A(8,7,22)             108.3973         estimate D2E/DX2                !
 ! A33   A(8,7,23)             109.5465         estimate D2E/DX2                !
 ! A34   A(22,7,23)            105.7546         estimate D2E/DX2                !
 ! A35   A(7,8,9)              114.1751         estimate D2E/DX2                !
 ! A36   A(7,8,24)             108.5031         estimate D2E/DX2                !
 ! A37   A(7,8,25)             109.1314         estimate D2E/DX2                !
 ! A38   A(9,8,24)             108.9733         estimate D2E/DX2                !
 ! A39   A(9,8,25)             109.9381         estimate D2E/DX2                !
 ! A40   A(24,8,25)            105.7725         estimate D2E/DX2                !
 ! A41   A(8,9,10)             114.0449         estimate D2E/DX2                !
 ! A42   A(8,9,26)             108.9976         estimate D2E/DX2                !
 ! A43   A(8,9,27)             110.0095         estimate D2E/DX2                !
 ! A44   A(10,9,26)            108.564          estimate D2E/DX2                !
 ! A45   A(10,9,27)            109.0769         estimate D2E/DX2                !
 ! A46   A(26,9,27)            105.8135         estimate D2E/DX2                !
 ! A47   A(9,10,11)            114.0009         estimate D2E/DX2                !
 ! A48   A(9,10,28)            109.7729         estimate D2E/DX2                !
 ! A49   A(9,10,29)            108.7801         estimate D2E/DX2                !
 ! A50   A(11,10,28)           109.5843         estimate D2E/DX2                !
 ! A51   A(11,10,29)           108.6668         estimate D2E/DX2                !
 ! A52   A(28,10,29)           105.6944         estimate D2E/DX2                !
 ! A53   A(10,11,30)           111.6941         estimate D2E/DX2                !
 ! A54   A(10,11,31)           110.9057         estimate D2E/DX2                !
 ! A55   A(10,11,32)           111.337          estimate D2E/DX2                !
 ! A56   A(30,11,31)           107.2995         estimate D2E/DX2                !
 ! A57   A(30,11,32)           107.8341         estimate D2E/DX2                !
 ! A58   A(31,11,32)           107.5704         estimate D2E/DX2                !
 ! D1    D(13,1,2,3)           179.5685         estimate D2E/DX2                !
 ! D2    D(13,1,2,12)            0.6902         estimate D2E/DX2                !
 ! D3    D(1,2,3,4)            170.1774         estimate D2E/DX2                !
 ! D4    D(1,2,3,14)            44.0191         estimate D2E/DX2                !
 ! D5    D(1,2,3,15)           -70.0808         estimate D2E/DX2                !
 ! D6    D(12,2,3,4)           -10.9738         estimate D2E/DX2                !
 ! D7    D(12,2,3,14)         -137.1321         estimate D2E/DX2                !
 ! D8    D(12,2,3,15)          108.768          estimate D2E/DX2                !
 ! D9    D(2,3,4,5)            -86.6841         estimate D2E/DX2                !
 ! D10   D(2,3,4,16)            39.1387         estimate D2E/DX2                !
 ! D11   D(2,3,4,17)           153.4175         estimate D2E/DX2                !
 ! D12   D(14,3,4,5)            38.7877         estimate D2E/DX2                !
 ! D13   D(14,3,4,16)          164.6105         estimate D2E/DX2                !
 ! D14   D(14,3,4,17)          -81.1106         estimate D2E/DX2                !
 ! D15   D(15,3,4,5)           155.8755         estimate D2E/DX2                !
 ! D16   D(15,3,4,16)          -78.3017         estimate D2E/DX2                !
 ! D17   D(15,3,4,17)           35.9771         estimate D2E/DX2                !
 ! D18   D(3,4,5,6)             67.0385         estimate D2E/DX2                !
 ! D19   D(3,4,5,18)          -171.4084         estimate D2E/DX2                !
 ! D20   D(3,4,5,19)           -56.7768         estimate D2E/DX2                !
 ! D21   D(16,4,5,6)           -59.3268         estimate D2E/DX2                !
 ! D22   D(16,4,5,18)           62.2263         estimate D2E/DX2                !
 ! D23   D(16,4,5,19)          176.858          estimate D2E/DX2                !
 ! D24   D(17,4,5,6)          -172.727          estimate D2E/DX2                !
 ! D25   D(17,4,5,18)          -51.1739         estimate D2E/DX2                !
 ! D26   D(17,4,5,19)           63.4578         estimate D2E/DX2                !
 ! D27   D(4,5,6,7)            174.5304         estimate D2E/DX2                !
 ! D28   D(4,5,6,20)           -63.6927         estimate D2E/DX2                !
 ! D29   D(4,5,6,21)            52.242          estimate D2E/DX2                !
 ! D30   D(18,5,6,7)            53.2699         estimate D2E/DX2                !
 ! D31   D(18,5,6,20)          175.0468         estimate D2E/DX2                !
 ! D32   D(18,5,6,21)          -69.0185         estimate D2E/DX2                !
 ! D33   D(19,5,6,7)           -61.6536         estimate D2E/DX2                !
 ! D34   D(19,5,6,20)           60.1232         estimate D2E/DX2                !
 ! D35   D(19,5,6,21)          176.058          estimate D2E/DX2                !
 ! D36   D(5,6,7,8)           -176.5179         estimate D2E/DX2                !
 ! D37   D(5,6,7,22)           -55.235          estimate D2E/DX2                !
 ! D38   D(5,6,7,23)            60.1401         estimate D2E/DX2                !
 ! D39   D(20,6,7,8)            61.6685         estimate D2E/DX2                !
 ! D40   D(20,6,7,22)         -177.0485         estimate D2E/DX2                !
 ! D41   D(20,6,7,23)          -61.6735         estimate D2E/DX2                !
 ! D42   D(21,6,7,8)           -54.2688         estimate D2E/DX2                !
 ! D43   D(21,6,7,22)           67.0141         estimate D2E/DX2                !
 ! D44   D(21,6,7,23)         -177.6108         estimate D2E/DX2                !
 ! D45   D(6,7,8,9)            -65.5335         estimate D2E/DX2                !
 ! D46   D(6,7,8,24)           172.7286         estimate D2E/DX2                !
 ! D47   D(6,7,8,25)            57.9267         estimate D2E/DX2                !
 ! D48   D(22,7,8,9)           172.8574         estimate D2E/DX2                !
 ! D49   D(22,7,8,24)           51.1195         estimate D2E/DX2                !
 ! D50   D(22,7,8,25)          -63.6824         estimate D2E/DX2                !
 ! D51   D(23,7,8,9)            57.9137         estimate D2E/DX2                !
 ! D52   D(23,7,8,24)          -63.8242         estimate D2E/DX2                !
 ! D53   D(23,7,8,25)         -178.626          estimate D2E/DX2                !
 ! D54   D(7,8,9,10)          -172.8754         estimate D2E/DX2                !
 ! D55   D(7,8,9,26)           -51.3886         estimate D2E/DX2                !
 ! D56   D(7,8,9,27)            64.2118         estimate D2E/DX2                !
 ! D57   D(24,8,9,10)          -51.3967         estimate D2E/DX2                !
 ! D58   D(24,8,9,26)           70.0901         estimate D2E/DX2                !
 ! D59   D(24,8,9,27)         -174.3095         estimate D2E/DX2                !
 ! D60   D(25,8,9,10)           64.1011         estimate D2E/DX2                !
 ! D61   D(25,8,9,26)         -174.4121         estimate D2E/DX2                !
 ! D62   D(25,8,9,27)          -58.8117         estimate D2E/DX2                !
 ! D63   D(8,9,10,11)          -65.6596         estimate D2E/DX2                !
 ! D64   D(8,9,10,28)           57.7051         estimate D2E/DX2                !
 ! D65   D(8,9,10,29)          172.9102         estimate D2E/DX2                !
 ! D66   D(26,9,10,11)         172.6139         estimate D2E/DX2                !
 ! D67   D(26,9,10,28)         -64.0214         estimate D2E/DX2                !
 ! D68   D(26,9,10,29)          51.1837         estimate D2E/DX2                !
 ! D69   D(27,9,10,11)          57.7597         estimate D2E/DX2                !
 ! D70   D(27,9,10,28)        -178.8756         estimate D2E/DX2                !
 ! D71   D(27,9,10,29)         -63.6705         estimate D2E/DX2                !
 ! D72   D(9,10,11,30)          64.2074         estimate D2E/DX2                !
 ! D73   D(9,10,11,31)        -176.1525         estimate D2E/DX2                !
 ! D74   D(9,10,11,32)         -56.4075         estimate D2E/DX2                !
 ! D75   D(28,10,11,30)        -59.2595         estimate D2E/DX2                !
 ! D76   D(28,10,11,31)         60.3805         estimate D2E/DX2                !
 ! D77   D(28,10,11,32)       -179.8744         estimate D2E/DX2                !
 ! D78   D(29,10,11,30)       -174.2996         estimate D2E/DX2                !
 ! D79   D(29,10,11,31)        -54.6596         estimate D2E/DX2                !
 ! D80   D(29,10,11,32)         65.0854         estimate D2E/DX2                !
 --------------------------------------------------------------------------------
 Trust Radius=3.00D-01 FncErr=1.00D-07 GrdErr=1.00D-06 EigMax=2.50D+02 EigMin=1.00D-04
 Number of steps in this run=    179 maximum allowed number of steps=    192.
 GradGradGradGradGradGradGradGradGradGradGradGradGradGradGradGradGradGrad

                          Input orientation:                          
 ---------------------------------------------------------------------
 Center     Atomic      Atomic             Coordinates (Angstroms)
 Number     Number       Type             X           Y           Z
 ---------------------------------------------------------------------
      1          8           0        5.181800    0.479400   -0.882000
      2          6           0        4.946400   -0.818400   -0.596000
      3          6           0        3.941400   -0.973100    0.546400
      4          6           0        3.418500   -2.412700    0.800400
      5          6           0        2.193800   -2.828000   -0.044500
      6          6           0        2.462700   -2.959200   -1.555300
      7          6           0        1.249500   -3.503500   -2.333600
      8          6           0        1.514600   -3.726300   -3.835800
      9          6           0        1.790200   -2.431100   -4.627700
     10          6           0        1.882900   -2.635000   -6.152100
     11          6           0        3.081500   -3.488200   -6.597000
     12          8           0        5.499100   -1.740600   -1.179200
     13          1           0        5.820200    0.447800   -1.595200
     14          1           0        3.112600   -0.281400    0.396400
     15          1           0        4.478200   -0.633900    1.431700
     16          1           0        4.219300   -3.146900    0.682100
     17          1           0        3.128200   -2.484300    1.850200
     18          1           0        1.831900   -3.787000    0.330500
     19          1           0        1.378800   -2.121300    0.121500
     20          1           0        2.740200   -1.985500   -1.957800
     21          1           0        3.323000   -3.611700   -1.716700
     22          1           0        0.942500   -4.453700   -1.893400
     23          1           0        0.399300   -2.830600   -2.208700
     24          1           0        0.648900   -4.229800   -4.269300
     25          1           0        2.349700   -4.418700   -3.952700
     26          1           0        0.995400   -1.712400   -4.421000
     27          1           0        2.711300   -1.965800   -4.273500
     28          1           0        0.958400   -3.082000   -6.521700
     29          1           0        1.951600   -1.658100   -6.633700
     30          1           0        3.009700   -4.509900   -6.223400
     31          1           0        3.137200   -3.543800   -7.684600
     32          1           0        4.022400   -3.067400   -6.240200
 ---------------------------------------------------------------------
                    Distance matrix (angstroms):
                    1          2          3          4          5
     1  O    0.000000
     2  C    1.349627   0.000000
     3  C    2.385094   1.529390   0.000000
     4  C    3.782055   2.612700   1.552543   0.000000
     5  C    4.535245   3.452456   2.616089   1.544740   0.000000
     6  C    4.435178   3.416438   3.247813   2.600296   1.540142
     7  C    5.782181   4.888362   4.684405   3.964387   2.566706
     8  C    6.313573   5.543414   5.716043   5.181190   3.955024
     9  C    5.831315   5.368147   5.790055   5.667095   4.618024
    10  C    6.953861   6.599645   7.202030   7.123534   6.118553
    11  C    7.267347   6.827714   7.621897   7.482767   6.645234
    12  O    2.262169   1.223132   2.448097   2.949480   3.659917
    13  H    0.957709   1.834445   3.183598   4.437288   5.127018
    14  H    2.548472   2.153149   1.089889   2.190715   2.742947
    15  H    2.662273   2.089215   1.089480   2.164632   3.494528
    16  H    4.064833   2.753929   2.195689   1.092852   2.175384
    17  H    4.523904   3.473466   2.155206   1.091550   2.140355
    18  H    5.558251   4.401261   3.523441   2.151001   1.091457
    19  H    4.715237   3.865246   2.840039   2.169377   1.091424
    20  H    3.632422   2.843227   2.956155   2.872326   2.160805
    21  H    4.570444   3.419638   3.530758   2.789716   2.164609
    22  H    6.582558   5.561463   5.201981   4.189608   2.761717
    23  H    5.965613   5.227415   4.856681   4.283094   2.811405
    24  H    7.361898   6.602976   6.681139   6.055939   4.711761
    25  H    6.437497   5.565289   5.886219   5.268617   4.222400
    26  H    5.903766   5.571379   5.822417   5.798694   4.672738
    27  H    4.856403   4.453785   5.072478   5.142403   4.346911
    28  H    7.894738   7.492793   7.956368   7.753270   6.598852
    29  H    6.934346   6.791741   7.482136   7.614923   6.696632
    30  H    7.625070   7.003257   7.694622   7.341603   6.455485
    31  H    8.163449   7.807001   8.660519   8.564680   7.731332
    32  H    6.529495   6.145630   7.102858   7.096716   6.464348
                    6          7          8          9         10
     6  C    0.000000
     7  C    1.540736   0.000000
     8  C    2.586120   1.541597   0.000000
     9  C    3.189167   2.589458   1.542921   0.000000
    10  C    4.644550   3.966917   2.586856   1.540767   0.000000
    11  C    5.107004   4.640370   3.183723   2.581290   1.537052
    12  O    3.293351   4.743370   5.184281   5.111251   6.213420
    13  H    4.783518   6.086814   6.401687   5.807325   6.765451
    14  H    3.376702   4.615839   5.686164   5.622413   7.066431
    15  H    4.288523   5.730322   6.789140   6.868158   8.261598
    16  H    2.850760   4.247508   5.297408   5.882761   7.240656
    17  H    3.502264   4.698134   6.039608   6.614852   8.100018
    18  H    2.153927   2.741713   4.178806   5.140423   6.584361
    19  H    2.165311   2.820410   4.272551   4.777042   6.314750
    20  H    1.089543   2.160494   2.838902   2.868698   4.330008
    21  H    1.091752   2.166027   2.788194   3.495313   4.764515
    22  H    2.158437   1.091286   2.151587   3.505125   4.725309
    23  H    2.168200   1.091437   2.166478   2.818823   4.217788
    24  H    3.502869   2.152944   1.091270   2.160171   2.758818
    25  H    2.808992   2.160906   1.091089   2.172376   2.869991
    26  H    3.452494   2.762217   2.160514   1.091312   2.153034
    27  H    2.904696   2.874820   2.173254   1.091049   2.159447
    28  H    5.190677   4.219311   2.817541   2.168594   1.091381
    29  H    5.267279   4.731734   3.506660   2.155833   1.091326
    30  H    4.949246   4.386535   2.924036   2.890475   2.188610
    31  H    6.193951   5.674349   4.180837   3.520958   2.178931
    32  H    4.938893   4.810476   3.536149   2.826261   2.184535
                   11         12         13         14         15
    11  C    0.000000
    12  O    6.184776   0.000000
    13  H    6.928967   2.250612   0.000000
    14  H    7.693645   3.210477   3.439375   0.000000
    15  H    8.634687   3.013938   3.483269   1.749562   0.000000
    16  H    7.375390   2.660828   4.546520   3.085045   2.635166
    17  H    8.506773   3.918102   5.264490   2.639422   2.328438
    18  H    7.045640   4.462656   6.127674   3.732796   4.261172
    19  H    7.064407   4.337468   5.410487   2.543003   3.679030
    20  H    4.888432   2.877103   3.941932   2.929999   4.041804
    21  H    4.887832   2.919817   4.767632   3.949729   4.484886
    22  H    5.256554   5.351037   6.921386   5.230737   6.176434
    23  H    5.184960   5.315631   6.364782   4.543893   5.891980
    24  H    3.447564   6.266520   7.468139   6.590026   7.752125
    25  H    2.897186   4.978277   6.425340   6.050945   6.917152
    26  H    3.498608   5.549178   5.994189   5.453223   6.895445
    27  H    2.802392   4.170999   4.760674   4.980583   6.119248
    28  H    2.162920   7.138600   7.769620   7.768143   9.035417
    29  H    2.151113   6.507160   6.692336   7.257102   8.513717
    30  H    1.090231   6.269776   7.341521   7.855734   8.705195
    31  H    1.090444   7.151946   7.759649   8.714724   9.662956
    32  H    1.090721   5.436429   6.096289   7.254929   8.061496
                   16         17         18         19         20
    16  H    0.000000
    17  H    1.730317   0.000000
    18  H    2.496604   2.384724   0.000000
    19  H    3.071574   2.486076   1.738832   0.000000
    20  H    3.241243   3.860079   3.050693   2.489044   0.000000
    21  H    2.602621   3.745898   2.538727   3.062709   1.744222
    22  H    4.367876   4.761340   2.486212   3.112920   3.054158
    23  H    4.800955   4.903212   3.068319   2.625330   2.501391
    24  H    6.199741   6.829493   4.770086   4.925206   3.841022
    25  H    5.156961   6.166167   4.360386   4.777007   3.170580
    26  H    6.204269   6.668779   5.251709   4.576953   3.030885
    27  H    5.312912   6.159736   5.028611   4.595189   2.315964
    28  H    7.907744   8.669140   6.943535   6.725458   5.020588
    29  H    7.802558   8.604856   7.283311   6.795247   4.753222
    30  H    7.141907   8.324669   6.698015   6.973019   4.963927
    31  H    8.445717   9.593489   8.124333   8.127157   5.948289
    32  H    6.925556   8.160525   6.963491   6.953773   4.599293
                   21         22         23         24         25
    21  H    0.000000
    22  H    2.531199   0.000000
    23  H    3.065975   1.740383   0.000000
    24  H    3.748150   2.404419   2.503225   0.000000
    25  H    2.568707   2.494424   3.060663   1.740299   0.000000
    26  H    4.042066   3.729113   2.549505   2.545659   3.062269
    27  H    3.101675   3.870811   3.218171   3.062549   2.500077
    28  H    5.381444   4.827315   4.356348   2.546869   3.212825
    29  H    5.465728   5.595007   4.833737   3.728412   3.868741
    30  H    4.606003   4.798476   5.074648   3.077392   2.366431
    31  H    5.971178   6.259603   6.163622   4.280947   3.913142
    32  H    4.609498   5.504751   5.425488   4.076288   3.139521
                   26         27         28         29         30
    26  H    0.000000
    27  H    1.740770   0.000000
    28  H    2.508010   3.061530   0.000000
    29  H    2.411080   2.498473   1.739679   0.000000
    30  H    3.889994   3.219254   2.517084   3.069313   0.000000
    31  H    4.311893   3.782470   2.512522   2.462905   1.756335
    32  H    3.782624   2.607760   3.076939   2.535583   1.762569
                   31         32
    31  H    0.000000
    32  H    1.759780   0.000000
 Stoichiometry    C10H20O2
 Framework group  C1[X(C10H20O2)]
 Deg. of freedom    90
 Full point group                 C1      NOp   1
 Largest Abelian subgroup         C1      NOp   1
 Largest concise Abelian subgroup C1      NOp   1
                         Standard orientation:                         
 ---------------------------------------------------------------------
 Center     Atomic      Atomic             Coordinates (Angstroms)
 Number     Number       Type             X           Y           Z
 ---------------------------------------------------------------------
      1          8           0        2.840406   -2.278580   -0.798570
      2          6           0        2.595040   -1.283257    0.079280
      3          6           0        3.191667    0.044727   -0.389260
      4          6           0        2.770692    1.301209    0.419704
      5          6           0        1.460083    1.975003   -0.043465
      6          6           0        0.186679    1.137863    0.179418
      7          6           0       -1.102351    1.904444   -0.173597
      8          6           0       -2.398689    1.123098    0.118857
      9          6           0       -2.584332   -0.139922   -0.747701
     10          6           0       -3.955560   -0.821747   -0.577962
     11          6           0       -4.191003   -1.412709    0.821273
     12          8           0        1.986111   -1.452770    1.126430
     13          1           0        2.431069   -3.046663   -0.398947
     14          1           0        2.984738    0.180829   -1.450634
     15          1           0        4.268584   -0.089381   -0.293185
     16          1           0        2.718394    1.079546    1.488561
     17          1           0        3.566917    2.042198    0.327826
     18          1           0        1.355634    2.919537    0.493399
     19          1           0        1.540486    2.244021   -1.098155
     20          1           0        0.241585    0.231208   -0.422302
     21          1           0        0.143691    0.810427    1.220024
     22          1           0       -1.127163    2.837050    0.392561
     23          1           0       -1.081347    2.196522   -1.225017
     24          1           0       -3.248036    1.789807   -0.039195
     25          1           0       -2.424245    0.855803    1.176389
     26          1           0       -2.457157    0.127978   -1.797948
     27          1           0       -1.797082   -0.862594   -0.527771
     28          1           0       -4.751730   -0.113840   -0.814804
     29          1           0       -4.043496   -1.622205   -1.314527
     30          1           0       -4.213313   -0.637563    1.587598
     31          1           0       -5.144449   -1.940009    0.865567
     32          1           0       -3.408572   -2.124123    1.088416
 ---------------------------------------------------------------------
 Rotational constants (GHZ):           1.1405167           0.3792833           0.3111178
 Standard basis: 6-31G(d,p) (6D, 7F)
 There are   280 symmetry adapted cartesian basis functions of A   symmetry.
 There are   280 symmetry adapted basis functions of A   symmetry.
   280 basis functions,   476 primitive gaussians,   280 cartesian basis functions
    48 alpha electrons       48 beta electrons
       nuclear repulsion energy       719.0572960911 Hartrees.
 NAtoms=   32 NActive=   32 NUniq=   32 SFac= 1.00D+00 NAtFMM=   60 NAOKFM=F Big=F
 Integral buffers will be    131072 words long.
 Raffenetti 2 integral format.
 Two-electron integral symmetry is turned on.
 Nuclear repulsion after empirical dispersion term =      719.0094500864 Hartrees.
 One-electron integrals computed using PRISM.
 NBasis=   280 RedAO= T EigKep=  3.04D-03  NBF=   280
 NBsUse=   280 1.00D-06 EigRej= -1.00D+00 NBFU=   280
 ExpMin= 1.61D-01 ExpMax= 5.48D+03 ExpMxC= 8.25D+02 IAcc=3 IRadAn=         5 AccDes= 0.00D+00
 Harris functional with IExCor=  402 and IRadAn=       5 diagonalized for initial guess.
 HarFok:  IExCor=  402 AccDes= 0.00D+00 IRadAn=         5 IDoV= 1 UseB2=F ITyADJ=14
 ICtDFT=  3500011 ScaDFX=  1.000000  1.000000  1.000000  1.000000
 FoFCou: FMM=F IPFlag=           0 FMFlag=      100000 FMFlg1=           0
         NFxFlg=           0 DoJE=T BraDBF=F KetDBF=T FulRan=T
         wScrn=  0.000000 ICntrl=       500 IOpCl=  0 I1Cent=   200000004 NGrid=           0
         NMat0=    1 NMatS0=      1 NMatT0=    0 NMatD0=    1 NMtDS0=    0 NMtDT0=    0
 Petite list used in FoFCou.
 Requested convergence on RMS density matrix=1.00D-08 within 128 cycles.
 Requested convergence on MAX density matrix=1.00D-06.
 Requested convergence on             energy=1.00D-06.
 No special actions if energy rises.
 Integral accuracy reduced to 1.0D-05 until final iterations.
 Initial convergence to 1.0D-05 achieved.  Increase integral accuracy.
 SCF Done:  E(RB3LYP) =  -543.664846605     A.U. after   13 cycles
            NFock= 13  Conv=0.83D-08     -V/T= 2.0096

 **********************************************************************

            Population analysis using the SCF Density.

 **********************************************************************

 Orbital symmetries:
       Occupied  (A) (A) (A) (A) (A) (A) (A) (A) (A) (A) (A) (A)
                 (A) (A) (A) (A) (A) (A) (A) (A) (A) (A) (A) (A)
                 (A) (A) (A) (A) (A) (A) (A) (A) (A) (A) (A) (A)
                 (A) (A) (A) (A) (A) (A) (A) (A) (A) (A) (A) (A)
       Virtual   (A) (A) (A) (A) (A) (A) (A) (A) (A) (A) (A) (A)
                 (A) (A) (A) (A) (A) (A) (A) (A) (A) (A) (A) (A)
                 (A) (A) (A) (A) (A) (A) (A) (A) (A) (A) (A) (A)
                 (A) (A) (A) (A) (A) (A) (A) (A) (A) (A) (A) (A)
                 (A) (A) (A) (A) (A) (A) (A) (A) (A) (A) (A) (A)
                 (A) (A) (A) (A) (A) (A) (A) (A) (A) (A) (A) (A)
                 (A) (A) (A) (A) (A) (A) (A) (A) (A) (A) (A) (A)
                 (A) (A) (A) (A) (A) (A) (A) (A) (A) (A) (A) (A)
                 (A) (A) (A) (A) (A) (A) (A) (A) (A) (A) (A) (A)
                 (A) (A) (A) (A) (A) (A) (A) (A) (A) (A) (A) (A)
                 (A) (A) (A) (A) (A) (A) (A) (A) (A) (A) (A) (A)
                 (A) (A) (A) (A) (A) (A) (A) (A) (A) (A) (A) (A)
                 (A) (A) (A) (A) (A) (A) (A) (A) (A) (A) (A) (A)
                 (A) (A) (A) (A) (A) (A) (A) (A) (A) (A) (A) (A)
                 (A) (A) (A) (A) (A) (A) (A) (A) (A) (A) (A) (A)
                 (A) (A) (A) (A) (A) (A) (A) (A) (A) (A) (A) (A)
                 (A) (A) (A) (A) (A) (A) (A) (A) (A) (A) (A) (A)
                 (A) (A) (A) (A) (A) (A) (A) (A) (A) (A) (A) (A)
                 (A) (A) (A) (A) (A) (A) (A) (A) (A) (A) (A) (A)
                 (A) (A) (A) (A)
 The electronic state is 1-A.
 Alpha  occ. eigenvalues --  -19.19974 -19.13889 -10.32231 -10.20183 -10.18527
 Alpha  occ. eigenvalues --  -10.17682 -10.17316 -10.17088 -10.17025 -10.17005
 Alpha  occ. eigenvalues --  -10.16844 -10.16560  -1.10916  -1.01181  -0.80735
 Alpha  occ. eigenvalues --   -0.79139  -0.76225  -0.72605  -0.68424  -0.64849
 Alpha  occ. eigenvalues --   -0.61022  -0.58506  -0.56371  -0.55238  -0.49292
 Alpha  occ. eigenvalues --   -0.48287  -0.47814  -0.45987  -0.44572  -0.43697
 Alpha  occ. eigenvalues --   -0.42644  -0.41266  -0.40823  -0.39853  -0.38459
 Alpha  occ. eigenvalues --   -0.37569  -0.36846  -0.36580  -0.34481  -0.34036
 Alpha  occ. eigenvalues --   -0.32846  -0.32423  -0.31963  -0.31812  -0.30935
 Alpha  occ. eigenvalues --   -0.30086  -0.29704  -0.27323
 Alpha virt. eigenvalues --    0.00939   0.07984   0.09004   0.09745   0.11621
 Alpha virt. eigenvalues --    0.11973   0.12741   0.13848   0.14564   0.15431
 Alpha virt. eigenvalues --    0.16430   0.16730   0.17386   0.17669   0.18495
 Alpha virt. eigenvalues --    0.18627   0.19036   0.20241   0.20529   0.21375
 Alpha virt. eigenvalues --    0.22154   0.23504   0.23808   0.24687   0.25311
 Alpha virt. eigenvalues --    0.25782   0.26458   0.28137   0.29037   0.30019
 Alpha virt. eigenvalues --    0.30979   0.36634   0.48778   0.50174   0.50771
 Alpha virt. eigenvalues --    0.52265   0.53033   0.53591   0.53912   0.55261
 Alpha virt. eigenvalues --    0.56485   0.57529   0.59035   0.61024   0.63213
 Alpha virt. eigenvalues --    0.64110   0.64902   0.65280   0.66334   0.67184
 Alpha virt. eigenvalues --    0.69244   0.69471   0.70023   0.72181   0.74377
 Alpha virt. eigenvalues --    0.75795   0.78283   0.79401   0.80398   0.81722
 Alpha virt. eigenvalues --    0.83617   0.83943   0.85488   0.86475   0.87206
 Alpha virt. eigenvalues --    0.87469   0.88790   0.88900   0.89302   0.90360
 Alpha virt. eigenvalues --    0.90759   0.91383   0.92354   0.93009   0.93939
 Alpha virt. eigenvalues --    0.94726   0.94843   0.95687   0.96056   0.97203
 Alpha virt. eigenvalues --    0.97872   0.98659   1.00493   1.02199   1.06155
 Alpha virt. eigenvalues --    1.07837   1.09274   1.12968   1.14167   1.15387
 Alpha virt. eigenvalues --    1.19808   1.28159   1.29591   1.31785   1.34828
 Alpha virt. eigenvalues --    1.36235   1.38301   1.40239   1.45457   1.48668
 Alpha virt. eigenvalues --    1.49308   1.54333   1.55677   1.56039   1.57956
 Alpha virt. eigenvalues --    1.59616   1.61113   1.63923   1.65418   1.67072
 Alpha virt. eigenvalues --    1.70428   1.71281   1.72271   1.73103   1.74727
 Alpha virt. eigenvalues --    1.76131   1.79317   1.80280   1.81461   1.83220
 Alpha virt. eigenvalues --    1.85220   1.85896   1.87192   1.88893   1.89228
 Alpha virt. eigenvalues --    1.89910   1.90880   1.92278   1.94583   1.95250
 Alpha virt. eigenvalues --    1.96334   2.01972   2.03536   2.06316   2.09147
 Alpha virt. eigenvalues --    2.09967   2.12194   2.12295   2.13396   2.14939
 Alpha virt. eigenvalues --    2.15371   2.17160   2.17498   2.18857   2.21399
 Alpha virt. eigenvalues --    2.22520   2.23667   2.24906   2.25441   2.26793
 Alpha virt. eigenvalues --    2.27368   2.28379   2.29508   2.31618   2.32837
 Alpha virt. eigenvalues --    2.33496   2.34830   2.36539   2.39025   2.39793
 Alpha virt. eigenvalues --    2.42061   2.45129   2.47719   2.48854   2.49597
 Alpha virt. eigenvalues --    2.50863   2.55539   2.56247   2.57428   2.59651
 Alpha virt. eigenvalues --    2.61191   2.61507   2.63855   2.64522   2.67338
 Alpha virt. eigenvalues --    2.69834   2.70908   2.71484   2.74759   2.75563
 Alpha virt. eigenvalues --    2.76136   2.77556   2.81287   2.82105   2.83646
 Alpha virt. eigenvalues --    2.84894   2.85355   2.86074   2.88567   2.89455
 Alpha virt. eigenvalues --    2.90695   2.91522   2.92101   2.92350   2.92817
 Alpha virt. eigenvalues --    2.93352   2.94885   2.97988   3.01832   3.14925
 Alpha virt. eigenvalues --    3.20638   3.24777   3.28176   3.30374   3.32258
 Alpha virt. eigenvalues --    3.32892   3.34473   3.35273   3.39003   3.40154
 Alpha virt. eigenvalues --    3.43021   3.43739   3.45850   3.47338   3.49026
 Alpha virt. eigenvalues --    3.52838   3.55859   3.57947   3.60106   3.61792
 Alpha virt. eigenvalues --    3.93601   4.15393   4.25683   4.28342   4.33534
 Alpha virt. eigenvalues --    4.43485   4.50633   4.59841   4.63008   4.67307
 Alpha virt. eigenvalues --    4.70749   4.78400
          Condensed to atoms (all electrons):
               1          2          3          4          5          6
     1  O    8.114216   0.256330  -0.093643   0.002420  -0.000006  -0.000059
     2  C    0.256330   4.383896   0.325358  -0.030844  -0.002392   0.002013
     3  C   -0.093643   0.325358   5.129569   0.342311  -0.035164  -0.004934
     4  C    0.002420  -0.030844   0.342311   4.929150   0.368975  -0.040195
     5  C   -0.000006  -0.002392  -0.035164   0.368975   4.898748   0.374898
     6  C   -0.000059   0.002013  -0.004934  -0.040195   0.374898   4.896269
     7  C    0.000000   0.000016  -0.000085   0.003990  -0.033213   0.368882
     8  C   -0.000000   0.000004   0.000003  -0.000134   0.003557  -0.038624
     9  C    0.000000  -0.000009  -0.000002   0.000002   0.000151  -0.005134
    10  C    0.000000  -0.000000   0.000000  -0.000000  -0.000002   0.000192
    11  C    0.000000  -0.000000   0.000000  -0.000000   0.000000  -0.000024
    12  O   -0.080853   0.560148  -0.083331   0.001494  -0.001465   0.001224
    13  H    0.267895  -0.009597   0.011147  -0.000302   0.000007  -0.000013
    14  H    0.003147  -0.025020   0.365611  -0.037276  -0.005291  -0.000152
    15  H    0.001684  -0.027552   0.367689  -0.028104   0.003128   0.000121
    16  H    0.000186  -0.006215  -0.038809   0.383982  -0.032633  -0.006586
    17  H   -0.000049   0.004540  -0.032052   0.367341  -0.033170   0.004830
    18  H    0.000000  -0.000047   0.004803  -0.034620   0.380819  -0.040254
    19  H   -0.000002  -0.000222  -0.007536  -0.038792   0.380069  -0.040762
    20  H   -0.000181   0.002059   0.004058  -0.004326  -0.037482   0.383879
    21  H    0.000016   0.000531  -0.001182  -0.003489  -0.038524   0.389482
    22  H   -0.000000  -0.000001   0.000005   0.000007  -0.005331  -0.040270
    23  H   -0.000000  -0.000001  -0.000006   0.000020  -0.003552  -0.038815
    24  H    0.000000  -0.000000  -0.000000   0.000002  -0.000138   0.004566
    25  H   -0.000000  -0.000000   0.000000  -0.000001   0.000056  -0.007351
    26  H   -0.000000  -0.000001   0.000000   0.000000  -0.000029  -0.001038
    27  H   -0.000002   0.000034  -0.000002   0.000009  -0.000090   0.002189
    28  H    0.000000   0.000000  -0.000000   0.000000   0.000000   0.000003
    29  H    0.000000  -0.000000  -0.000000   0.000000  -0.000000   0.000002
    30  H    0.000000  -0.000000  -0.000000   0.000000  -0.000000   0.000005
    31  H    0.000000   0.000000   0.000000  -0.000000  -0.000000   0.000000
    32  H   -0.000000   0.000000  -0.000000   0.000000   0.000000  -0.000001
               7          8          9         10         11         12
     1  O    0.000000  -0.000000   0.000000   0.000000   0.000000  -0.080853
     2  C    0.000016   0.000004  -0.000009  -0.000000  -0.000000   0.560148
     3  C   -0.000085   0.000003  -0.000002   0.000000   0.000000  -0.083331
     4  C    0.003990  -0.000134   0.000002  -0.000000  -0.000000   0.001494
     5  C   -0.033213   0.003557   0.000151  -0.000002   0.000000  -0.001465
     6  C    0.368882  -0.038624  -0.005134   0.000192  -0.000024   0.001224
     7  C    4.923308   0.366525  -0.037714   0.003656   0.000152   0.000123
     8  C    0.366525   4.906481   0.383655  -0.039501  -0.004639  -0.000001
     9  C   -0.037714   0.383655   4.895569   0.377149  -0.046020  -0.000007
    10  C    0.003656  -0.039501   0.377149   4.874467   0.376253  -0.000000
    11  C    0.000152  -0.004639  -0.046020   0.376253   4.914553   0.000000
    12  O    0.000123  -0.000001  -0.000007  -0.000000   0.000000   8.052289
    13  H   -0.000000   0.000000  -0.000000  -0.000000  -0.000000   0.011592
    14  H   -0.000052   0.000000   0.000001  -0.000000   0.000000   0.001966
    15  H    0.000001  -0.000000  -0.000000   0.000000   0.000000   0.000480
    16  H    0.000059  -0.000001   0.000000  -0.000000   0.000000   0.007591
    17  H   -0.000130   0.000002   0.000000  -0.000000   0.000000   0.000260
    18  H   -0.005643   0.000039   0.000004   0.000000   0.000000  -0.000027
    19  H   -0.003609   0.000040  -0.000018  -0.000000  -0.000000  -0.000018
    20  H   -0.039692  -0.004165   0.002859  -0.000104   0.000009   0.000013
    21  H   -0.040700  -0.003107  -0.000887  -0.000023  -0.000001   0.002223
    22  H    0.375772  -0.032530   0.004631  -0.000150   0.000004  -0.000001
    23  H    0.377441  -0.038175  -0.007584   0.000009   0.000003  -0.000001
    24  H   -0.031647   0.375603  -0.042396  -0.004141  -0.000819   0.000000
    25  H   -0.037041   0.382966  -0.039159  -0.003927   0.002607  -0.000001
    26  H   -0.003844  -0.042280   0.378030  -0.033869   0.005130   0.000000
    27  H   -0.003662  -0.039472   0.382920  -0.037303  -0.007137   0.000039
    28  H    0.000015  -0.007473  -0.038369   0.384541  -0.040079   0.000000
    29  H   -0.000149   0.004641  -0.032672   0.380330  -0.039779  -0.000000
    30  H   -0.000094   0.002807  -0.004920  -0.034985   0.388892   0.000000
    31  H   -0.000001   0.000116   0.004391  -0.028316   0.380303  -0.000000
    32  H   -0.000022  -0.000723  -0.004602  -0.035693   0.387505  -0.000000
              13         14         15         16         17         18
     1  O    0.267895   0.003147   0.001684   0.000186  -0.000049   0.000000
     2  C   -0.009597  -0.025020  -0.027552  -0.006215   0.004540  -0.000047
     3  C    0.011147   0.365611   0.367689  -0.038809  -0.032052   0.004803
     4  C   -0.000302  -0.037276  -0.028104   0.383982   0.367341  -0.034620
     5  C    0.000007  -0.005291   0.003128  -0.032633  -0.033170   0.380819
     6  C   -0.000013  -0.000152   0.000121  -0.006586   0.004830  -0.040254
     7  C   -0.000000  -0.000052   0.000001   0.000059  -0.000130  -0.005643
     8  C    0.000000   0.000000  -0.000000  -0.000001   0.000002   0.000039
     9  C   -0.000000   0.000001  -0.000000   0.000000   0.000000   0.000004
    10  C   -0.000000  -0.000000   0.000000  -0.000000  -0.000000   0.000000
    11  C   -0.000000   0.000000   0.000000   0.000000   0.000000   0.000000
    12  O    0.011592   0.001966   0.000480   0.007591   0.000260  -0.000027
    13  H    0.401204  -0.000383  -0.000417  -0.000019   0.000004  -0.000000
    14  H   -0.000383   0.583168  -0.026598   0.004847  -0.000074   0.000057
    15  H   -0.000417  -0.026598   0.578948   0.000469  -0.007280  -0.000166
    16  H   -0.000019   0.004847   0.000469   0.600100  -0.038272  -0.003289
    17  H    0.000004  -0.000074  -0.007280  -0.038272   0.652092  -0.004598
    18  H   -0.000000   0.000057  -0.000166  -0.003289  -0.004598   0.644787
    19  H    0.000000   0.005403   0.000014   0.005585  -0.003765  -0.039889
    20  H    0.000007   0.000184   0.000015  -0.000340  -0.000037   0.006045
    21  H   -0.000002   0.000095  -0.000014   0.004657   0.000036  -0.004817
    22  H   -0.000000   0.000001   0.000000   0.000004  -0.000005   0.006300
    23  H    0.000000   0.000003  -0.000000   0.000005   0.000004  -0.000497
    24  H   -0.000000  -0.000000  -0.000000   0.000000  -0.000000  -0.000008
    25  H    0.000000  -0.000000  -0.000000  -0.000001   0.000000   0.000004
    26  H   -0.000000  -0.000000  -0.000000  -0.000000  -0.000000   0.000001
    27  H    0.000002  -0.000002  -0.000000   0.000000  -0.000000  -0.000001
    28  H    0.000000   0.000000  -0.000000   0.000000   0.000000  -0.000000
    29  H   -0.000000  -0.000000   0.000000   0.000000  -0.000000   0.000000
    30  H   -0.000000   0.000000   0.000000   0.000000  -0.000000   0.000000
    31  H   -0.000000  -0.000000   0.000000  -0.000000   0.000000   0.000000
    32  H    0.000000   0.000000  -0.000000  -0.000000  -0.000000  -0.000000
              19         20         21         22         23         24
     1  O   -0.000002  -0.000181   0.000016  -0.000000  -0.000000   0.000000
     2  C   -0.000222   0.002059   0.000531  -0.000001  -0.000001  -0.000000
     3  C   -0.007536   0.004058  -0.001182   0.000005  -0.000006  -0.000000
     4  C   -0.038792  -0.004326  -0.003489   0.000007   0.000020   0.000002
     5  C    0.380069  -0.037482  -0.038524  -0.005331  -0.003552  -0.000138
     6  C   -0.040762   0.383879   0.389482  -0.040270  -0.038815   0.004566
     7  C   -0.003609  -0.039692  -0.040700   0.375772   0.377441  -0.031647
     8  C    0.000040  -0.004165  -0.003107  -0.032530  -0.038175   0.375603
     9  C   -0.000018   0.002859  -0.000887   0.004631  -0.007584  -0.042396
    10  C   -0.000000  -0.000104  -0.000023  -0.000150   0.000009  -0.004141
    11  C   -0.000000   0.000009  -0.000001   0.000004   0.000003  -0.000819
    12  O   -0.000018   0.000013   0.002223  -0.000001  -0.000001   0.000000
    13  H    0.000000   0.000007  -0.000002  -0.000000   0.000000  -0.000000
    14  H    0.005403   0.000184   0.000095   0.000001   0.000003  -0.000000
    15  H    0.000014   0.000015  -0.000014   0.000000  -0.000000  -0.000000
    16  H    0.005585  -0.000340   0.004657   0.000004   0.000005   0.000000
    17  H   -0.003765  -0.000037   0.000036  -0.000005   0.000004  -0.000000
    18  H   -0.039889   0.006045  -0.004817   0.006300  -0.000497  -0.000008
    19  H    0.653562  -0.006579   0.005950  -0.000500   0.004642   0.000005
    20  H   -0.006579   0.641604  -0.040565   0.006180  -0.006143  -0.000030
    21  H    0.005950  -0.040565   0.617080  -0.005288   0.005926   0.000053
    22  H   -0.000500   0.006180  -0.005288   0.655342  -0.041088  -0.004479
    23  H    0.004642  -0.006143   0.005926  -0.041088   0.654264  -0.003217
    24  H    0.000005  -0.000030   0.000053  -0.004479  -0.003217   0.655862
    25  H    0.000008  -0.000178   0.005408  -0.003124   0.006082  -0.041145
    26  H    0.000000   0.000656   0.000090   0.000066   0.005992  -0.004815
    27  H    0.000011   0.001816   0.000523  -0.000065  -0.000173   0.006163
    28  H    0.000000  -0.000001   0.000001  -0.000009   0.000002   0.006026
    29  H    0.000000   0.000007  -0.000000   0.000003  -0.000008   0.000061
    30  H   -0.000000   0.000002  -0.000004   0.000007  -0.000001   0.000524
    31  H    0.000000  -0.000000   0.000000  -0.000000   0.000000  -0.000030
    32  H    0.000000  -0.000005   0.000006  -0.000000   0.000000   0.000094
              25         26         27         28         29         30
     1  O   -0.000000  -0.000000  -0.000002   0.000000   0.000000   0.000000
     2  C   -0.000000  -0.000001   0.000034   0.000000  -0.000000  -0.000000
     3  C    0.000000   0.000000  -0.000002  -0.000000  -0.000000  -0.000000
     4  C   -0.000001   0.000000   0.000009   0.000000   0.000000   0.000000
     5  C    0.000056  -0.000029  -0.000090   0.000000  -0.000000  -0.000000
     6  C   -0.007351  -0.001038   0.002189   0.000003   0.000002   0.000005
     7  C   -0.037041  -0.003844  -0.003662   0.000015  -0.000149  -0.000094
     8  C    0.382966  -0.042280  -0.039472  -0.007473   0.004641   0.002807
     9  C   -0.039159   0.378030   0.382920  -0.038369  -0.032672  -0.004920
    10  C   -0.003927  -0.033869  -0.037303   0.384541   0.380330  -0.034985
    11  C    0.002607   0.005130  -0.007137  -0.040079  -0.039779   0.388892
    12  O   -0.000001   0.000000   0.000039   0.000000  -0.000000   0.000000
    13  H    0.000000  -0.000000   0.000002   0.000000  -0.000000  -0.000000
    14  H   -0.000000  -0.000000  -0.000002   0.000000  -0.000000   0.000000
    15  H   -0.000000  -0.000000  -0.000000  -0.000000   0.000000   0.000000
    16  H   -0.000001  -0.000000   0.000000   0.000000   0.000000   0.000000
    17  H    0.000000  -0.000000  -0.000000   0.000000  -0.000000  -0.000000
    18  H    0.000004   0.000001  -0.000001  -0.000000   0.000000   0.000000
    19  H    0.000008   0.000000   0.000011   0.000000   0.000000  -0.000000
    20  H   -0.000178   0.000656   0.001816  -0.000001   0.000007   0.000002
    21  H    0.005408   0.000090   0.000523   0.000001  -0.000000  -0.000004
    22  H   -0.003124   0.000066  -0.000065  -0.000009   0.000003   0.000007
    23  H    0.006082   0.005992  -0.000173   0.000002  -0.000008  -0.000001
    24  H   -0.041145  -0.004815   0.006163   0.006026   0.000061   0.000524
    25  H    0.638501   0.006153  -0.006421  -0.000232  -0.000052   0.001587
    26  H    0.006153   0.655202  -0.041166  -0.003279  -0.004399  -0.000019
    27  H   -0.006421  -0.041166   0.638141   0.006029  -0.003191  -0.000149
    28  H   -0.000232  -0.003279   0.006029   0.644944  -0.040345  -0.005206
    29  H   -0.000052  -0.004399  -0.003191  -0.040345   0.650792   0.005545
    30  H    0.001587  -0.000019  -0.000149  -0.005206   0.005545   0.606004
    31  H   -0.000101  -0.000186   0.000011  -0.002641  -0.004140  -0.032298
    32  H    0.000390   0.000034   0.005397   0.005525  -0.004425  -0.033667
              31         32
     1  O    0.000000  -0.000000
     2  C    0.000000   0.000000
     3  C    0.000000  -0.000000
     4  C   -0.000000   0.000000
     5  C   -0.000000   0.000000
     6  C    0.000000  -0.000001
     7  C   -0.000001  -0.000022
     8  C    0.000116  -0.000723
     9  C    0.004391  -0.004602
    10  C   -0.028316  -0.035693
    11  C    0.380303   0.387505
    12  O   -0.000000  -0.000000
    13  H   -0.000000   0.000000
    14  H   -0.000000   0.000000
    15  H    0.000000  -0.000000
    16  H   -0.000000  -0.000000
    17  H    0.000000  -0.000000
    18  H    0.000000  -0.000000
    19  H    0.000000   0.000000
    20  H   -0.000000  -0.000005
    21  H    0.000000   0.000006
    22  H   -0.000000  -0.000000
    23  H    0.000000   0.000000
    24  H   -0.000030   0.000094
    25  H   -0.000101   0.000390
    26  H   -0.000186   0.000034
    27  H    0.000011   0.005397
    28  H   -0.002641   0.005525
    29  H   -0.004140  -0.004425
    30  H   -0.032298  -0.033667
    31  H    0.617865  -0.032625
    32  H   -0.032625   0.609154
 Mulliken charges:
               1
     1  O   -0.471102
     2  C    0.566970
     3  C   -0.253808
     4  C   -0.181620
     5  C   -0.181926
     6  C   -0.164341
     7  C   -0.182642
     8  C   -0.175615
     9  C   -0.169868
    10  C   -0.178582
    11  C   -0.316912
    12  O   -0.473735
    13  H    0.318873
    14  H    0.130366
    15  H    0.137581
    16  H    0.118679
    17  H    0.090325
    18  H    0.090999
    19  H    0.086404
    20  H    0.090432
    21  H    0.106527
    22  H    0.084520
    23  H    0.084868
    24  H    0.083907
    25  H    0.094972
    26  H    0.083570
    27  H    0.095552
    28  H    0.090546
    29  H    0.087779
    30  H    0.105970
    31  H    0.097653
    32  H    0.103658
 Sum of Mulliken charges =  -0.00000
 Mulliken charges with hydrogens summed into heavy atoms:
               1
     1  O   -0.152229
     2  C    0.566970
     3  C    0.014140
     4  C    0.027384
     5  C   -0.004524
     6  C    0.032618
     7  C   -0.013254
     8  C    0.003264
     9  C    0.009254
    10  C   -0.000257
    11  C   -0.009631
    12  O   -0.473735
 Electronic spatial extent (au):  <R**2>=           3664.2547
 Charge=              0.0000 electrons
 Dipole moment (field-independent basis, Debye):
    X=              0.7627    Y=              0.0696    Z=             -1.1411  Tot=              1.3743
 Quadrupole moment (field-independent basis, Debye-Ang):
   XX=            -72.8740   YY=            -71.7013   ZZ=            -79.5319
   XY=              0.3491   XZ=             -1.0572   YZ=              1.7426
 Traceless Quadrupole moment (field-independent basis, Debye-Ang):
   XX=              1.8284   YY=              3.0011   ZZ=             -4.8295
   XY=              0.3491   XZ=             -1.0572   YZ=              1.7426
 Octapole moment (field-independent basis, Debye-Ang**2):
  XXX=             40.6228  YYY=            -42.0002  ZZZ=             -1.2894  XYY=             16.8727
  XXY=             -1.4815  XXZ=              1.6145  XZZ=              0.8041  YZZ=              2.5017
  YYZ=             -0.9873  XYZ=             -0.8083
 Hexadecapole moment (field-independent basis, Debye-Ang**3):
 XXXX=          -3449.4928 YYYY=           -952.5379 ZZZZ=           -295.8400 XXXY=            -27.9300
 XXXZ=             17.9844 YYYX=            -92.3427 YYYZ=             14.0517 ZZZX=             -3.0702
 ZZZY=              4.4000 XXYY=           -747.6526 XXZZ=           -657.9441 YYZZ=           -236.5481
 XXYZ=             -8.2697 YYXZ=              4.6422 ZZXY=              0.9698
 N-N= 7.190094500864D+02 E-N=-2.701502452698D+03  KE= 5.384699458857D+02
 Calling FoFJK, ICntrl=      2127 FMM=F ISym2X=0 I1Cent= 0 IOpClX= 0 NMat=1 NMatS=1 NMatT=0.
 ***** Axes restored to original set *****
 -------------------------------------------------------------------
 Center     Atomic                   Forces (Hartrees/Bohr)
 Number     Number              X              Y              Z
 -------------------------------------------------------------------
      1        8          -0.007341575   -0.001859981    0.007625850
      2        6          -0.007145348   -0.023442239    0.001531651
      3        6           0.005084746   -0.012715592   -0.004212032
      4        6          -0.003812191    0.004153801   -0.004001803
      5        6           0.009770453   -0.000125434   -0.005429061
      6        6          -0.007890602   -0.000804224    0.003015711
      7        6           0.008382968    0.000309306   -0.002767525
      8        6           0.000029063    0.008188458    0.002667705
      9        6          -0.001793867   -0.007681725   -0.002848453
     10        6           0.006709106   -0.001335291    0.004130581
     11        6          -0.005212501    0.001595899    0.000490951
     12        8          -0.005779691    0.016280387    0.006895533
     13        1           0.011138277    0.003431738   -0.011595516
     14        1          -0.001302857    0.003281997   -0.000861606
     15        1           0.001087896    0.003859050    0.004570549
     16        1           0.003086054    0.002026638   -0.004149762
     17        1          -0.001139418    0.002787571    0.003325318
     18        1          -0.000683407   -0.003914099    0.001602957
     19        1          -0.002931998    0.004031383    0.000533894
     20        1           0.001853043    0.003344749   -0.001705815
     21        1           0.002649475   -0.001524263   -0.000293654
     22        1          -0.000592758   -0.003933034    0.002379719
     23        1          -0.003242585    0.003814868    0.000106680
     24        1          -0.003909751   -0.001085673   -0.002486098
     25        1           0.003677036   -0.001789697    0.000129747
     26        1          -0.004091083    0.002198529    0.001474635
     27        1           0.004026071    0.000781811    0.001101992
     28        1          -0.003669395   -0.002611008   -0.000339736
     29        1           0.000500473    0.003819937   -0.001163494
     30        1           0.000094721   -0.002410484    0.001438152
     31        1           0.000072230   -0.000149946   -0.002958896
     32        1           0.002377415    0.001476568    0.001791827
 -------------------------------------------------------------------
 Cartesian Forces:  Max     0.023442239 RMS     0.005067032

 GradGradGradGradGradGradGradGradGradGradGradGradGradGradGradGradGradGrad
 Berny optimization.
 FormGI is forming the generalized inverse of G from B-inverse, IUseBI=4.
 Internal  Forces:  Max     0.018173963 RMS     0.003054625
 Search for a local minimum.
 Step number   1 out of a maximum of  179
 All quantities printed in internal units (Hartrees-Bohrs-Radians)
 Mixed Optimization -- RFO/linear search
 Second derivative matrix not updated -- first step.
 ITU=  0
     Eigenvalues ---    0.00230   0.00230   0.00230   0.00230   0.00230
     Eigenvalues ---    0.00230   0.00235   0.00276   0.00377   0.00855
     Eigenvalues ---    0.02358   0.03094   0.03187   0.03256   0.03263
     Eigenvalues ---    0.03269   0.03285   0.03393   0.03585   0.04673
     Eigenvalues ---    0.04677   0.04688   0.04691   0.04691   0.04708
     Eigenvalues ---    0.04724   0.05203   0.05358   0.05452   0.08317
     Eigenvalues ---    0.08528   0.08534   0.08536   0.08551   0.08676
     Eigenvalues ---    0.08771   0.09869   0.12207   0.12360   0.12365
     Eigenvalues ---    0.12366   0.12377   0.12467   0.12554   0.13166
     Eigenvalues ---    0.16000   0.16000   0.16000   0.16000   0.21896
     Eigenvalues ---    0.21900   0.21904   0.21908   0.21909   0.21911
     Eigenvalues ---    0.21922   0.22013   0.24997   0.25000   0.27436
     Eigenvalues ---    0.28103   0.28262   0.28378   0.28451   0.28454
     Eigenvalues ---    0.28506   0.28782   0.29480   0.34485   0.34611
     Eigenvalues ---    0.34634   0.34645   0.34647   0.34649   0.34653
     Eigenvalues ---    0.34660   0.34661   0.34664   0.34666   0.34687
     Eigenvalues ---    0.34692   0.34729   0.34761   0.34786   0.34825
     Eigenvalues ---    0.34865   0.34873   0.55101   0.55969   0.94009
 RFO step:  Lambda=-5.72106025D-03 EMin= 2.30000000D-03
 Linear search not attempted -- first point.
 Iteration  1 RMS(Cart)=  0.11082760 RMS(Int)=  0.00194154
 Iteration  2 RMS(Cart)=  0.00383266 RMS(Int)=  0.00020617
 Iteration  3 RMS(Cart)=  0.00000511 RMS(Int)=  0.00020614
 Iteration  4 RMS(Cart)=  0.00000000 RMS(Int)=  0.00020614
 Variable       Old X    -DE/DX   Delta X   Delta X   Delta X     New X
                                 (Linear)    (Quad)   (Total)
    R1        2.55043   0.00301   0.00000   0.00541   0.00541   2.55584
    R2        1.80981   0.01595   0.00000   0.02821   0.02821   1.83801
    R3        2.89013  -0.00989   0.00000  -0.03291  -0.03291   2.85722
    R4        2.31138  -0.01817   0.00000  -0.01922  -0.01922   2.29217
    R5        2.93388  -0.01243   0.00000  -0.04438  -0.04438   2.88950
    R6        2.05959   0.00319   0.00000   0.00902   0.00902   2.06861
    R7        2.05882   0.00545   0.00000   0.01538   0.01538   2.07420
    R8        2.91913  -0.00592   0.00000  -0.02065  -0.02065   2.89848
    R9        2.06519   0.00135   0.00000   0.00385   0.00385   2.06904
   R10        2.06273   0.00332   0.00000   0.00943   0.00943   2.07216
   R11        2.91045  -0.00428   0.00000  -0.01472  -0.01472   2.89573
   R12        2.06255   0.00422   0.00000   0.01197   0.01197   2.07452
   R13        2.06249   0.00488   0.00000   0.01386   0.01386   2.07635
   R14        2.91157  -0.00465   0.00000  -0.01602  -0.01602   2.89554
   R15        2.05894   0.00409   0.00000   0.01155   0.01155   2.07048
   R16        2.06311   0.00304   0.00000   0.00865   0.00865   2.07176
   R17        2.91320  -0.00369   0.00000  -0.01275  -0.01275   2.90045
   R18        2.06223   0.00455   0.00000   0.01292   0.01292   2.07515
   R19        2.06252   0.00489   0.00000   0.01389   0.01389   2.07640
   R20        2.91570  -0.00541   0.00000  -0.01876  -0.01876   2.89694
   R21        2.06220   0.00459   0.00000   0.01303   0.01303   2.07523
   R22        2.06186   0.00394   0.00000   0.01116   0.01116   2.07302
   R23        2.91163  -0.00335   0.00000  -0.01155  -0.01155   2.90008
   R24        2.06228   0.00471   0.00000   0.01336   0.01336   2.07564
   R25        2.06178   0.00409   0.00000   0.01160   0.01160   2.07338
   R26        2.90461  -0.00258   0.00000  -0.00880  -0.00880   2.89581
   R27        2.06241   0.00429   0.00000   0.01219   0.01219   2.07460
   R28        2.06231   0.00396   0.00000   0.01125   0.01125   2.07356
   R29        2.06024   0.00275   0.00000   0.00777   0.00777   2.06801
   R30        2.06064   0.00296   0.00000   0.00838   0.00838   2.06902
   R31        2.06116   0.00321   0.00000   0.00908   0.00908   2.07025
    A1        1.81558   0.00715   0.00000   0.04316   0.04316   1.85874
    A2        1.94999   0.00047   0.00000   0.00158   0.00126   1.95125
    A3        2.14737  -0.00474   0.00000  -0.01882  -0.01912   2.12825
    A4        2.18564   0.00426   0.00000   0.01640   0.01606   2.20170
    A5        2.02341  -0.00863   0.00000  -0.03925  -0.03941   1.98400
    A6        1.90997   0.00122   0.00000  -0.01459  -0.01500   1.89496
    A7        1.82524   0.00336   0.00000   0.02777   0.02825   1.85350
    A8        1.93358   0.00342   0.00000   0.00752   0.00668   1.94026
    A9        1.89832   0.00322   0.00000   0.03090   0.03115   1.92947
   A10        1.86390  -0.00222   0.00000  -0.00857  -0.00864   1.85525
   A11        2.01178  -0.00266   0.00000  -0.02062  -0.02125   1.99053
   A12        1.93739  -0.00203   0.00000  -0.03979  -0.04051   1.89688
   A13        1.88361   0.00000   0.00000   0.00604   0.00643   1.89004
   A14        1.91891   0.00153   0.00000  -0.00517  -0.00673   1.91218
   A15        1.87292   0.00222   0.00000   0.03161   0.03164   1.90456
   A16        1.82856   0.00146   0.00000   0.03691   0.03694   1.86550
   A17        2.00536  -0.00117   0.00000  -0.00762  -0.00771   1.99765
   A18        1.88723   0.00021   0.00000   0.00477   0.00480   1.89204
   A19        1.91214  -0.00009   0.00000  -0.00898  -0.00911   1.90303
   A20        1.89660   0.00086   0.00000   0.01104   0.01107   1.90767
   A21        1.91212   0.00002   0.00000  -0.00693  -0.00707   1.90504
   A22        1.84322   0.00030   0.00000   0.00964   0.00968   1.85290
   A23        1.96941  -0.00100   0.00000  -0.00366  -0.00365   1.96576
   A24        1.90786   0.00049   0.00000   0.00356   0.00356   1.91143
   A25        1.91082   0.00005   0.00000  -0.00172  -0.00171   1.90911
   A26        1.90673   0.00037   0.00000   0.00338   0.00338   1.91011
   A27        1.91205   0.00059   0.00000   0.00320   0.00320   1.91524
   A28        1.85335  -0.00047   0.00000  -0.00483  -0.00483   1.84852
   A29        1.99094  -0.00080   0.00000  -0.00557  -0.00561   1.98533
   A30        1.90218  -0.00015   0.00000   0.00046   0.00048   1.90266
   A31        1.91534  -0.00003   0.00000  -0.00633  -0.00639   1.90895
   A32        1.89189   0.00086   0.00000   0.00986   0.00987   1.90176
   A33        1.91195  -0.00008   0.00000  -0.00523  -0.00530   1.90664
   A34        1.84577   0.00029   0.00000   0.00813   0.00814   1.85391
   A35        1.99273  -0.00077   0.00000  -0.00575  -0.00578   1.98695
   A36        1.89374   0.00096   0.00000   0.00953   0.00953   1.90327
   A37        1.90470  -0.00017   0.00000  -0.00491  -0.00497   1.89973
   A38        1.90194  -0.00043   0.00000  -0.00292  -0.00290   1.89904
   A39        1.91878   0.00011   0.00000  -0.00440  -0.00446   1.91433
   A40        1.84608   0.00040   0.00000   0.00990   0.00991   1.85598
   A41        1.99046  -0.00041   0.00000  -0.00399  -0.00401   1.98645
   A42        1.90237  -0.00056   0.00000  -0.00382  -0.00380   1.89857
   A43        1.92003  -0.00011   0.00000  -0.00576  -0.00580   1.91423
   A44        1.89480   0.00087   0.00000   0.00940   0.00940   1.90420
   A45        1.90375  -0.00017   0.00000  -0.00412  -0.00417   1.89958
   A46        1.84679   0.00045   0.00000   0.00955   0.00955   1.85634
   A47        1.98969  -0.00022   0.00000  -0.00305  -0.00309   1.98660
   A48        1.91590  -0.00056   0.00000  -0.01015  -0.01020   1.90570
   A49        1.89857  -0.00011   0.00000   0.00143   0.00144   1.90001
   A50        1.91261   0.00004   0.00000  -0.00374  -0.00382   1.90879
   A51        1.89659   0.00045   0.00000   0.00765   0.00766   1.90425
   A52        1.84472   0.00046   0.00000   0.00909   0.00910   1.85382
   A53        1.94943   0.00009   0.00000   0.00006   0.00004   1.94947
   A54        1.93567   0.00025   0.00000   0.00353   0.00353   1.93920
   A55        1.94320  -0.00109   0.00000  -0.00815  -0.00815   1.93504
   A56        1.87273   0.00016   0.00000   0.00385   0.00384   1.87657
   A57        1.88206   0.00010   0.00000  -0.00317  -0.00319   1.87887
   A58        1.87746   0.00055   0.00000   0.00429   0.00430   1.88175
    D1        3.13406  -0.00081   0.00000  -0.04078  -0.04037   3.09369
    D2        0.01205  -0.00026   0.00000   0.00411   0.00370   0.01574
    D3        2.97016  -0.00067   0.00000  -0.01735  -0.01688   2.95327
    D4        0.76828   0.00044   0.00000   0.01604   0.01584   0.78411
    D5       -1.22314   0.00077   0.00000   0.01838   0.01849  -1.20465
    D6       -0.19153  -0.00136   0.00000  -0.06389  -0.06368  -0.25521
    D7       -2.39341  -0.00025   0.00000  -0.03051  -0.03096  -2.42437
    D8        1.89836   0.00008   0.00000  -0.02816  -0.02830   1.87006
    D9       -1.51292   0.00233   0.00000   0.07894   0.07847  -1.43445
   D10        0.68310   0.00053   0.00000   0.02086   0.02121   0.70430
   D11        2.67764   0.00121   0.00000   0.04736   0.04718   2.72482
   D12        0.67697  -0.00003   0.00000   0.03347   0.03307   0.71004
   D13        2.87300  -0.00183   0.00000  -0.02460  -0.02420   2.84880
   D14       -1.41565  -0.00115   0.00000   0.00189   0.00178  -1.41387
   D15        2.72054   0.00117   0.00000   0.04593   0.04571   2.76625
   D16       -1.36662  -0.00063   0.00000  -0.01214  -0.01156  -1.37818
   D17        0.62792   0.00005   0.00000   0.01435   0.01441   0.64233
   D18        1.17004  -0.00188   0.00000  -0.07339  -0.07328   1.09676
   D19       -2.99164  -0.00139   0.00000  -0.06069  -0.06061  -3.05225
   D20       -0.99094  -0.00097   0.00000  -0.05140  -0.05136  -1.04230
   D21       -1.03545   0.00170   0.00000   0.00175   0.00184  -1.03361
   D22        1.08605   0.00219   0.00000   0.01445   0.01451   1.10057
   D23        3.08675   0.00261   0.00000   0.02373   0.02376   3.11052
   D24       -3.01465  -0.00196   0.00000  -0.05578  -0.05589  -3.07055
   D25       -0.89315  -0.00147   0.00000  -0.04309  -0.04322  -0.93637
   D26        1.10755  -0.00105   0.00000  -0.03380  -0.03397   1.07358
   D27        3.04613   0.00045   0.00000   0.02195   0.02193   3.06806
   D28       -1.11165   0.00060   0.00000   0.02634   0.02632  -1.08533
   D29        0.91179   0.00034   0.00000   0.02159   0.02156   0.93336
   D30        0.92974   0.00033   0.00000   0.01268   0.01268   0.94242
   D31        3.05514   0.00047   0.00000   0.01707   0.01707   3.07221
   D32       -1.20460   0.00021   0.00000   0.01232   0.01231  -1.19229
   D33       -1.07606  -0.00051   0.00000  -0.00112  -0.00109  -1.07715
   D34        1.04935  -0.00037   0.00000   0.00327   0.00329   1.05264
   D35        3.07279  -0.00062   0.00000  -0.00148  -0.00146   3.07133
   D36       -3.08082  -0.00028   0.00000  -0.01001  -0.00999  -3.09081
   D37       -0.96403   0.00017   0.00000  -0.00074  -0.00074  -0.96477
   D38        1.04964   0.00042   0.00000   0.00576   0.00575   1.05539
   D39        1.07632  -0.00049   0.00000  -0.01450  -0.01448   1.06184
   D40       -3.09008  -0.00004   0.00000  -0.00523  -0.00523  -3.09531
   D41       -1.07641   0.00021   0.00000   0.00127   0.00126  -1.07515
   D42       -0.94717  -0.00047   0.00000  -0.01241  -0.01240  -0.95956
   D43        1.16962  -0.00002   0.00000  -0.00314  -0.00314   1.16647
   D44       -3.09989   0.00023   0.00000   0.00336   0.00334  -3.09655
   D45       -1.14378   0.00034   0.00000   0.02373   0.02370  -1.12008
   D46        3.01468   0.00071   0.00000   0.02434   0.02433   3.03901
   D47        1.01101  -0.00019   0.00000   0.01011   0.01010   1.02111
   D48        3.01693   0.00045   0.00000   0.01965   0.01964   3.03657
   D49        0.89220   0.00082   0.00000   0.02026   0.02027   0.91247
   D50       -1.11147  -0.00008   0.00000   0.00603   0.00604  -1.10543
   D51        1.01079  -0.00033   0.00000   0.00740   0.00739   1.01818
   D52       -1.11394   0.00004   0.00000   0.00801   0.00803  -1.10592
   D53       -3.11761  -0.00086   0.00000  -0.00623  -0.00621  -3.12382
   D54       -3.01725  -0.00075   0.00000  -0.01905  -0.01904  -3.03628
   D55       -0.89690  -0.00032   0.00000  -0.01245  -0.01244  -0.90934
   D56        1.12071  -0.00016   0.00000  -0.00635  -0.00636   1.11435
   D57       -0.89704  -0.00036   0.00000  -0.01282  -0.01281  -0.90985
   D58        1.22330   0.00007   0.00000  -0.00622  -0.00621   1.21709
   D59       -3.04227   0.00024   0.00000  -0.00012  -0.00013  -3.04240
   D60        1.11877  -0.00006   0.00000  -0.00504  -0.00504   1.11373
   D61       -3.04407   0.00037   0.00000   0.00157   0.00156  -3.04251
   D62       -1.02646   0.00054   0.00000   0.00766   0.00764  -1.01882
   D63       -1.14598   0.00044   0.00000   0.02113   0.02110  -1.12488
   D64        1.00714  -0.00010   0.00000   0.00619   0.00621   1.01335
   D65        3.01785   0.00008   0.00000   0.01231   0.01230   3.03015
   D66        3.01268   0.00080   0.00000   0.02182   0.02181   3.03449
   D67       -1.11738   0.00026   0.00000   0.00688   0.00691  -1.11047
   D68        0.89332   0.00044   0.00000   0.01300   0.01300   0.90632
   D69        1.00810  -0.00012   0.00000   0.00765   0.00763   1.01573
   D70       -3.12197  -0.00066   0.00000  -0.00729  -0.00726  -3.12923
   D71       -1.11126  -0.00048   0.00000  -0.00117  -0.00117  -1.11243
   D72        1.12063  -0.00066   0.00000  -0.01642  -0.01641   1.10422
   D73       -3.07444  -0.00023   0.00000  -0.00912  -0.00911  -3.08355
   D74       -0.98450  -0.00009   0.00000  -0.00676  -0.00676  -0.99126
   D75       -1.03427   0.00020   0.00000   0.00197   0.00197  -1.03230
   D76        1.05384   0.00063   0.00000   0.00926   0.00927   1.06310
   D77       -3.13940   0.00077   0.00000   0.01163   0.01161  -3.12779
   D78       -3.04210  -0.00062   0.00000  -0.01105  -0.01104  -3.05315
   D79       -0.95399  -0.00018   0.00000  -0.00375  -0.00375  -0.95774
   D80        1.13596  -0.00004   0.00000  -0.00139  -0.00140   1.13455
         Item               Value     Threshold  Converged?
 Maximum Force            0.018174     0.000450     NO 
 RMS     Force            0.003055     0.000300     NO 
 Maximum Displacement     0.563447     0.001800     NO 
 RMS     Displacement     0.111031     0.001200     NO 
 Predicted change in Energy=-3.040113D-03
 GradGradGradGradGradGradGradGradGradGradGradGradGradGradGradGradGradGrad

                          Input orientation:                          
 ---------------------------------------------------------------------
 Center     Atomic      Atomic             Coordinates (Angstroms)
 Number     Number       Type             X           Y           Z
 ---------------------------------------------------------------------
      1          8           0        5.049397    0.312684   -1.149888
      2          6           0        4.815837   -0.955065   -0.740621
      3          6           0        3.903597   -0.996972    0.464422
      4          6           0        3.400679   -2.400148    0.805280
      5          6           0        2.194228   -2.851180   -0.027562
      6          6           0        2.467319   -2.962444   -1.531272
      7          6           0        1.267705   -3.513467   -2.309159
      8          6           0        1.536952   -3.702159   -3.808382
      9          6           0        1.816950   -2.394107   -4.557164
     10          6           0        1.941037   -2.564598   -6.077264
     11          6           0        3.135389   -3.422407   -6.508456
     12          8           0        5.353669   -1.907812   -1.264349
     13          1           0        5.673594    0.252348   -1.893363
     14          1           0        3.069614   -0.308579    0.294503
     15          1           0        4.480966   -0.581036    1.300131
     16          1           0        4.223840   -3.109707    0.672202
     17          1           0        3.131336   -2.420475    1.868029
     18          1           0        1.854699   -3.823508    0.352496
     19          1           0        1.363328   -2.151344    0.137078
     20          1           0        2.738019   -1.977662   -1.927984
     21          1           0        3.341363   -3.603440   -1.695904
     22          1           0        0.972585   -4.478168   -1.875425
     23          1           0        0.408129   -2.841842   -2.177331
     24          1           0        0.670456   -4.195201   -4.268880
     25          1           0        2.384264   -4.387728   -3.932719
     26          1           0        1.008969   -1.682445   -4.340037
     27          1           0        2.739767   -1.939956   -4.175100
     28          1           0        1.015238   -3.007151   -6.467489
     29          1           0        2.025379   -1.573117   -6.539727
     30          1           0        3.048282   -4.450184   -6.142846
     31          1           0        3.215794   -3.466392   -7.599493
     32          1           0        4.072820   -3.009838   -6.119625
 ---------------------------------------------------------------------
                    Distance matrix (angstroms):
                    1          2          3          4          5
     1  O    0.000000
     2  C    1.352493   0.000000
     3  C    2.373616   1.511974   0.000000
     4  C    3.728325   2.545731   1.529056   0.000000
     5  C    4.406999   3.313086   2.569450   1.533812   0.000000
     6  C    4.187964   3.189081   3.147819   2.578141   1.532352
     7  C    5.503139   4.647039   4.579675   3.935580   2.550051
     8  C    5.960187   5.263912   5.583538   5.143403   3.930749
     9  C    5.420790   5.062624   5.614482   5.591426   4.568211
[...]
 Alpha virt. eigenvalues --    4.09751   4.11655   4.12702   4.16670   4.19394
 Alpha virt. eigenvalues --    4.20955   4.23076   4.28591   4.31487   4.34383
 Alpha virt. eigenvalues --    4.35350   4.38282   4.39734   4.43692   4.44625
 Alpha virt. eigenvalues --    4.47111   4.48204   4.50895   4.54050   4.56454
 Alpha virt. eigenvalues --    4.56673   4.57908   4.62479   4.63518   4.65489
 Alpha virt. eigenvalues --    4.66611   4.67473   4.69436   4.71159   4.75360
 Alpha virt. eigenvalues --    4.76947   4.79573   4.81317   4.84367   4.89177
 Alpha virt. eigenvalues --    4.90221   5.06927   5.15919   5.16957   5.20962
 Alpha virt. eigenvalues --    5.22829   5.38724   5.40189   5.51023   5.59390
 Alpha virt. eigenvalues --    5.74907   5.85618   5.87857   6.13909   6.20277
 Alpha virt. eigenvalues --    6.33347   6.33721   6.45335   6.48982   6.64084
 Alpha virt. eigenvalues --    6.70320   6.74542   6.83000   6.88039   7.07417
 Alpha virt. eigenvalues --    7.08520   7.26240  22.42280  22.49856  22.53479
 Alpha virt. eigenvalues --   22.56504  22.56851  22.60122  22.62269  22.63854
 Alpha virt. eigenvalues --   22.67600  23.29517  44.00562  44.08327
          Condensed to atoms (all electrons):
               1          2          3          4          5          6
     1  O    7.948551   0.356073  -0.113079   0.005528   0.003910  -0.012602
     2  C    0.356073   4.537143   0.240931  -0.013882  -0.002669   0.008837
     3  C   -0.113079   0.240931   5.388895   0.180014  -0.039642   0.018147
     4  C    0.005528  -0.013882   0.180014   5.175725   0.251298  -0.051297
     5  C    0.003910  -0.002669  -0.039642   0.251298   5.217209   0.183464
     6  C   -0.012602   0.008837   0.018147  -0.051297   0.183464   5.442701
     7  C   -0.000512  -0.000161  -0.001860   0.012006  -0.036335   0.188347
     8  C    0.000342  -0.000324   0.000337  -0.001352   0.008696  -0.054372
     9  C   -0.001473   0.000140  -0.000150   0.000238  -0.000018   0.018223
    10  C    0.000031   0.000020   0.000009  -0.000010   0.000007   0.000284
    11  C    0.000006   0.000005  -0.000002   0.000000  -0.000002  -0.000153
    12  O   -0.090258   0.655836  -0.094483   0.006164  -0.000260   0.001695
    13  H    0.289107  -0.027585   0.019441  -0.001269  -0.000090   0.000499
    14  H    0.005833  -0.031675   0.402078  -0.046467   0.009518  -0.007729
    15  H    0.001751  -0.023366   0.399963  -0.029799   0.005176   0.000157
    16  H    0.000702  -0.005053  -0.046569   0.432793  -0.035965  -0.008233
    17  H   -0.000138   0.004888  -0.041669   0.437421  -0.056673   0.012387
    18  H    0.000002   0.000071   0.009713  -0.050293   0.436893  -0.043683
    19  H   -0.000160   0.000884  -0.012083  -0.032440   0.443124  -0.067047
    20  H    0.007130  -0.010854   0.010298  -0.016541  -0.039755   0.417833
    21  H    0.000174   0.001201  -0.005831   0.007498  -0.043303   0.413694
    22  H    0.000000  -0.000044   0.000010  -0.000179  -0.006568  -0.049390
    23  H    0.000008   0.000110  -0.000009  -0.000149  -0.002707  -0.063212
    24  H    0.000001  -0.000002  -0.000006   0.000032  -0.000291   0.011936
    25  H   -0.000021   0.000073   0.000024  -0.000022  -0.000187  -0.011511
    26  H   -0.000014   0.000026   0.000017   0.000004  -0.000116  -0.003928
    27  H    0.002901   0.000007  -0.000196  -0.000023   0.001298   0.002171
    28  H   -0.000000  -0.000000  -0.000000  -0.000000   0.000006  -0.000028
    29  H    0.000001   0.000001  -0.000001   0.000001  -0.000004   0.000134
    30  H   -0.000000   0.000000  -0.000000   0.000001  -0.000002   0.000171
    31  H    0.000000  -0.000000   0.000000  -0.000000  -0.000000  -0.000008
    32  H   -0.000010   0.000011   0.000002  -0.000001   0.000007   0.000001
               7          8          9         10         11         12
     1  O   -0.000512   0.000342  -0.001473   0.000031   0.000006  -0.090258
     2  C   -0.000161  -0.000324   0.000140   0.000020   0.000005   0.655836
     3  C   -0.001860   0.000337  -0.000150   0.000009  -0.000002  -0.094483
     4  C    0.012006  -0.001352   0.000238  -0.000010   0.000000   0.006164
     5  C   -0.036335   0.008696  -0.000018   0.000007  -0.000002  -0.000260
     6  C    0.188347  -0.054372   0.018223   0.000284  -0.000153   0.001695
     7  C    5.177308   0.256284  -0.046014   0.006699   0.000668   0.000627
     8  C    0.256284   5.259704   0.187289  -0.042056   0.014265  -0.000343
     9  C   -0.046014   0.187289   5.298254   0.254756  -0.059126   0.000338
    10  C    0.006699  -0.042056   0.254756   5.101376   0.256257  -0.000003
    11  C    0.000668   0.014265  -0.059126   0.256257   5.087816  -0.000008
    12  O    0.000627  -0.000343   0.000338  -0.000003  -0.000008   7.839158
    13  H   -0.000007  -0.000027   0.000017   0.000002  -0.000005   0.006109
    14  H    0.000002   0.000040   0.000004  -0.000001   0.000000   0.004285
    15  H    0.000037  -0.000006   0.000002  -0.000000   0.000000   0.000138
    16  H   -0.000489  -0.000006   0.000022   0.000000   0.000000   0.006586
    17  H   -0.000562   0.000036  -0.000001   0.000000  -0.000000   0.000445
    18  H   -0.006205   0.000300  -0.000112   0.000003   0.000000   0.000031
    19  H   -0.003276  -0.000507   0.000198  -0.000009  -0.000000  -0.000151
    20  H   -0.038821  -0.005450  -0.002048   0.000750   0.000136  -0.006786
    21  H   -0.039844   0.004832  -0.003390  -0.000172  -0.000020   0.001615
    22  H    0.443668  -0.047868   0.009314  -0.000473   0.000084  -0.000013
    23  H    0.444607  -0.038484  -0.011035  -0.000355  -0.000056  -0.000010
    24  H   -0.049319   0.426484  -0.045051   0.002224  -0.002557  -0.000000
    25  H   -0.028420   0.433340  -0.057335  -0.006035   0.000309   0.000020
    26  H    0.005782  -0.049791   0.418471  -0.039050   0.009548   0.000001
    27  H   -0.009737  -0.062075   0.426717  -0.029217  -0.011268  -0.000264
    28  H   -0.000458  -0.014054  -0.042299   0.436234  -0.054815   0.000000
    29  H   -0.000756   0.012326  -0.060885   0.437599  -0.039484  -0.000000
    30  H    0.000505   0.007320  -0.013641  -0.040028   0.419273  -0.000000
    31  H    0.000042  -0.000321   0.011258  -0.042685   0.413891   0.000000
    32  H   -0.000193  -0.005878   0.007447  -0.047875   0.405407   0.000016
              13         14         15         16         17         18
     1  O    0.289107   0.005833   0.001751   0.000702  -0.000138   0.000002
     2  C   -0.027585  -0.031675  -0.023366  -0.005053   0.004888   0.000071
     3  C    0.019441   0.402078   0.399963  -0.046569  -0.041669   0.009713
     4  C   -0.001269  -0.046467  -0.029799   0.432793   0.437421  -0.050293
     5  C   -0.000090   0.009518   0.005176  -0.035965  -0.056673   0.436893
     6  C    0.000499  -0.007729   0.000157  -0.008233   0.012387  -0.043683
     7  C   -0.000007   0.000002   0.000037  -0.000489  -0.000562  -0.006205
     8  C   -0.000027   0.000040  -0.000006  -0.000006   0.000036   0.000300
     9  C    0.000017   0.000004   0.000002   0.000022  -0.000001  -0.000112
    10  C    0.000002  -0.000001  -0.000000   0.000000   0.000000   0.000003
    11  C   -0.000005   0.000000   0.000000   0.000000  -0.000000   0.000000
    12  O    0.006109   0.004285   0.000138   0.006586   0.000445   0.000031
    13  H    0.380236  -0.000859  -0.000572  -0.000042   0.000029  -0.000008
    14  H   -0.000859   0.499943  -0.015597   0.005540  -0.000668   0.000029
    15  H   -0.000572  -0.015597   0.500040  -0.000912  -0.006909  -0.000135
    16  H   -0.000042   0.005540  -0.000912   0.486822  -0.018407  -0.002727
    17  H    0.000029  -0.000668  -0.006909  -0.018407   0.534659  -0.006079
    18  H   -0.000008   0.000029  -0.000135  -0.002727  -0.006079   0.532596
    19  H    0.000026   0.002402  -0.000317   0.005060  -0.002930  -0.021342
    20  H   -0.001246   0.000761   0.000412   0.001844  -0.000799   0.005839
    21  H    0.000046   0.000271  -0.000125  -0.000264   0.000283  -0.002038
    22  H   -0.000001   0.000011   0.000003   0.000160  -0.000055   0.002225
    23  H    0.000000   0.000026  -0.000005  -0.000040   0.000018   0.000895
    24  H    0.000000  -0.000000  -0.000000  -0.000001  -0.000000  -0.000059
    25  H    0.000000  -0.000001   0.000000  -0.000009  -0.000001   0.000134
    26  H   -0.000004   0.000003   0.000000  -0.000000  -0.000001   0.000012
    27  H    0.000367   0.000011  -0.000001  -0.000010   0.000003  -0.000060
    28  H    0.000000   0.000000  -0.000000  -0.000000   0.000000  -0.000000
    29  H   -0.000000   0.000000   0.000000   0.000000  -0.000000  -0.000000
    30  H   -0.000000   0.000000  -0.000000   0.000000  -0.000000  -0.000000
    31  H   -0.000000  -0.000000  -0.000000  -0.000000   0.000000   0.000000
    32  H    0.000021  -0.000000  -0.000000  -0.000000   0.000000  -0.000000
              19         20         21         22         23         24
     1  O   -0.000160   0.007130   0.000174   0.000000   0.000008   0.000001
     2  C    0.000884  -0.010854   0.001201  -0.000044   0.000110  -0.000002
     3  C   -0.012083   0.010298  -0.005831   0.000010  -0.000009  -0.000006
     4  C   -0.032440  -0.016541   0.007498  -0.000179  -0.000149   0.000032
     5  C    0.443124  -0.039755  -0.043303  -0.006568  -0.002707  -0.000291
     6  C   -0.067047   0.417833   0.413694  -0.049390  -0.063212   0.011936
     7  C   -0.003276  -0.038821  -0.039844   0.443668   0.444607  -0.049319
     8  C   -0.000507  -0.005450   0.004832  -0.047868  -0.038484   0.426484
     9  C    0.000198  -0.002048  -0.003390   0.009314  -0.011035  -0.045051
    10  C   -0.000009   0.000750  -0.000172  -0.000473  -0.000355   0.002224
    11  C   -0.000000   0.000136  -0.000020   0.000084  -0.000056  -0.002557
    12  O   -0.000151  -0.006786   0.001615  -0.000013  -0.000010  -0.000000
    13  H    0.000026  -0.001246   0.000046  -0.000001   0.000000   0.000000
    14  H    0.002402   0.000761   0.000271   0.000011   0.000026  -0.000000
    15  H   -0.000317   0.000412  -0.000125   0.000003  -0.000005  -0.000000
    16  H    0.005060   0.001844  -0.000264   0.000160  -0.000040  -0.000001
    17  H   -0.002930  -0.000799   0.000283  -0.000055   0.000018  -0.000000
    18  H   -0.021342   0.005839  -0.002038   0.002225   0.000895  -0.000059
    19  H    0.530682  -0.002108   0.005676   0.000941   0.001242   0.000013
    20  H   -0.002108   0.552927  -0.026296   0.006077  -0.002340  -0.000622
    21  H    0.005676  -0.026296   0.506898  -0.003089   0.005876   0.000353
    22  H    0.000941   0.006077  -0.003089   0.536197  -0.022939  -0.007427
    23  H    0.001242  -0.002340   0.005876  -0.022939   0.534822  -0.002374
    24  H    0.000013  -0.000622   0.000353  -0.007427  -0.002374   0.536253
    25  H   -0.000035   0.001401   0.001145  -0.002403   0.006117  -0.022083
    26  H   -0.000011   0.000772   0.000159   0.000330   0.001498  -0.001161
    27  H   -0.000005  -0.008560   0.000947  -0.000775   0.001519   0.006182
    28  H   -0.000000  -0.000051   0.000005  -0.000034   0.000112   0.002371
    29  H    0.000000  -0.000053   0.000009   0.000013  -0.000004   0.000130
    30  H    0.000000  -0.000043   0.000030  -0.000015  -0.000016   0.000406
    31  H   -0.000000   0.000002   0.000001  -0.000002   0.000002  -0.000076
    32  H    0.000000  -0.000000   0.000020   0.000005   0.000002   0.000170
              25         26         27         28         29         30
     1  O   -0.000021  -0.000014   0.002901  -0.000000   0.000001  -0.000000
     2  C    0.000073   0.000026   0.000007  -0.000000   0.000001   0.000000
     3  C    0.000024   0.000017  -0.000196  -0.000000  -0.000001  -0.000000
     4  C   -0.000022   0.000004  -0.000023  -0.000000   0.000001   0.000001
     5  C   -0.000187  -0.000116   0.001298   0.000006  -0.000004  -0.000002
     6  C   -0.011511  -0.003928   0.002171  -0.000028   0.000134   0.000171
     7  C   -0.028420   0.005782  -0.009737  -0.000458  -0.000756   0.000505
     8  C    0.433340  -0.049791  -0.062075  -0.014054   0.012326   0.007320
     9  C   -0.057335   0.418471   0.426717  -0.042299  -0.060885  -0.013641
    10  C   -0.006035  -0.039050  -0.029217   0.436234   0.437599  -0.040028
    11  C    0.000309   0.009548  -0.011268  -0.054815  -0.039484   0.419273
    12  O    0.000020   0.000001  -0.000264   0.000000  -0.000000  -0.000000
    13  H    0.000000  -0.000004   0.000367   0.000000  -0.000000  -0.000000
    14  H   -0.000001   0.000003   0.000011   0.000000   0.000000   0.000000
    15  H    0.000000   0.000000  -0.000001  -0.000000   0.000000  -0.000000
    16  H   -0.000009  -0.000000  -0.000010  -0.000000   0.000000   0.000000
    17  H   -0.000001  -0.000001   0.000003   0.000000  -0.000000  -0.000000
    18  H    0.000134   0.000012  -0.000060  -0.000000  -0.000000  -0.000000
    19  H   -0.000035  -0.000011  -0.000005  -0.000000   0.000000   0.000000
    20  H    0.001401   0.000772  -0.008560  -0.000051  -0.000053  -0.000043
    21  H    0.001145   0.000159   0.000947   0.000005   0.000009   0.000030
    22  H   -0.002403   0.000330  -0.000775  -0.000034   0.000013  -0.000015
    23  H    0.006117   0.001498   0.001519   0.000112  -0.000004  -0.000016
    24  H   -0.022083  -0.001161   0.006182   0.002371   0.000130   0.000406
    25  H    0.531449   0.005905  -0.000645   0.001392  -0.000613  -0.007112
    26  H    0.005905   0.544587  -0.023724  -0.002974  -0.007567  -0.000628
    27  H   -0.000645  -0.023724   0.557638   0.007215  -0.003388   0.001231
    28  H    0.001392  -0.002974   0.007215   0.556576  -0.025127  -0.003436
    29  H   -0.000613  -0.007567  -0.003388  -0.025127   0.556249   0.006436
    30  H   -0.007112  -0.000628   0.001231  -0.003436   0.006436   0.540948
    31  H    0.000311  -0.000280  -0.000158  -0.003691  -0.005711  -0.024292
    32  H    0.000937   0.000155   0.001712   0.007668  -0.003579  -0.030240
              31         32
     1  O    0.000000  -0.000010
     2  C   -0.000000   0.000011
     3  C    0.000000   0.000002
     4  C   -0.000000  -0.000001
     5  C   -0.000000   0.000007
     6  C   -0.000008   0.000001
     7  C    0.000042  -0.000193
     8  C   -0.000321  -0.005878
     9  C    0.011258   0.007447
    10  C   -0.042685  -0.047875
    11  C    0.413891   0.405407
    12  O    0.000000   0.000016
    13  H   -0.000000   0.000021
    14  H   -0.000000  -0.000000
    15  H   -0.000000  -0.000000
    16  H   -0.000000  -0.000000
    17  H    0.000000   0.000000
    18  H    0.000000  -0.000000
    19  H   -0.000000   0.000000
    20  H    0.000002  -0.000000
    21  H    0.000001   0.000020
    22  H   -0.000002   0.000005
    23  H    0.000002   0.000002
    24  H   -0.000076   0.000170
    25  H    0.000311   0.000937
    26  H   -0.000280   0.000155
    27  H   -0.000158   0.001712
    28  H   -0.003691   0.007668
    29  H   -0.005711  -0.003579
    30  H   -0.024292  -0.030240
    31  H    0.533295  -0.023616
    32  H   -0.023616   0.551736
 Mulliken charges:
               1
     1  O   -0.403787
     2  C    0.309358
     3  C   -0.314297
     4  C   -0.265001
     5  C   -0.296021
     6  C   -0.347489
     7  C   -0.273615
     8  C   -0.288680
     9  C   -0.290110
    10  C   -0.248283
    11  C   -0.440168
    12  O   -0.330485
    13  H    0.335816
    14  H    0.172239
    15  H    0.170065
    16  H    0.179196
    17  H    0.144721
    18  H    0.143996
    19  H    0.152170
    20  H    0.156192
    21  H    0.173639
    22  H    0.142237
    23  H    0.146877
    24  H    0.144476
    25  H    0.153874
    26  H    0.141981
    27  H    0.140187
    28  H    0.135388
    29  H    0.134273
    30  H    0.143133
    31  H    0.142040
    32  H    0.136076
 Sum of Mulliken charges =  -0.00000
 Mulliken charges with hydrogens summed into heavy atoms:
               1
     1  O   -0.067971
     2  C    0.309358
     3  C    0.028006
     4  C    0.058916
     5  C    0.000145
     6  C   -0.017658
     7  C    0.015500
     8  C    0.009670
     9  C   -0.007941
    10  C    0.021378
    11  C   -0.018919
    12  O   -0.330485
 Electronic spatial extent (au):  <R**2>=           3378.3968
 Charge=              0.0000 electrons
 Dipole moment (field-independent basis, Debye):
    X=              0.1451    Y=              0.4792    Z=             -1.4248  Tot=              1.5103
 Quadrupole moment (field-independent basis, Debye-Ang):
   XX=            -74.3278   YY=            -74.5427   ZZ=            -82.2814
   XY=              2.6312   XZ=             -3.1685   YZ=              2.4429
 Traceless Quadrupole moment (field-independent basis, Debye-Ang):
   XX=              2.7229   YY=              2.5080   ZZ=             -5.2308
   XY=              2.6312   XZ=             -3.1685   YZ=              2.4429
 Octapole moment (field-independent basis, Debye-Ang**2):
  XXX=             38.6956  YYY=            -33.8341  ZZZ=             -2.9310  XYY=              4.2269
  XXY=              1.9615  XXZ=            -10.0135  XZZ=             -2.2995  YZZ=              6.2074
  YYZ=             -2.7701  XYZ=              3.3033
 Hexadecapole moment (field-independent basis, Debye-Ang**3):
 XXXX=          -3156.7165 YYYY=           -948.2488 ZZZZ=           -324.9862 XXXY=            -21.5355
 XXXZ=            -16.6618 YYYX=            -35.8818 YYYZ=             17.3531 ZZZX=             -2.2236
 ZZZY=              5.4980 XXYY=           -719.0816 XXZZ=           -623.7970 YYZZ=           -239.8332
 XXYZ=             10.6701 YYXZ=              0.5896 ZZXY=              8.2972
 N-N= 7.334952328219D+02 E-N=-2.731952007780D+03  KE= 5.405739779569D+02
 Unable to Open any file for archive entry.
 1\1\GINC-NOTCH075\SP\RM062X\def2TZVP\C10H20O2\U6032257\03-Feb-2022\0\\
 # M062X/def2tzvp int=(grid=ultrafine) nmr=giao guess=read geom=check\\
 Ac1.xyz\\0,1\O,0,4.6785467812,0.0142528112,-1.5758341493\C,0,4.8304678
 263,-1.0562585112,-0.7560920166\C,0,3.9140188916,-0.9924788659,0.44588
 46951\C,0,3.371607103,-2.371009856,0.8515508574\C,0,2.1858922243,-2.84
 8257864,0.001415254\C,0,2.4714123745,-2.9512843138,-1.5001314722\C,0,1
 .2923685172,-3.5210022195,-2.2946727876\C,0,1.5752130852,-3.684093526,
 -3.7941259356\C,0,1.8488389982,-2.3637110702,-4.5250095459\C,0,1.96992
 4603,-2.5053517412,-6.0484979742\C,0,3.1616367232,-3.3542025373,-6.501
 383295\O,0,5.6367415806,-1.9325601539,-0.9802586777\H,0,5.3254571601,-
 0.1057361074,-2.292052119\H,0,3.1084559428,-0.2778446688,0.2541792661\
 H,0,4.5201701548,-0.5773856586,1.2612144599\H,0,4.1943992938,-3.091273
 7226,0.7889281211\H,0,3.0615318519,-2.3297699137,1.9013249152\H,0,1.86
 31115759,-3.8289543751,0.3745492455\H,0,1.3353149389,-2.1694431977,0.1
 573436778\H,0,2.7178406279,-1.9579106626,-1.89186042\H,0,3.3609246881,
 -3.5732677642,-1.6639176115\H,0,1.0168984627,-4.4969758616,-1.87359301
 36\H,0,0.4157422918,-2.8716668221,-2.1585827938\H,0,0.7161271307,-4.17
 75621166,-4.2685222321\H,0,2.4272789553,-4.3636622182,-3.9223136389\H,
 0,1.0383350929,-1.6588262216,-4.2942914655\H,0,2.7689927381,-1.9071812
 071,-4.1375691017\H,0,1.0413326255,-2.9375576854,-6.4453674189\H,0,2.0
 536303497,-1.5049857716,-6.4913912514\H,0,3.0747548187,-4.390335373,-6
 .1604770593\H,0,3.2427576504,-3.3726688198,-7.5928132466\H,0,4.1014749
 416,-2.9541339846,-6.1035332657\\Version=ES64L-G16RevC.01\State=1-A\HF
 =-543.5425632\RMSD=2.643e-09\Dipole=-0.4525576,0.3668159,0.1169879\Qua
 drupole=-3.5125426,0.1245937,3.3879489,2.8191992,-1.9787925,0.4952884\
 PG=C01 [X(C10H20O2)]\\@
 The archive entry for this job was punched.


 I KNOW YOU BELIEVE YOU UNDERSTAND WHAT YOU THINK I SAID,
 BUT I AM NOT SURE YOU REALIZE THAT WHAT YOU HEARD IS NOT WHAT I MEANT.
 Job cpu time:       0 days  0 hours 39 minutes 59.0 seconds.
 Elapsed time:       0 days  0 hours  1 minutes 26.1 seconds.
 File lengths (MBytes):  RWF=    140 Int=      0 D2E=      0 Chk=     24 Scr=      1
 Normal termination of Gaussian 16 at Thu Feb  3 09:30:20 2022.
