 Entering Gaussian System, Link 0=/uufs/chpc.utah.edu/sys/installdir/gaussian16/C01/AVX2/g16/g16
 Input=Ac1_clust-12.com
 Output=Ac1_clust-12.log
 Initial command:
 /uufs/chpc.utah.edu/sys/installdir/gaussian16/C01/AVX2/g16/l1.exe "/scratch/general/lustre/u6032257/3857467/notchpeak.peaks/Gau-145236.inp" -scrdir="/scratch/general/lustre/u6032257/3857467/notchpeak.peaks/"
 Entering Link 1 = /uufs/chpc.utah.edu/sys/installdir/gaussian16/C01/AVX2/g16/l1.exe PID=    145238.
  
 Copyright (c) 1988-2019, Gaussian, Inc.  All Rights Reserved.
  
 This is part of the Gaussian(R) 16 program.  It is based on
 the Gaussian(R) 09 system (copyright 2009, Gaussian, Inc.),
 the Gaussian(R) 03 system (copyright 2003, Gaussian, Inc.),
 the Gaussian(R) 98 system (copyright 1998, Gaussian, Inc.),
 the Gaussian(R) 94 system (copyright 1995, Gaussian, Inc.),
 the Gaussian 92(TM) system (copyright 1992, Gaussian, Inc.),
 the Gaussian 90(TM) system (copyright 1990, Gaussian, Inc.),
 the Gaussian 88(TM) system (copyright 1988, Gaussian, Inc.),
 the Gaussian 86(TM) system (copyright 1986, Carnegie Mellon
 University), and the Gaussian 82(TM) system (copyright 1983,
 Carnegie Mellon University). Gaussian is a federally registered
 trademark of Gaussian, Inc.
  
 This software contains proprietary and confidential information,
 including trade secrets, belonging to Gaussian, Inc.
  
 This software is provided under written license and may be
 used, copied, transmitted, or stored only in accord with that
 written license.
  
 The following legend is applicable only to US Government
 contracts under FAR:
  
                    RESTRICTED RIGHTS LEGEND
  
 Use, reproduction and disclosure by the US Government is
 subject to restrictions as set forth in subparagraphs (a)
 and (c) of the Commercial Computer Software - Restricted
 Rights clause in FAR 52.227-19.
  
 Gaussian, Inc.
 340 Quinnipiac St., Bldg. 40, Wallingford CT 06492
  
  
 ---------------------------------------------------------------
 Warning -- This program may not be used in any manner that
 competes with the business of Gaussian, Inc. or will provide
 assistance to any competitor of Gaussian, Inc.  The licensee
 of this program is prohibited from giving any competitor of
 Gaussian, Inc. access to this program.  By using this program,
 the user acknowledges that Gaussian, Inc. is engaged in the
 business of creating and licensing software in the field of
 computational chemistry and represents and warrants to the
 licensee that it is not a competitor of Gaussian, Inc. and that
 it will not use this program in any manner prohibited above.
 ---------------------------------------------------------------
  

 Cite this work as:
 Gaussian 16, Revision C.01,
 M. J. Frisch, G. W. Trucks, H. B. Schlegel, G. E. Scuseria, 
 M. A. Robb, J. R. Cheeseman, G. Scalmani, V. Barone, 
 G. A. Petersson, H. Nakatsuji, X. Li, M. Caricato, A. V. Marenich, 
 J. Bloino, B. G. Janesko, R. Gomperts, B. Mennucci, H. P. Hratchian, 
 J. V. Ortiz, A. F. Izmaylov, J. L. Sonnenberg, D. Williams-Young, 
 F. Ding, F. Lipparini, F. Egidi, J. Goings, B. Peng, A. Petrone, 
 T. Henderson, D. Ranasinghe, V. G. Zakrzewski, J. Gao, N. Rega, 
 G. Zheng, W. Liang, M. Hada, M. Ehara, K. Toyota, R. Fukuda, 
 J. Hasegawa, M. Ishida, T. Nakajima, Y. Honda, O. Kitao, H. Nakai, 
 T. Vreven, K. Throssell, J. A. Montgomery, Jr., J. E. Peralta, 
 F. Ogliaro, M. J. Bearpark, J. J. Heyd, E. N. Brothers, K. N. Kudin, 
 V. N. Staroverov, T. A. Keith, R. Kobayashi, J. Normand, 
 K. Raghavachari, A. P. Rendell, J. C. Burant, S. S. Iyengar, 
 J. Tomasi, M. Cossi, J. M. Millam, M. Klene, C. Adamo, R. Cammi, 
 J. W. Ochterski, R. L. Martin, K. Morokuma, O. Farkas, 
 J. B. Foresman, and D. J. Fox, Gaussian, Inc., Wallingford CT, 2019.
 
 ******************************************
 Gaussian 16:  ES64L-G16RevC.01  3-Jul-2019
                 3-Feb-2022 
 ******************************************
 %NProcShared=32
 Will use up to   32 processors via shared memory.
 %mem=16GB
 %chk=Ac1_clust-12.chk
 ----------------------------------------------------------------------
 # B3LYP/6-31G(d,p) empiricaldispersion=GD3BJ int=(grid=ultrafine) opt 
 freq=noraman
 ----------------------------------------------------------------------
 1/18=20,19=15,26=4,38=1/1,3;
 2/9=110,12=2,17=6,18=5,40=1/2;
 3/5=1,6=6,7=101,11=2,25=1,30=1,71=1,74=-5,75=-5,124=41/1,2,3;
 4//1;
 5/5=2,38=5/2;
 6/7=2,8=2,9=2,10=2,28=1/1;
 7//1,2,3,16;
 1/18=20,19=15,26=4/3(2);
 2/9=110/2;
 99//99;
 2/9=110/2;
 3/5=1,6=6,7=101,11=2,25=1,30=1,71=1,74=-5,75=-5,124=41/1,2,3;
 4/5=5,16=3,69=1/1;
 5/5=2,38=5/2;
 7//1,2,3,16;
 1/18=20,19=15,26=4/3(-5);
 2/9=110/2;
 6/7=2,8=2,9=2,10=2,19=2,28=1/1;
 99/9=1/99;
 -------
 Ac1.xyz
 -------
 Symbolic Z-matrix:
 Charge =  0 Multiplicity = 1
 O                     5.8318   -0.8523   -0.4578 
 C                     4.6888   -0.1807   -0.7161 
 C                     3.5741   -0.5182    0.2708 
 C                     3.1206   -1.9993    0.2633 
 C                     2.4915   -2.4605   -1.0671 
 C                     2.0049   -3.9203   -1.0249 
 C                     1.2194   -4.3817   -2.2716 
 C                     2.0113   -4.3702   -3.5983 
 C                     1.8505   -3.0754   -4.4202 
 C                     2.6709   -3.0926   -5.7212 
 C                     2.5103   -1.8033   -6.5387 
 O                     4.5725    0.6204   -1.6316 
 H                     6.4361   -0.5549   -1.1383 
 H                     2.7269    0.1356    0.0633 
 H                     3.9325   -0.2404    1.2614 
 H                     3.9629   -2.6466    0.5185 
 H                     2.3938   -2.1412    1.0653 
 H                     1.6578   -1.8039   -1.3226 
 H                     3.226    -2.3528   -1.8658 
 H                     2.8587   -4.5823   -0.8697 
 H                     1.365    -4.0561   -0.1513 
 H                     0.8837   -5.4035   -2.0857 
 H                     0.302    -3.799    -2.3728 
 H                     1.67     -5.205    -4.2132 
 H                     3.0671   -4.567    -3.404 
 H                     0.7957   -2.9305   -4.6604 
 H                     2.1408   -2.2085   -3.8275 
 H                     3.7268   -3.239    -5.487 
 H                     2.3739   -3.9461   -6.3332 
 H                     2.8384   -0.9309   -5.9718 
 H                     3.1032   -1.8435   -7.453 
 H                     1.4708   -1.6422   -6.8267 
 

 GradGradGradGradGradGradGradGradGradGradGradGradGradGradGradGradGradGrad
 Berny optimization.
 Initialization pass.
                           ----------------------------
                           !    Initial Parameters    !
                           ! (Angstroms and Degrees)  !
 --------------------------                            --------------------------
 ! Name  Definition              Value          Derivative Info.                !
 --------------------------------------------------------------------------------
 ! R1    R(1,2)                  1.3506         estimate D2E/DX2                !
 ! R2    R(1,13)                 0.9574         estimate D2E/DX2                !
 ! R3    R(2,3)                  1.5266         estimate D2E/DX2                !
 ! R4    R(2,12)                 1.2221         estimate D2E/DX2                !
 ! R5    R(3,4)                  1.549          estimate D2E/DX2                !
 ! R6    R(3,14)                 1.0901         estimate D2E/DX2                !
 ! R7    R(3,15)                 1.0895         estimate D2E/DX2                !
 ! R8    R(4,5)                  1.5422         estimate D2E/DX2                !
 ! R9    R(4,16)                 1.0925         estimate D2E/DX2                !
 ! R10   R(4,17)                 1.0916         estimate D2E/DX2                !
 ! R11   R(5,6)                  1.5393         estimate D2E/DX2                !
 ! R12   R(5,18)                 1.0915         estimate D2E/DX2                !
 ! R13   R(5,19)                 1.0904         estimate D2E/DX2                !
 ! R14   R(6,7)                  1.5441         estimate D2E/DX2                !
 ! R15   R(6,20)                 1.0915         estimate D2E/DX2                !
 ! R16   R(6,21)                 1.0914         estimate D2E/DX2                !
 ! R17   R(7,8)                  1.5451         estimate D2E/DX2                !
 ! R18   R(7,22)                 1.0915         estimate D2E/DX2                !
 ! R19   R(7,23)                 1.0915         estimate D2E/DX2                !
 ! R20   R(8,9)                  1.542          estimate D2E/DX2                !
 ! R21   R(8,24)                 1.0915         estimate D2E/DX2                !
 ! R22   R(8,25)                 1.0914         estimate D2E/DX2                !
 ! R23   R(9,10)                 1.5382         estimate D2E/DX2                !
 ! R24   R(9,26)                 1.0915         estimate D2E/DX2                !
 ! R25   R(9,27)                 1.0895         estimate D2E/DX2                !
 ! R26   R(10,11)                1.5351         estimate D2E/DX2                !
 ! R27   R(10,28)                1.0914         estimate D2E/DX2                !
 ! R28   R(10,29)                1.0914         estimate D2E/DX2                !
 ! R29   R(11,30)                1.0909         estimate D2E/DX2                !
 ! R30   R(11,31)                1.0905         estimate D2E/DX2                !
 ! R31   R(11,32)                1.0906         estimate D2E/DX2                !
 ! A1    A(2,1,13)             104.108          estimate D2E/DX2                !
 ! A2    A(1,2,3)              112.6049         estimate D2E/DX2                !
 ! A3    A(1,2,12)             123.3511         estimate D2E/DX2                !
 ! A4    A(3,2,12)             124.0381         estimate D2E/DX2                !
 ! A5    A(2,3,4)              114.9637         estimate D2E/DX2                !
 ! A6    A(2,3,14)             108.1705         estimate D2E/DX2                !
 ! A7    A(2,3,15)             106.9317         estimate D2E/DX2                !
 ! A8    A(4,3,14)             110.1834         estimate D2E/DX2                !
 ! A9    A(4,3,15)             110.1531         estimate D2E/DX2                !
 ! A10   A(14,3,15)            106.0109         estimate D2E/DX2                !
 ! A11   A(3,4,5)              114.1763         estimate D2E/DX2                !
 ! A12   A(3,4,16)             109.8566         estimate D2E/DX2                !
 ! A13   A(3,4,17)             108.4013         estimate D2E/DX2                !
 ! A14   A(5,4,16)             109.8049         estimate D2E/DX2                !
 ! A15   A(5,4,17)             108.864          estimate D2E/DX2                !
 ! A16   A(16,4,17)            105.3483         estimate D2E/DX2                !
 ! A17   A(4,5,6)              112.8857         estimate D2E/DX2                !
 ! A18   A(4,5,18)             109.4872         estimate D2E/DX2                !
 ! A19   A(4,5,19)             109.1207         estimate D2E/DX2                !
 ! A20   A(6,5,18)             109.5987         estimate D2E/DX2                !
 ! A21   A(6,5,19)             109.0671         estimate D2E/DX2                !
 ! A22   A(18,5,19)            106.4761         estimate D2E/DX2                !
 ! A23   A(5,6,7)              114.9644         estimate D2E/DX2                !
 ! A24   A(5,6,20)             109.3783         estimate D2E/DX2                !
 ! A25   A(5,6,21)             108.983          estimate D2E/DX2                !
 ! A26   A(7,6,20)             109.3606         estimate D2E/DX2                !
 ! A27   A(7,6,21)             108.11           estimate D2E/DX2                !
 ! A28   A(20,6,21)            105.6263         estimate D2E/DX2                !
 ! A29   A(6,7,8)              115.4882         estimate D2E/DX2                !
 ! A30   A(6,7,22)             107.3789         estimate D2E/DX2                !
 ! A31   A(6,7,23)             110.054          estimate D2E/DX2                !
 ! A32   A(8,7,22)             108.1101         estimate D2E/DX2                !
 ! A33   A(8,7,23)             110.315          estimate D2E/DX2                !
 ! A34   A(22,7,23)            104.8953         estimate D2E/DX2                !
 ! A35   A(7,8,9)              114.2336         estimate D2E/DX2                !
 ! A36   A(7,8,24)             108.5271         estimate D2E/DX2                !
 ! A37   A(7,8,25)             109.9738         estimate D2E/DX2                !
 ! A38   A(9,8,24)             108.0176         estimate D2E/DX2                !
 ! A39   A(9,8,25)             110.3141         estimate D2E/DX2                !
 ! A40   A(24,8,25)            105.3583         estimate D2E/DX2                !
 ! A41   A(8,9,10)             112.6939         estimate D2E/DX2                !
 ! A42   A(8,9,26)             109.2411         estimate D2E/DX2                !
 ! A43   A(8,9,27)             110.5094         estimate D2E/DX2                !
 ! A44   A(10,9,26)            109.3168         estimate D2E/DX2                !
 ! A45   A(10,9,27)            109.0809         estimate D2E/DX2                !
 ! A46   A(26,9,27)            105.7584         estimate D2E/DX2                !
 ! A47   A(9,10,11)            112.6591         estimate D2E/DX2                !
 ! A48   A(9,10,28)            109.6337         estimate D2E/DX2                !
 ! A49   A(9,10,29)            109.7478         estimate D2E/DX2                !
 ! A50   A(11,10,28)           109.1568         estimate D2E/DX2                !
 ! A51   A(11,10,29)           109.2516         estimate D2E/DX2                !
 ! A52   A(28,10,29)           106.1821         estimate D2E/DX2                !
 ! A53   A(10,11,30)           111.3126         estimate D2E/DX2                !
 ! A54   A(10,11,31)           111.0189         estimate D2E/DX2                !
 ! A55   A(10,11,32)           111.3715         estimate D2E/DX2                !
 ! A56   A(30,11,31)           107.5574         estimate D2E/DX2                !
 ! A57   A(30,11,32)           107.8037         estimate D2E/DX2                !
 ! A58   A(31,11,32)           107.5938         estimate D2E/DX2                !
 ! D1    D(13,1,2,3)           179.9027         estimate D2E/DX2                !
 ! D2    D(13,1,2,12)           -0.9476         estimate D2E/DX2                !
 ! D3    D(1,2,3,4)            -62.3041         estimate D2E/DX2                !
 ! D4    D(1,2,3,14)           174.0987         estimate D2E/DX2                !
 ! D5    D(1,2,3,15)            60.3098         estimate D2E/DX2                !
 ! D6    D(12,2,3,4)           118.5531         estimate D2E/DX2                !
 ! D7    D(12,2,3,14)           -5.0441         estimate D2E/DX2                !
 ! D8    D(12,2,3,15)         -118.833          estimate D2E/DX2                !
 ! D9    D(2,3,4,5)            -63.6913         estimate D2E/DX2                !
 ! D10   D(2,3,4,16)            60.1567         estimate D2E/DX2                !
 ! D11   D(2,3,4,17)           174.7848         estimate D2E/DX2                !
 ! D12   D(14,3,4,5)            58.8302         estimate D2E/DX2                !
 ! D13   D(14,3,4,16)         -177.3217         estimate D2E/DX2                !
 ! D14   D(14,3,4,17)          -62.6936         estimate D2E/DX2                !
 ! D15   D(15,3,4,5)           175.4418         estimate D2E/DX2                !
 ! D16   D(15,3,4,16)          -60.7101         estimate D2E/DX2                !
 ! D17   D(15,3,4,17)           53.9179         estimate D2E/DX2                !
 ! D18   D(3,4,5,6)           -177.8904         estimate D2E/DX2                !
 ! D19   D(3,4,5,18)           -55.5064         estimate D2E/DX2                !
 ! D20   D(3,4,5,19)            60.6675         estimate D2E/DX2                !
 ! D21   D(16,4,5,6)            58.2337         estimate D2E/DX2                !
 ! D22   D(16,4,5,18)         -179.3823         estimate D2E/DX2                !
 ! D23   D(16,4,5,19)          -63.2084         estimate D2E/DX2                !
 ! D24   D(17,4,5,6)           -56.6222         estimate D2E/DX2                !
 ! D25   D(17,4,5,18)           65.7618         estimate D2E/DX2                !
 ! D26   D(17,4,5,19)         -178.0643         estimate D2E/DX2                !
 ! D27   D(4,5,6,7)            173.1578         estimate D2E/DX2                !
 ! D28   D(4,5,6,20)           -63.38           estimate D2E/DX2                !
 ! D29   D(4,5,6,21)            51.6413         estimate D2E/DX2                !
 ! D30   D(18,5,6,7)            50.8363         estimate D2E/DX2                !
 ! D31   D(18,5,6,20)          174.2985         estimate D2E/DX2                !
 ! D32   D(18,5,6,21)          -70.6802         estimate D2E/DX2                !
 ! D33   D(19,5,6,7)           -65.3697         estimate D2E/DX2                !
 ! D34   D(19,5,6,20)           58.0925         estimate D2E/DX2                !
 ! D35   D(19,5,6,21)          173.1137         estimate D2E/DX2                !
 ! D36   D(5,6,7,8)             62.7866         estimate D2E/DX2                !
 ! D37   D(5,6,7,22)          -176.5473         estimate D2E/DX2                !
 ! D38   D(5,6,7,23)           -62.9077         estimate D2E/DX2                !
 ! D39   D(20,6,7,8)           -60.6849         estimate D2E/DX2                !
 ! D40   D(20,6,7,22)           59.9811         estimate D2E/DX2                !
 ! D41   D(20,6,7,23)          173.6208         estimate D2E/DX2                !
 ! D42   D(21,6,7,8)          -175.2235         estimate D2E/DX2                !
 ! D43   D(21,6,7,22)          -54.5575         estimate D2E/DX2                !
 ! D44   D(21,6,7,23)           59.0822         estimate D2E/DX2                !
 ! D45   D(6,7,8,9)            -93.8908         estimate D2E/DX2                !
 ! D46   D(6,7,8,24)           145.5395         estimate D2E/DX2                !
 ! D47   D(6,7,8,25)            30.7674         estimate D2E/DX2                !
 ! D48   D(22,7,8,9)           145.8408         estimate D2E/DX2                !
 ! D49   D(22,7,8,24)           25.2711         estimate D2E/DX2                !
 ! D50   D(22,7,8,25)          -89.501          estimate D2E/DX2                !
 ! D51   D(23,7,8,9)            31.6696         estimate D2E/DX2                !
 ! D52   D(23,7,8,24)          -88.9001         estimate D2E/DX2                !
 ! D53   D(23,7,8,25)          156.3278         estimate D2E/DX2                !
 ! D54   D(7,8,9,10)           179.0655         estimate D2E/DX2                !
 ! D55   D(7,8,9,26)           -59.2173         estimate D2E/DX2                !
 ! D56   D(7,8,9,27)            56.7388         estimate D2E/DX2                !
 ! D57   D(24,8,9,10)          -60.0816         estimate D2E/DX2                !
 ! D58   D(24,8,9,26)           61.6356         estimate D2E/DX2                !
 ! D59   D(24,8,9,27)          177.5917         estimate D2E/DX2                !
 ! D60   D(25,8,9,10)           54.5884         estimate D2E/DX2                !
 ! D61   D(25,8,9,26)          176.3056         estimate D2E/DX2                !
 ! D62   D(25,8,9,27)          -67.7383         estimate D2E/DX2                !
 ! D63   D(8,9,10,11)         -179.9974         estimate D2E/DX2                !
 ! D64   D(8,9,10,28)          -58.2291         estimate D2E/DX2                !
 ! D65   D(8,9,10,29)           58.0315         estimate D2E/DX2                !
 ! D66   D(26,9,10,11)          58.3283         estimate D2E/DX2                !
 ! D67   D(26,9,10,28)        -179.9034         estimate D2E/DX2                !
 ! D68   D(26,9,10,29)         -63.6428         estimate D2E/DX2                !
 ! D69   D(27,9,10,11)         -56.8706         estimate D2E/DX2                !
 ! D70   D(27,9,10,28)          64.8977         estimate D2E/DX2                !
 ! D71   D(27,9,10,29)        -178.8417         estimate D2E/DX2                !
 ! D72   D(9,10,11,30)          60.1362         estimate D2E/DX2                !
 ! D73   D(9,10,11,31)         179.9244         estimate D2E/DX2                !
 ! D74   D(9,10,11,32)         -60.2022         estimate D2E/DX2                !
 ! D75   D(28,10,11,30)        -61.9018         estimate D2E/DX2                !
 ! D76   D(28,10,11,31)         57.8864         estimate D2E/DX2                !
 ! D77   D(28,10,11,32)        177.7598         estimate D2E/DX2                !
 ! D78   D(29,10,11,30)       -177.6127         estimate D2E/DX2                !
 ! D79   D(29,10,11,31)        -57.8245         estimate D2E/DX2                !
 ! D80   D(29,10,11,32)         62.0489         estimate D2E/DX2                !
 --------------------------------------------------------------------------------
 Trust Radius=3.00D-01 FncErr=1.00D-07 GrdErr=1.00D-06 EigMax=2.50D+02 EigMin=1.00D-04
 Number of steps in this run=    179 maximum allowed number of steps=    192.
 GradGradGradGradGradGradGradGradGradGradGradGradGradGradGradGradGradGrad

                          Input orientation:                          
 ---------------------------------------------------------------------
 Center     Atomic      Atomic             Coordinates (Angstroms)
 Number     Number       Type             X           Y           Z
 ---------------------------------------------------------------------
      1          8           0        5.831800   -0.852300   -0.457800
      2          6           0        4.688800   -0.180700   -0.716100
      3          6           0        3.574100   -0.518200    0.270800
      4          6           0        3.120600   -1.999300    0.263300
      5          6           0        2.491500   -2.460500   -1.067100
      6          6           0        2.004900   -3.920300   -1.024900
      7          6           0        1.219400   -4.381700   -2.271600
      8          6           0        2.011300   -4.370200   -3.598300
      9          6           0        1.850500   -3.075400   -4.420200
     10          6           0        2.670900   -3.092600   -5.721200
     11          6           0        2.510300   -1.803300   -6.538700
     12          8           0        4.572500    0.620400   -1.631600
     13          1           0        6.436100   -0.554900   -1.138300
     14          1           0        2.726900    0.135600    0.063300
     15          1           0        3.932500   -0.240400    1.261400
     16          1           0        3.962900   -2.646600    0.518500
     17          1           0        2.393800   -2.141200    1.065300
     18          1           0        1.657800   -1.803900   -1.322600
     19          1           0        3.226000   -2.352800   -1.865800
     20          1           0        2.858700   -4.582300   -0.869700
     21          1           0        1.365000   -4.056100   -0.151300
     22          1           0        0.883700   -5.403500   -2.085700
     23          1           0        0.302000   -3.799000   -2.372800
     24          1           0        1.670000   -5.205000   -4.213200
     25          1           0        3.067100   -4.567000   -3.404000
     26          1           0        0.795700   -2.930500   -4.660400
     27          1           0        2.140800   -2.208500   -3.827500
     28          1           0        3.726800   -3.239000   -5.487000
     29          1           0        2.373900   -3.946100   -6.333200
     30          1           0        2.838400   -0.930900   -5.971800
     31          1           0        3.103200   -1.843500   -7.453000
     32          1           0        1.470800   -1.642200   -6.826700
 ---------------------------------------------------------------------
                    Distance matrix (angstroms):
                    1          2          3          4          5
     1  O    0.000000
     2  C    1.350635   0.000000
     3  C    2.395765   1.526576   0.000000
     4  C    3.030874   2.593411   1.548992   0.000000
     5  C    3.757014   3.185721   2.595097   1.542218   0.000000
     6  C    4.937549   4.613381   3.964279   2.567973   1.539343
     7  C    6.084469   5.666103   5.189898   3.964355   2.600013
     8  C    6.069150   5.746999   5.678924   4.665155   3.206949
     9  C    6.040988   5.491411   5.613871   4.970545   3.468755
    10  C    6.535565   6.132056   6.583872   6.100146   4.700253
    11  C    6.993862   6.425057   7.010880   6.832136   5.510959
    12  O    2.265500   1.222059   2.431530   3.544219   3.760474
    13  H    0.957447   1.836120   3.190291   3.878571   4.381353
    14  H    3.299681   2.134610   1.090073   2.180091   2.841294
    15  H    2.633896   2.118032   1.089455   2.179246   3.525229
    16  H    2.768657   2.851637   2.177753   1.092517   2.171124
    17  H    3.975040   3.504850   2.158348   1.091594   2.158385
    18  H    4.367573   3.491358   2.804310   2.166343   1.091540
    19  H    3.320265   2.860002   2.837603   2.160819   1.090418
    20  H    4.787681   4.769375   4.281290   2.832697   2.162369
    21  H    5.505504   5.136669   4.192258   2.735772   2.157228
    22  H    6.917165   6.605470   6.054544   4.702138   3.504827
    23  H    6.552019   5.922902   5.334689   4.258221   2.879296
    24  H    7.097155   6.825427   6.760026   5.693839   4.255007
    25  H    5.488411   5.393917   5.491264   4.477168   3.198399
    26  H    6.880630   6.186690   6.152677   5.524049   4.001055
    27  H    5.178575   4.503897   4.659134   4.211700   2.793976
    28  H    5.951488   5.748054   6.370112   5.913568   4.654841
    29  H    7.486588   7.147644   7.536829   6.918194   5.472901
    30  H    6.274617   5.622203   6.299336   6.332266   5.149378
    31  H    7.573675   7.117925   7.850812   7.717892   6.444733
    32  H    7.759198   7.059103   7.487440   7.288173   5.906305
                    6          7          8          9         10
     6  C    0.000000
     7  C    1.544073   0.000000
     8  C    2.612439   1.545112   0.000000
     9  C    3.502250   2.592526   1.542039   0.000000
    10  C    4.814964   3.958329   2.563989   1.538165   0.000000
    11  C    5.927825   5.150021   3.934962   2.557658   1.535055
    12  O    5.251534   6.055897   5.944219   5.370709   5.841856
    13  H    5.565457   6.568312   6.339319   6.176691   6.451327
    14  H    4.260961   5.303802   5.849926   5.583939   6.624564
    15  H    4.741780   6.082217   6.660551   6.682255   7.647443
    16  H    2.799671   4.280423   4.871097   5.388586   6.387647
    17  H    2.772251   4.187357   5.183041   5.590940   6.858464
    18  H    2.165237   2.781699   3.448140   3.353949   4.694124
    19  H    2.157604   2.882283   2.923518   2.989835   3.964789
    20  H    1.091469   2.166303   2.865019   3.986636   5.078536
    21  H    1.091371   2.150090   3.521104   4.406925   5.801508
    22  H    2.140623   1.091480   2.151081   3.435788   4.663818
    23  H    2.175182   1.091514   2.179410   2.667076   4.162027
    24  H    3.453675   2.156542   1.091549   2.147237   2.781744
    25  H    2.684512   2.175008   1.091419   2.176614   2.774932
    26  H    3.957111   2.826989   2.162978   1.091465   2.160543
    27  H    3.286837   2.827119   2.177671   1.089533   2.156093
    28  H    4.831092   4.234574   2.791011   2.164562   1.091424
    29  H    5.321172   4.244904   2.791239   2.166018   1.091428
    30  H    5.839782   5.312312   4.259857   2.825295   2.182614
    31  H    6.843963   6.069437   4.736578   3.504955   2.178593
    32  H    6.255868   5.321372   4.261067   2.826566   2.183124
                   11         12         13         14         15
    11  C    0.000000
    12  O    5.848643   0.000000
    13  H    6.792255   2.257804   0.000000
    14  H    6.884232   2.552245   3.959646   0.000000
    15  H    8.081267   3.085454   3.482166   1.740773   0.000000
    16  H    7.254328   3.958261   3.638257   3.078236   2.518456
    17  H    7.612395   4.432430   4.869537   2.509737   2.453384
    18  H    5.285306   3.803707   4.942279   2.612538   3.780985
    19  H    4.759220   3.272282   3.750526   3.187893   3.839369
    20  H    6.323115   5.530433   5.393504   4.811075   4.954466
    21  H    6.869185   5.860802   6.240883   4.412615   4.811169
    22  H    5.952854   7.078194   7.432068   6.220709   6.867013
    23  H    5.119974   6.190125   7.048075   5.224538   6.249126
    24  H    4.205427   7.001746   7.334449   6.922969   7.728998
    25  H    4.215971   5.684782   5.707933   5.852551   6.421397
    26  H    2.781806   6.003894   7.061358   5.953473   7.221071
    27  H    2.766102   4.328720   5.330646   4.580026   5.742866
    28  H    2.155732   5.520352   5.784107   6.572180   7.387477
    29  H    2.156949   6.913162   7.415436   7.596058   8.592985
    30  H    1.090920   4.924527   6.037180   6.129624   7.347995
    31  H    1.090454   6.489865   7.255629   7.781594   8.899350
    32  H    1.090623   6.459796   7.628520   7.225681   8.569852
                   16         17         18         19         20
    16  H    0.000000
    17  H    1.736806   0.000000
    18  H    3.068107   2.521415   0.000000
    19  H    2.512812   3.054289   1.748030   0.000000
    20  H    2.625508   3.149496   3.060521   2.469371   0.000000
    21  H    3.030579   2.491061   2.555402   3.050256   1.739001
    22  H    4.885062   4.780356   3.760143   3.852466   2.460417
    23  H    4.805188   4.352523   2.630882   3.301260   3.067504
    24  H    5.847374   6.146000   4.463541   4.008300   3.602743
    25  H    4.458296   5.129569   3.735381   2.700739   2.542900
    26  H    6.077233   5.996712   3.626755   3.748318   4.621019
    27  H    4.732832   4.899799   2.582927   2.246497   3.859908
    28  H    6.039264   6.776038   4.866467   3.761548   4.886462
    29  H    7.152581   7.615501   5.496174   4.818957   5.521740
    30  H    6.806770   7.154249   4.875552   4.362484   6.274118
    31  H    8.057845   8.552971   6.298615   5.611708   7.134469
    32  H    7.821211   7.961444   5.509649   5.310010   6.786479
                   21         22         23         24         25
    21  H    0.000000
    22  H    2.406042   0.000000
    23  H    2.476112   1.730671   0.000000
    24  H    4.232260   2.276824   2.689857   0.000000
    25  H    3.706511   2.684191   3.049422   1.736012   0.000000
    26  H    4.682207   3.571072   2.496226   2.477446   3.068539
    27  H    4.186877   3.849960   2.833201   3.057684   2.569028
    28  H    5.891982   4.933267   4.662735   3.117395   2.556888
    29  H    6.264652   4.731381   4.472044   2.564119   3.073476
    30  H    6.768752   6.239133   5.254724   4.767155   4.457255
    31  H    7.825073   6.812319   6.122020   4.883651   4.879873
    32  H    7.099230   6.080226   5.084792   4.423077   4.776767
                   26         27         28         29         30
    26  H    0.000000
    27  H    1.739052   0.000000
    28  H    3.061011   2.516201   0.000000
    29  H    2.514044   3.058124   1.745389   0.000000
    30  H    3.144963   2.591704   2.520240   3.072100   0.000000
    31  H    3.782161   3.768778   2.490272   2.491336   1.759804
    32  H    2.609278   3.124867   3.071498   2.523309   1.762706
                   31         32
    31  H    0.000000
    32  H    1.759972   0.000000
 Stoichiometry    C10H20O2
 Framework group  C1[X(C10H20O2)]
 Deg. of freedom    90
 Full point group                 C1      NOp   1
 Largest Abelian subgroup         C1      NOp   1
 Largest concise Abelian subgroup C1      NOp   1
                         Standard orientation:                         
 ---------------------------------------------------------------------
 Center     Atomic      Atomic             Coordinates (Angstroms)
 Number     Number       Type             X           Y           Z
 ---------------------------------------------------------------------
      1          8           0        3.182730   -1.091271    1.308675
      2          6           0        2.820982   -1.161364    0.009275
      3          6           0        3.025208    0.159270   -0.728732
      4          6           0        2.183629    1.344338   -0.193258
      5          6           0        0.660147    1.153544   -0.338304
      6          6           0       -0.145075    2.369148    0.155156
      7          6           0       -1.663077    2.300071   -0.118815
      8          6           0       -2.412734    1.143282    0.579200
      9          6           0       -2.563808   -0.125309   -0.284360
     10          6           0       -3.294245   -1.261056    0.452182
     11          6           0       -3.444136   -2.523499   -0.408146
     12          8           0        2.393371   -2.178998   -0.515127
     13          1           0        3.005661   -1.968929    1.647892
     14          1           0        2.813304   -0.005429   -1.785249
     15          1           0        4.087037    0.395493   -0.668488
     16          1           0        2.434862    1.535181    0.852713
     17          1           0        2.478990    2.247357   -0.730750
     18          1           0        0.416192    0.952402   -1.383046
     19          1           0        0.355327    0.271563    0.225792
     20          1           0        0.023717    2.505324    1.224862
     21          1           0        0.244935    3.270366   -0.321068
     22          1           0       -2.098940    3.241083    0.221549
     23          1           0       -1.848684    2.277624   -1.194198
     24          1           0       -3.412335    1.489877    0.847806
     25          1           0       -1.926513    0.901487    1.525942
     26          1           0       -3.109570    0.123255   -1.196311
     27          1           0       -1.587992   -0.482752   -0.611625
     28          1           0       -2.753541   -1.512680    1.366256
     29          1           0       -4.282299   -0.920798    0.767125
     30          1           0       -2.471712   -2.917260   -0.707229
     31          1           0       -3.963464   -3.310596    0.139456
     32          1           0       -4.015139   -2.320961   -1.315004
 ---------------------------------------------------------------------
 Rotational constants (GHZ):           0.9372762           0.4231367           0.3179789
 Standard basis: 6-31G(d,p) (6D, 7F)
 There are   280 symmetry adapted cartesian basis functions of A   symmetry.
 There are   280 symmetry adapted basis functions of A   symmetry.
   280 basis functions,   476 primitive gaussians,   280 cartesian basis functions
    48 alpha electrons       48 beta electrons
       nuclear repulsion energy       716.8627930487 Hartrees.
 NAtoms=   32 NActive=   32 NUniq=   32 SFac= 1.00D+00 NAtFMM=   60 NAOKFM=F Big=F
 Integral buffers will be    131072 words long.
 Raffenetti 2 integral format.
 Two-electron integral symmetry is turned on.
 Nuclear repulsion after empirical dispersion term =      716.8154844341 Hartrees.
 One-electron integrals computed using PRISM.
 NBasis=   280 RedAO= T EigKep=  3.03D-03  NBF=   280
 NBsUse=   280 1.00D-06 EigRej= -1.00D+00 NBFU=   280
 ExpMin= 1.61D-01 ExpMax= 5.48D+03 ExpMxC= 8.25D+02 IAcc=3 IRadAn=         5 AccDes= 0.00D+00
 Harris functional with IExCor=  402 and IRadAn=       5 diagonalized for initial guess.
 HarFok:  IExCor=  402 AccDes= 0.00D+00 IRadAn=         5 IDoV= 1 UseB2=F ITyADJ=14
 ICtDFT=  3500011 ScaDFX=  1.000000  1.000000  1.000000  1.000000
 FoFCou: FMM=F IPFlag=           0 FMFlag=      100000 FMFlg1=           0
         NFxFlg=           0 DoJE=T BraDBF=F KetDBF=T FulRan=T
         wScrn=  0.000000 ICntrl=       500 IOpCl=  0 I1Cent=   200000004 NGrid=           0
         NMat0=    1 NMatS0=      1 NMatT0=    0 NMatD0=    1 NMtDS0=    0 NMtDT0=    0
 Petite list used in FoFCou.
 Requested convergence on RMS density matrix=1.00D-08 within 128 cycles.
 Requested convergence on MAX density matrix=1.00D-06.
 Requested convergence on             energy=1.00D-06.
 No special actions if energy rises.
 Integral accuracy reduced to 1.0D-05 until final iterations.
 Initial convergence to 1.0D-05 achieved.  Increase integral accuracy.
 SCF Done:  E(RB3LYP) =  -543.663020891     A.U. after   13 cycles
            NFock= 13  Conv=0.68D-08     -V/T= 2.0096

 **********************************************************************

            Population analysis using the SCF Density.

 **********************************************************************

 Orbital symmetries:
       Occupied  (A) (A) (A) (A) (A) (A) (A) (A) (A) (A) (A) (A)
                 (A) (A) (A) (A) (A) (A) (A) (A) (A) (A) (A) (A)
                 (A) (A) (A) (A) (A) (A) (A) (A) (A) (A) (A) (A)
                 (A) (A) (A) (A) (A) (A) (A) (A) (A) (A) (A) (A)
       Virtual   (A) (A) (A) (A) (A) (A) (A) (A) (A) (A) (A) (A)
                 (A) (A) (A) (A) (A) (A) (A) (A) (A) (A) (A) (A)
                 (A) (A) (A) (A) (A) (A) (A) (A) (A) (A) (A) (A)
                 (A) (A) (A) (A) (A) (A) (A) (A) (A) (A) (A) (A)
                 (A) (A) (A) (A) (A) (A) (A) (A) (A) (A) (A) (A)
                 (A) (A) (A) (A) (A) (A) (A) (A) (A) (A) (A) (A)
                 (A) (A) (A) (A) (A) (A) (A) (A) (A) (A) (A) (A)
                 (A) (A) (A) (A) (A) (A) (A) (A) (A) (A) (A) (A)
                 (A) (A) (A) (A) (A) (A) (A) (A) (A) (A) (A) (A)
                 (A) (A) (A) (A) (A) (A) (A) (A) (A) (A) (A) (A)
                 (A) (A) (A) (A) (A) (A) (A) (A) (A) (A) (A) (A)
                 (A) (A) (A) (A) (A) (A) (A) (A) (A) (A) (A) (A)
                 (A) (A) (A) (A) (A) (A) (A) (A) (A) (A) (A) (A)
                 (A) (A) (A) (A) (A) (A) (A) (A) (A) (A) (A) (A)
                 (A) (A) (A) (A) (A) (A) (A) (A) (A) (A) (A) (A)
                 (A) (A) (A) (A) (A) (A) (A) (A) (A) (A) (A) (A)
                 (A) (A) (A) (A) (A) (A) (A) (A) (A) (A) (A) (A)
                 (A) (A) (A) (A) (A) (A) (A) (A) (A) (A) (A) (A)
                 (A) (A) (A) (A) (A) (A) (A) (A) (A) (A) (A) (A)
                 (A) (A) (A) (A)
 The electronic state is 1-A.
 Alpha  occ. eigenvalues --  -19.19936 -19.13641 -10.32011 -10.19925 -10.19133
 Alpha  occ. eigenvalues --  -10.18023 -10.17852 -10.17591 -10.17375 -10.17310
 Alpha  occ. eigenvalues --  -10.17075 -10.16572  -1.10764  -1.01046  -0.81250
 Alpha  occ. eigenvalues --   -0.79336  -0.76619  -0.72747  -0.68648  -0.64240
 Alpha  occ. eigenvalues --   -0.61210  -0.58929  -0.57310  -0.56511  -0.48548
 Alpha  occ. eigenvalues --   -0.48379  -0.47209  -0.45770  -0.45519  -0.43907
 Alpha  occ. eigenvalues --   -0.42389  -0.41735  -0.40675  -0.39567  -0.39001
 Alpha  occ. eigenvalues --   -0.38508  -0.37139  -0.36087  -0.34864  -0.34126
 Alpha  occ. eigenvalues --   -0.33867  -0.32787  -0.32201  -0.32040  -0.31630
 Alpha  occ. eigenvalues --   -0.30234  -0.29794  -0.26862
 Alpha virt. eigenvalues --    0.00781   0.07555   0.09037   0.10107   0.11576
 Alpha virt. eigenvalues --    0.11705   0.12518   0.13517   0.14220   0.15026
 Alpha virt. eigenvalues --    0.15640   0.16163   0.17209   0.18253   0.18635
 Alpha virt. eigenvalues --    0.19158   0.19268   0.19699   0.19960   0.20999
 Alpha virt. eigenvalues --    0.21522   0.22261   0.23221   0.23946   0.24974
 Alpha virt. eigenvalues --    0.25531   0.26356   0.28409   0.28599   0.30746
 Alpha virt. eigenvalues --    0.32062   0.35557   0.48793   0.49734   0.50442
 Alpha virt. eigenvalues --    0.51715   0.52253   0.52690   0.54809   0.55108
 Alpha virt. eigenvalues --    0.56598   0.58111   0.60340   0.61226   0.61810
 Alpha virt. eigenvalues --    0.63056   0.64633   0.65852   0.66100   0.67817
 Alpha virt. eigenvalues --    0.68210   0.70491   0.71270   0.71672   0.74290
 Alpha virt. eigenvalues --    0.75620   0.76727   0.78429   0.80030   0.80150
 Alpha virt. eigenvalues --    0.82728   0.84864   0.85173   0.85970   0.87049
 Alpha virt. eigenvalues --    0.87637   0.88121   0.88999   0.89838   0.90131
 Alpha virt. eigenvalues --    0.90540   0.91953   0.92463   0.92516   0.93116
 Alpha virt. eigenvalues --    0.93732   0.94781   0.95529   0.96399   0.97084
 Alpha virt. eigenvalues --    0.97642   0.98771   1.00565   1.03496   1.04717
 Alpha virt. eigenvalues --    1.06520   1.09185   1.10435   1.11411   1.14188
 Alpha virt. eigenvalues --    1.18871   1.27149   1.29531   1.34696   1.36701
 Alpha virt. eigenvalues --    1.37597   1.38270   1.40342   1.44260   1.45957
 Alpha virt. eigenvalues --    1.49322   1.51380   1.52738   1.57050   1.57516
 Alpha virt. eigenvalues --    1.59996   1.62029   1.63632   1.66080   1.68259
 Alpha virt. eigenvalues --    1.69631   1.69873   1.71050   1.72768   1.75842
 Alpha virt. eigenvalues --    1.77357   1.78966   1.81146   1.81402   1.82822
 Alpha virt. eigenvalues --    1.83290   1.85476   1.86845   1.87520   1.88419
 Alpha virt. eigenvalues --    1.89382   1.91088   1.91333   1.93308   1.96134
 Alpha virt. eigenvalues --    1.98375   2.04463   2.05460   2.06029   2.08204
 Alpha virt. eigenvalues --    2.08884   2.10874   2.11532   2.12731   2.13250
 Alpha virt. eigenvalues --    2.15092   2.16032   2.17384   2.18057   2.21354
 Alpha virt. eigenvalues --    2.22451   2.24074   2.24524   2.26545   2.27246
 Alpha virt. eigenvalues --    2.28489   2.29802   2.30740   2.31913   2.32795
 Alpha virt. eigenvalues --    2.33458   2.35059   2.38123   2.40335   2.41112
 Alpha virt. eigenvalues --    2.43775   2.44315   2.46311   2.47995   2.48512
 Alpha virt. eigenvalues --    2.50581   2.52515   2.55412   2.57097   2.58628
 Alpha virt. eigenvalues --    2.60392   2.61701   2.64807   2.65567   2.67441
 Alpha virt. eigenvalues --    2.69186   2.70761   2.71514   2.73874   2.74634
 Alpha virt. eigenvalues --    2.75905   2.79119   2.79924   2.81463   2.82865
 Alpha virt. eigenvalues --    2.84458   2.85895   2.87789   2.89170   2.89777
 Alpha virt. eigenvalues --    2.89914   2.90883   2.92075   2.92835   2.93505
 Alpha virt. eigenvalues --    2.93785   2.95584   2.97588   3.02293   3.11313
 Alpha virt. eigenvalues --    3.19986   3.24124   3.28542   3.30731   3.31380
 Alpha virt. eigenvalues --    3.32987   3.33834   3.34772   3.38142   3.39326
 Alpha virt. eigenvalues --    3.40326   3.44055   3.45753   3.48471   3.49433
 Alpha virt. eigenvalues --    3.52946   3.55200   3.58449   3.59089   3.61515
 Alpha virt. eigenvalues --    3.91669   4.14269   4.24660   4.28572   4.33236
 Alpha virt. eigenvalues --    4.43608   4.49808   4.57871   4.62400   4.67346
 Alpha virt. eigenvalues --    4.73614   4.76928
          Condensed to atoms (all electrons):
               1          2          3          4          5          6
     1  O    8.122994   0.244577  -0.099626   0.003998  -0.000969  -0.000004
     2  C    0.244577   4.382171   0.348004  -0.030038  -0.000876   0.000098
     3  C   -0.099626   0.348004   5.101426   0.334713  -0.043498   0.003556
     4  C    0.003998  -0.030038   0.334713   4.924883   0.368665  -0.031985
     5  C   -0.000969  -0.000876  -0.043498   0.368665   4.912054   0.375996
     6  C   -0.000004   0.000098   0.003556  -0.031985   0.375996   4.889619
     7  C    0.000000   0.000000  -0.000135   0.003584  -0.041569   0.375237
     8  C   -0.000000  -0.000002   0.000004  -0.000008  -0.002660  -0.037302
     9  C    0.000000  -0.000005   0.000002   0.000114  -0.000916  -0.001520
    10  C   -0.000000   0.000000  -0.000000  -0.000001  -0.000067  -0.000013
    11  C    0.000000  -0.000000   0.000000  -0.000000   0.000001   0.000001
    12  O   -0.083447   0.570357  -0.072616  -0.000165   0.000977   0.000006
    13  H    0.268420  -0.009357   0.010837  -0.000299  -0.000069   0.000000
    14  H    0.003378  -0.032748   0.376736  -0.031700  -0.005740   0.000067
    15  H    0.001830  -0.025718   0.354454  -0.022425   0.004537  -0.000111
    16  H    0.004929  -0.008322  -0.035097   0.382564  -0.037970  -0.003132
    17  H    0.000010   0.003687  -0.030651   0.378944  -0.041401  -0.004311
    18  H    0.000021  -0.000873  -0.002603  -0.040659   0.385368  -0.039955
    19  H    0.000457   0.006193  -0.005221  -0.038099   0.384250  -0.035482
    20  H   -0.000002  -0.000011   0.000028  -0.003567  -0.040002   0.381503
    21  H   -0.000000   0.000002   0.000078  -0.005876  -0.043015   0.379130
    22  H   -0.000000   0.000000   0.000002  -0.000131   0.005048  -0.032339
    23  H   -0.000000   0.000000  -0.000001   0.000033  -0.007232  -0.036709
    24  H   -0.000000   0.000000  -0.000000   0.000001   0.000059   0.003957
    25  H    0.000000  -0.000001   0.000002  -0.000079  -0.000824  -0.007466
    26  H   -0.000000   0.000000   0.000000  -0.000005   0.000004  -0.000020
    27  H   -0.000001   0.000028  -0.000007   0.000030   0.001423  -0.000038
    28  H   -0.000000  -0.000000   0.000000  -0.000000   0.000008  -0.000001
    29  H    0.000000   0.000000  -0.000000   0.000000  -0.000000  -0.000003
    30  H   -0.000000   0.000000   0.000000   0.000000  -0.000004  -0.000000
    31  H   -0.000000   0.000000  -0.000000  -0.000000  -0.000000   0.000000
    32  H    0.000000  -0.000000   0.000000   0.000000   0.000000   0.000000
               7          8          9         10         11         12
     1  O    0.000000  -0.000000   0.000000  -0.000000   0.000000  -0.083447
     2  C    0.000000  -0.000002  -0.000005   0.000000  -0.000000   0.570357
     3  C   -0.000135   0.000004   0.000002  -0.000000   0.000000  -0.072616
     4  C    0.003584  -0.000008   0.000114  -0.000001  -0.000000  -0.000165
     5  C   -0.041569  -0.002660  -0.000916  -0.000067   0.000001   0.000977
     6  C    0.375237  -0.037302  -0.001520  -0.000013   0.000001   0.000006
     7  C    4.926595   0.359064  -0.033731   0.003723  -0.000136   0.000000
     8  C    0.359064   4.910471   0.378466  -0.036145   0.003718   0.000000
     9  C   -0.033731   0.378466   4.895946   0.378601  -0.041291  -0.000003
    10  C    0.003723  -0.036145   0.378601   4.871666   0.366796   0.000000
    11  C   -0.000136   0.003718  -0.041291   0.366796   4.921866  -0.000000
    12  O    0.000000   0.000000  -0.000003   0.000000  -0.000000   8.039683
    13  H   -0.000000  -0.000000  -0.000000   0.000000  -0.000000   0.011421
    14  H   -0.000001   0.000000  -0.000001   0.000000  -0.000000   0.001627
    15  H    0.000001  -0.000000  -0.000000   0.000000  -0.000000   0.002070
    16  H    0.000040  -0.000010  -0.000001   0.000000   0.000000   0.000004
    17  H   -0.000039   0.000007  -0.000004   0.000000  -0.000000  -0.000084
    18  H   -0.002962  -0.001405  -0.000178   0.000009   0.000000   0.000022
    19  H   -0.004071   0.004338  -0.002698   0.000149  -0.000013  -0.000103
    20  H   -0.036373  -0.007328  -0.000105   0.000009  -0.000000   0.000000
    21  H   -0.034084   0.004830  -0.000117   0.000002  -0.000000  -0.000000
    22  H    0.370253  -0.032553   0.004020  -0.000167   0.000002   0.000000
    23  H    0.383491  -0.043540  -0.008490   0.000215  -0.000003  -0.000000
    24  H   -0.032643   0.378895  -0.038847  -0.004635   0.000028  -0.000000
    25  H   -0.043494   0.384288  -0.040450  -0.003610   0.000068  -0.000000
    26  H   -0.005177  -0.036956   0.381012  -0.039112  -0.003222  -0.000000
    27  H   -0.001424  -0.042571   0.386488  -0.038764  -0.003135   0.000023
    28  H    0.000030  -0.004039  -0.039626   0.386446  -0.038570  -0.000000
    29  H    0.000032  -0.003446  -0.039742   0.386244  -0.038594   0.000000
    30  H    0.000001   0.000062  -0.005100  -0.034039   0.388845   0.000001
    31  H    0.000001  -0.000152   0.004106  -0.026973   0.377862  -0.000000
    32  H    0.000001   0.000060  -0.004898  -0.034798   0.387057  -0.000000
              13         14         15         16         17         18
     1  O    0.268420   0.003378   0.001830   0.004929   0.000010   0.000021
     2  C   -0.009357  -0.032748  -0.025718  -0.008322   0.003687  -0.000873
     3  C    0.010837   0.376736   0.354454  -0.035097  -0.030651  -0.002603
     4  C   -0.000299  -0.031700  -0.022425   0.382564   0.378944  -0.040659
     5  C   -0.000069  -0.005740   0.004537  -0.037970  -0.041401   0.385368
     6  C    0.000000   0.000067  -0.000111  -0.003132  -0.004311  -0.039955
     7  C   -0.000000  -0.000001   0.000001   0.000040  -0.000039  -0.002962
     8  C   -0.000000   0.000000  -0.000000  -0.000010   0.000007  -0.001405
     9  C   -0.000000  -0.000001  -0.000000  -0.000001  -0.000004  -0.000178
    10  C    0.000000   0.000000   0.000000   0.000000   0.000000   0.000009
    11  C   -0.000000  -0.000000  -0.000000   0.000000  -0.000000   0.000000
    12  O    0.011421   0.001627   0.002070   0.000004  -0.000084   0.000022
    13  H    0.401195  -0.000325  -0.000483  -0.000187   0.000016  -0.000000
    14  H   -0.000325   0.587542  -0.032591   0.005181  -0.003805   0.004533
    15  H   -0.000483  -0.032591   0.602085  -0.002934  -0.005440  -0.000004
    16  H   -0.000187   0.005181  -0.002934   0.616073  -0.037451   0.005802
    17  H    0.000016  -0.003805  -0.005440  -0.037451   0.634916  -0.005609
    18  H   -0.000000   0.004533  -0.000004   0.005802  -0.005609   0.635751
    19  H    0.000062  -0.000306  -0.000003  -0.005724   0.006013  -0.042418
    20  H    0.000000   0.000004   0.000003   0.004449  -0.000524   0.006143
    21  H    0.000000   0.000003  -0.000003  -0.000507   0.006207  -0.004661
    22  H    0.000000   0.000000  -0.000000   0.000003  -0.000006   0.000009
    23  H    0.000000  -0.000001   0.000000   0.000006   0.000000   0.005027
    24  H    0.000000  -0.000000   0.000000  -0.000000   0.000000  -0.000011
    25  H    0.000000  -0.000000  -0.000000   0.000002   0.000001   0.000189
    26  H    0.000000  -0.000000  -0.000000   0.000000   0.000000   0.000096
    27  H   -0.000000   0.000003   0.000000   0.000004   0.000002   0.001841
    28  H    0.000000  -0.000000  -0.000000  -0.000000   0.000000   0.000001
    29  H   -0.000000  -0.000000   0.000000  -0.000000  -0.000000  -0.000000
    30  H    0.000000  -0.000000   0.000000  -0.000000  -0.000000  -0.000001
    31  H   -0.000000   0.000000   0.000000   0.000000   0.000000   0.000000
    32  H    0.000000  -0.000000   0.000000  -0.000000   0.000000   0.000000
              19         20         21         22         23         24
     1  O    0.000457  -0.000002  -0.000000  -0.000000  -0.000000  -0.000000
     2  C    0.006193  -0.000011   0.000002   0.000000   0.000000   0.000000
     3  C   -0.005221   0.000028   0.000078   0.000002  -0.000001  -0.000000
     4  C   -0.038099  -0.003567  -0.005876  -0.000131   0.000033   0.000001
     5  C    0.384250  -0.040002  -0.043015   0.005048  -0.007232   0.000059
     6  C   -0.035482   0.381503   0.379130  -0.032339  -0.036709   0.003957
     7  C   -0.004071  -0.036373  -0.034084   0.370253   0.383491  -0.032643
     8  C    0.004338  -0.007328   0.004830  -0.032553  -0.043540   0.378895
     9  C   -0.002698  -0.000105  -0.000117   0.004020  -0.008490  -0.038847
    10  C    0.000149   0.000009   0.000002  -0.000167   0.000215  -0.004635
    11  C   -0.000013  -0.000000  -0.000000   0.000002  -0.000003   0.000028
    12  O   -0.000103   0.000000  -0.000000   0.000000  -0.000000  -0.000000
    13  H    0.000062   0.000000   0.000000   0.000000   0.000000   0.000000
    14  H   -0.000306   0.000004   0.000003   0.000000  -0.000001  -0.000000
    15  H   -0.000003   0.000003  -0.000003  -0.000000   0.000000   0.000000
    16  H   -0.005724   0.004449  -0.000507   0.000003   0.000006  -0.000000
    17  H    0.006013  -0.000524   0.006207  -0.000006   0.000000   0.000000
    18  H   -0.042418   0.006143  -0.004661   0.000009   0.005027  -0.000011
    19  H    0.624334  -0.007184   0.006094  -0.000050  -0.000246  -0.000075
    20  H   -0.007184   0.645170  -0.040493  -0.004428   0.005898   0.000116
    21  H    0.006094  -0.040493   0.653400  -0.004093  -0.003945  -0.000221
    22  H   -0.000050  -0.004428  -0.004093   0.655256  -0.039763  -0.009927
    23  H   -0.000246   0.005898  -0.003945  -0.039763   0.642402   0.001257
    24  H   -0.000075   0.000116  -0.000221  -0.009927   0.001257   0.649518
    25  H    0.001259   0.004818   0.000192   0.001407   0.005481  -0.040639
    26  H    0.000062   0.000006   0.000014   0.000136   0.005045  -0.006735
    27  H    0.002033   0.000109  -0.000063  -0.000030   0.000396   0.006189
    28  H    0.000108  -0.000004   0.000000   0.000002   0.000011  -0.000595
    29  H   -0.000004   0.000000  -0.000000  -0.000001   0.000006   0.005289
    30  H   -0.000003   0.000000   0.000000   0.000000   0.000000   0.000007
    31  H    0.000000   0.000000   0.000000  -0.000000   0.000000   0.000003
    32  H    0.000000  -0.000000  -0.000000   0.000000  -0.000001  -0.000000
              25         26         27         28         29         30
     1  O    0.000000  -0.000000  -0.000001  -0.000000   0.000000  -0.000000
     2  C   -0.000001   0.000000   0.000028  -0.000000   0.000000   0.000000
     3  C    0.000002   0.000000  -0.000007   0.000000  -0.000000   0.000000
     4  C   -0.000079  -0.000005   0.000030  -0.000000   0.000000   0.000000
     5  C   -0.000824   0.000004   0.001423   0.000008  -0.000000  -0.000004
     6  C   -0.007466  -0.000020  -0.000038  -0.000001  -0.000003  -0.000000
     7  C   -0.043494  -0.005177  -0.001424   0.000030   0.000032   0.000001
     8  C    0.384288  -0.036956  -0.042571  -0.004039  -0.003446   0.000062
     9  C   -0.040450   0.381012   0.386488  -0.039626  -0.039742  -0.005100
    10  C   -0.003610  -0.039112  -0.038764   0.386446   0.386244  -0.034039
    11  C    0.000068  -0.003222  -0.003135  -0.038570  -0.038594   0.388845
    12  O   -0.000000  -0.000000   0.000023  -0.000000   0.000000   0.000001
    13  H    0.000000   0.000000  -0.000000   0.000000  -0.000000   0.000000
    14  H   -0.000000  -0.000000   0.000003  -0.000000  -0.000000  -0.000000
    15  H   -0.000000  -0.000000   0.000000  -0.000000   0.000000   0.000000
    16  H    0.000002   0.000000   0.000004  -0.000000  -0.000000  -0.000000
    17  H    0.000001   0.000000   0.000002   0.000000  -0.000000  -0.000000
    18  H    0.000189   0.000096   0.001841   0.000001  -0.000000  -0.000001
    19  H    0.001259   0.000062   0.002033   0.000108  -0.000004  -0.000003
    20  H    0.004818   0.000006   0.000109  -0.000004   0.000000   0.000000
    21  H    0.000192   0.000014  -0.000063   0.000000  -0.000000   0.000000
    22  H    0.001407   0.000136  -0.000030   0.000002  -0.000001   0.000000
    23  H    0.005481   0.005045   0.000396   0.000011   0.000006   0.000000
    24  H   -0.040639  -0.006735   0.006189  -0.000595   0.005289   0.000007
    25  H    0.645402   0.005971  -0.005223   0.005203  -0.000596   0.000001
    26  H    0.005971   0.647725  -0.041548   0.006144  -0.006274  -0.000488
    27  H   -0.005223  -0.041548   0.630161  -0.005997   0.006030   0.004860
    28  H    0.005203   0.006144  -0.005997   0.644390  -0.041661  -0.004982
    29  H   -0.000596  -0.006274   0.006030  -0.041661   0.644816   0.005433
    30  H    0.000001  -0.000488   0.004860  -0.004982   0.005433   0.602418
    31  H    0.000001  -0.000030  -0.000006  -0.003185  -0.003068  -0.032221
    32  H    0.000008   0.004811  -0.000533   0.005526  -0.005005  -0.033374
              31         32
     1  O   -0.000000   0.000000
     2  C    0.000000  -0.000000
     3  C   -0.000000   0.000000
     4  C   -0.000000   0.000000
     5  C   -0.000000   0.000000
     6  C    0.000000   0.000000
     7  C    0.000001   0.000001
     8  C   -0.000152   0.000060
     9  C    0.004106  -0.004898
    10  C   -0.026973  -0.034798
    11  C    0.377862   0.387057
    12  O   -0.000000  -0.000000
    13  H   -0.000000   0.000000
    14  H    0.000000  -0.000000
    15  H    0.000000   0.000000
    16  H    0.000000  -0.000000
    17  H    0.000000   0.000000
    18  H    0.000000   0.000000
    19  H    0.000000   0.000000
    20  H    0.000000  -0.000000
    21  H    0.000000  -0.000000
    22  H   -0.000000   0.000000
    23  H    0.000000  -0.000001
    24  H    0.000003  -0.000000
    25  H    0.000001   0.000008
    26  H   -0.000030   0.004811
    27  H   -0.000006  -0.000533
    28  H   -0.003185   0.005526
    29  H   -0.003068  -0.005005
    30  H   -0.032221  -0.033374
    31  H    0.619012  -0.032773
    32  H   -0.032773   0.612931
 Mulliken charges:
               1
     1  O   -0.466564
     2  C    0.552830
     3  C   -0.240388
     4  C   -0.192491
     5  C   -0.171577
     6  C   -0.178779
     7  C   -0.186217
     8  C   -0.176088
     9  C   -0.171032
    10  C   -0.175535
    11  C   -0.321280
    12  O   -0.469775
    13  H    0.318768
    14  H    0.128142
    15  H    0.124731
    16  H    0.112277
    17  H    0.099521
    18  H    0.096526
    19  H    0.106349
    20  H    0.091765
    21  H    0.087124
    22  H    0.087349
    23  H    0.090661
    24  H    0.089010
    25  H    0.088090
    26  H    0.088539
    27  H    0.099720
    28  H    0.090791
    29  H    0.090543
    30  H    0.108582
    31  H    0.097423
    32  H    0.100987
 Sum of Mulliken charges =  -0.00000
 Mulliken charges with hydrogens summed into heavy atoms:
               1
     1  O   -0.147796
     2  C    0.552830
     3  C    0.012485
     4  C    0.019307
     5  C    0.031298
     6  C    0.000111
     7  C   -0.008208
     8  C    0.001012
     9  C    0.017227
    10  C    0.005798
    11  C   -0.014288
    12  O   -0.469775
 Electronic spatial extent (au):  <R**2>=           3570.8739
 Charge=             -0.0000 electrons
 Dipole moment (field-independent basis, Debye):
    X=              0.3291    Y=              1.4370    Z=              0.9093  Tot=              1.7321
 Quadrupole moment (field-independent basis, Debye-Ang):
   XX=            -73.6380   YY=            -78.9707   ZZ=            -74.9561
   XY=              1.4470   XZ=              1.4381   YZ=             -5.7446
 Traceless Quadrupole moment (field-independent basis, Debye-Ang):
   XX=              2.2170   YY=             -3.1158   ZZ=              0.8988
   XY=              1.4470   XZ=              1.4381   YZ=             -5.7446
 Octapole moment (field-independent basis, Debye-Ang**2):
  XXX=             36.4043  YYY=             -4.0797  ZZZ=              6.3429  XYY=              7.2441
  XXY=             -2.3406  XXZ=              0.7713  XZZ=             11.6109  YZZ=             -8.6299
  YYZ=             16.1777  XYZ=            -13.9189
 Hexadecapole moment (field-independent basis, Debye-Ang**3):
 XXXX=          -3005.4508 YYYY=          -1391.8945 ZZZZ=           -270.8639 XXXY=            -52.4662
 XXXZ=              2.6655 YYYX=            -31.6407 YYYZ=            -41.7032 ZZZX=             24.5860
 ZZZY=            -18.4640 XXYY=           -734.2404 XXZZ=           -552.0015 YYZZ=           -261.4382
 XXYZ=            -40.8379 YYXZ=             37.6544 ZZXY=            -26.8024
 N-N= 7.168154844341D+02 E-N=-2.696954494526D+03  KE= 5.384980924719D+02
 Calling FoFJK, ICntrl=      2127 FMM=F ISym2X=0 I1Cent= 0 IOpClX= 0 NMat=1 NMatS=1 NMatT=0.
 ***** Axes restored to original set *****
 -------------------------------------------------------------------
 Center     Atomic                   Forces (Hartrees/Bohr)
 Number     Number              X              Y              Z
 -------------------------------------------------------------------
      1        8          -0.008959782   -0.002912984    0.006408370
      2        6          -0.021329383    0.010953659   -0.004718942
      3        6           0.001973875   -0.004290084   -0.003325060
      4        6           0.000842197    0.001226499   -0.004902704
      5        6           0.003720771   -0.003736182    0.006272456
      6        6          -0.003758038    0.006391746   -0.005503300
      7        6           0.008199650   -0.003457056    0.002351543
      8        6          -0.008248110    0.007516711    0.000208963
      9        6           0.008005749   -0.007830597   -0.002518384
     10        6          -0.005391710    0.007795293    0.001931047
     11        6           0.001999568   -0.004399238    0.001255833
     12        8           0.007249251   -0.012666177    0.010602520
     13        1           0.012828211    0.002823434   -0.010009312
     14        1           0.000030879    0.001108541   -0.004566868
     15        1           0.002724786   -0.001981257    0.005064400
     16        1           0.003242609   -0.000414026   -0.000966554
     17        1          -0.002833050    0.001583839    0.002464956
     18        1          -0.003028301    0.002578374   -0.000610202
     19        1           0.002562996    0.001479294   -0.003161585
     20        1           0.003921768   -0.002297472   -0.000589660
     21        1          -0.002843831    0.000276745    0.003841445
     22        1          -0.000585634   -0.003485851    0.001906529
     23        1          -0.002020060    0.004409030   -0.001062633
     24        1          -0.001182413   -0.002315122   -0.003004495
     25        1           0.004489053    0.000808550    0.001542882
     26        1          -0.004418707   -0.000387935   -0.000972296
     27        1           0.001867527    0.003144809    0.002630834
     28        1           0.003786406   -0.000809485    0.001859704
     29        1          -0.001558789   -0.003778861   -0.001521767
     30        1           0.000509123    0.002136836    0.002051168
     31        1           0.001453157    0.000187794   -0.002662111
     32        1          -0.003249768    0.000341174   -0.000296777
 -------------------------------------------------------------------
 Cartesian Forces:  Max     0.021329383 RMS     0.004947706

 GradGradGradGradGradGradGradGradGradGradGradGradGradGradGradGradGradGrad
 Berny optimization.
 FormGI is forming the generalized inverse of G from B-inverse, IUseBI=4.
 Internal  Forces:  Max     0.016935805 RMS     0.002921746
 Search for a local minimum.
 Step number   1 out of a maximum of  179
 All quantities printed in internal units (Hartrees-Bohrs-Radians)
 Mixed Optimization -- RFO/linear search
 Second derivative matrix not updated -- first step.
 ITU=  0
     Eigenvalues ---    0.00230   0.00230   0.00230   0.00230   0.00230
     Eigenvalues ---    0.00246   0.00261   0.00302   0.00414   0.00892
     Eigenvalues ---    0.02345   0.03090   0.03190   0.03222   0.03236
     Eigenvalues ---    0.03398   0.03404   0.03448   0.03704   0.04664
     Eigenvalues ---    0.04677   0.04681   0.04690   0.04723   0.04736
     Eigenvalues ---    0.04761   0.05163   0.05413   0.05462   0.08313
     Eigenvalues ---    0.08316   0.08318   0.08568   0.08576   0.08689
     Eigenvalues ---    0.08801   0.09760   0.12197   0.12206   0.12206
     Eigenvalues ---    0.12392   0.12404   0.12474   0.12569   0.13068
     Eigenvalues ---    0.16000   0.16000   0.16000   0.16000   0.21874
     Eigenvalues ---    0.21891   0.21895   0.21897   0.21909   0.21909
     Eigenvalues ---    0.21923   0.21959   0.24998   0.25000   0.27737
     Eigenvalues ---    0.28071   0.28161   0.28323   0.28339   0.28577
     Eigenvalues ---    0.28682   0.28962   0.29742   0.34523   0.34629
     Eigenvalues ---    0.34634   0.34635   0.34638   0.34642   0.34643
     Eigenvalues ---    0.34644   0.34648   0.34649   0.34649   0.34655
     Eigenvalues ---    0.34707   0.34741   0.34760   0.34764   0.34804
     Eigenvalues ---    0.34867   0.34876   0.54887   0.56026   0.94477
 RFO step:  Lambda=-5.35115350D-03 EMin= 2.30000000D-03
 Linear search not attempted -- first point.
 Iteration  1 RMS(Cart)=  0.13145837 RMS(Int)=  0.00192832
 Iteration  2 RMS(Cart)=  0.00470442 RMS(Int)=  0.00019160
 Iteration  3 RMS(Cart)=  0.00001026 RMS(Int)=  0.00019153
 Iteration  4 RMS(Cart)=  0.00000000 RMS(Int)=  0.00019153
 Variable       Old X    -DE/DX   Delta X   Delta X   Delta X     New X
                                 (Linear)    (Quad)   (Total)
    R1        2.55233   0.00263   0.00000   0.00474   0.00474   2.55707
    R2        1.80931   0.01609   0.00000   0.02844   0.02844   1.83776
    R3        2.88481  -0.00933   0.00000  -0.03082  -0.03082   2.85399
    R4        2.30936  -0.01694   0.00000  -0.01782  -0.01782   2.29153
    R5        2.92717  -0.00827   0.00000  -0.02924  -0.02924   2.89793
    R6        2.05994   0.00151   0.00000   0.00427   0.00427   2.06421
    R7        2.05877   0.00500   0.00000   0.01411   0.01411   2.07288
    R8        2.91437  -0.00650   0.00000  -0.02252  -0.02252   2.89185
    R9        2.06456   0.00252   0.00000   0.00719   0.00719   2.07174
   R10        2.06281   0.00349   0.00000   0.00993   0.00993   2.07274
   R11        2.90894  -0.00430   0.00000  -0.01476  -0.01476   2.89418
   R12        2.06271   0.00401   0.00000   0.01139   0.01139   2.07410
   R13        2.06059   0.00419   0.00000   0.01186   0.01186   2.07246
   R14        2.91787  -0.00481   0.00000  -0.01676  -0.01676   2.90111
   R15        2.06258   0.00438   0.00000   0.01244   0.01244   2.07502
   R16        2.06239   0.00471   0.00000   0.01338   0.01338   2.07577
   R17        2.91984  -0.00141   0.00000  -0.00492  -0.00492   2.91492
   R18        2.06260   0.00377   0.00000   0.01071   0.01071   2.07331
   R19        2.06266   0.00415   0.00000   0.01180   0.01180   2.07446
   R20        2.91403  -0.00427   0.00000  -0.01480  -0.01480   2.89923
   R21        2.06273   0.00383   0.00000   0.01090   0.01090   2.07363
   R22        2.06248   0.00447   0.00000   0.01271   0.01271   2.07519
   R23        2.90671  -0.00354   0.00000  -0.01211  -0.01211   2.89461
   R24        2.06257   0.00443   0.00000   0.01260   0.01260   2.07517
   R25        2.05892   0.00443   0.00000   0.01252   0.01252   2.07144
   R26        2.90083  -0.00172   0.00000  -0.00582  -0.00582   2.89502
   R27        2.06249   0.00417   0.00000   0.01186   0.01186   2.07435
   R28        2.06250   0.00423   0.00000   0.01203   0.01203   2.07453
   R29        2.06154   0.00293   0.00000   0.00831   0.00831   2.06985
   R30        2.06066   0.00302   0.00000   0.00854   0.00854   2.06920
   R31        2.06098   0.00323   0.00000   0.00914   0.00914   2.07012
    A1        1.81703   0.00675   0.00000   0.04080   0.04080   1.85783
    A2        1.96533  -0.00165   0.00000  -0.00618  -0.00685   1.95848
    A3        2.15288  -0.00629   0.00000  -0.02435  -0.02499   2.12789
    A4        2.16487   0.00796   0.00000   0.03144   0.03073   2.19561
    A5        2.00649  -0.00579   0.00000  -0.03460  -0.03491   1.97158
    A6        1.88793  -0.00097   0.00000  -0.02332  -0.02346   1.86447
    A7        1.86631   0.00362   0.00000   0.01957   0.01944   1.88575
    A8        1.92306   0.00333   0.00000   0.01516   0.01447   1.93754
    A9        1.92253  -0.00091   0.00000  -0.00790  -0.00792   1.91462
   A10        1.85024   0.00123   0.00000   0.03674   0.03676   1.88700
   A11        1.99275  -0.00433   0.00000  -0.02537  -0.02555   1.96720
   A12        1.91736   0.00067   0.00000  -0.00876  -0.00905   1.90831
   A13        1.89196   0.00040   0.00000   0.00013   0.00031   1.89227
   A14        1.91646   0.00103   0.00000  -0.00227  -0.00272   1.91373
   A15        1.90004   0.00223   0.00000   0.01813   0.01810   1.91814
   A16        1.83868   0.00038   0.00000   0.02243   0.02238   1.86105
   A17        1.97023  -0.00143   0.00000  -0.00625  -0.00624   1.96398
   A18        1.91091   0.00031   0.00000  -0.00156  -0.00156   1.90935
   A19        1.90452   0.00007   0.00000  -0.00045  -0.00044   1.90408
   A20        1.91286   0.00048   0.00000   0.00170   0.00168   1.91454
   A21        1.90358   0.00103   0.00000   0.00903   0.00902   1.91260
   A22        1.85836  -0.00040   0.00000  -0.00221  -0.00223   1.85613
   A23        2.00651  -0.00083   0.00000  -0.00614  -0.00621   2.00029
   A24        1.90901   0.00007   0.00000  -0.00722  -0.00734   1.90167
   A25        1.90211  -0.00015   0.00000   0.00220   0.00222   1.90433
   A26        1.90870  -0.00035   0.00000  -0.00937  -0.00947   1.89923
   A27        1.88688   0.00098   0.00000   0.01205   0.01208   1.89895
   A28        1.84353   0.00039   0.00000   0.01022   0.01026   1.85379
   A29        2.01565  -0.00135   0.00000  -0.01049  -0.01083   2.00482
   A30        1.87412  -0.00006   0.00000   0.00812   0.00818   1.88229
   A31        1.92080  -0.00004   0.00000  -0.01596  -0.01646   1.90435
   A32        1.88688   0.00166   0.00000   0.02353   0.02361   1.91049
   A33        1.92536  -0.00061   0.00000  -0.01824  -0.01870   1.90666
   A34        1.83077   0.00065   0.00000   0.01780   0.01800   1.84877
   A35        1.99375   0.00164   0.00000   0.00556   0.00542   1.99917
   A36        1.89416   0.00044   0.00000   0.01452   0.01447   1.90862
   A37        1.91941  -0.00088   0.00000  -0.01266  -0.01273   1.90668
   A38        1.88526  -0.00071   0.00000   0.00313   0.00300   1.88826
   A39        1.92534  -0.00127   0.00000  -0.01810  -0.01817   1.90717
   A40        1.83885   0.00077   0.00000   0.00892   0.00901   1.84786
   A41        1.96688   0.00180   0.00000   0.00708   0.00709   1.97397
   A42        1.90662  -0.00104   0.00000  -0.00791  -0.00791   1.89871
   A43        1.92875  -0.00067   0.00000  -0.00365  -0.00366   1.92509
   A44        1.90794  -0.00032   0.00000  -0.00073  -0.00072   1.90722
   A45        1.90382  -0.00056   0.00000  -0.00125  -0.00125   1.90258
   A46        1.84583   0.00072   0.00000   0.00644   0.00643   1.85226
   A47        1.96627   0.00101   0.00000   0.00453   0.00455   1.97082
   A48        1.91347  -0.00094   0.00000  -0.00858  -0.00860   1.90487
   A49        1.91546  -0.00093   0.00000  -0.00808  -0.00810   1.90736
   A50        1.90515   0.00026   0.00000   0.00503   0.00504   1.91019
   A51        1.90680   0.00029   0.00000   0.00570   0.00571   1.91251
   A52        1.85323   0.00028   0.00000   0.00129   0.00122   1.85445
   A53        1.94277  -0.00070   0.00000  -0.00518  -0.00521   1.93757
   A54        1.93765   0.00090   0.00000   0.00775   0.00776   1.94541
   A55        1.94380  -0.00069   0.00000  -0.00548  -0.00550   1.93830
   A56        1.87723   0.00018   0.00000   0.00359   0.00360   1.88083
   A57        1.88153   0.00023   0.00000  -0.00284  -0.00289   1.87864
   A58        1.87787   0.00010   0.00000   0.00241   0.00242   1.88029
    D1        3.13990  -0.00049   0.00000  -0.03209  -0.03115   3.10874
    D2       -0.01654   0.00056   0.00000   0.03452   0.03358   0.01704
    D3       -1.08741   0.00127   0.00000   0.05316   0.05383  -1.03358
    D4        3.03860   0.00173   0.00000   0.07578   0.07571   3.11431
    D5        1.05261  -0.00101   0.00000   0.03481   0.03508   1.08768
    D6        2.06914   0.00035   0.00000  -0.01343  -0.01334   2.05580
    D7       -0.08804   0.00081   0.00000   0.00919   0.00854  -0.07950
    D8       -2.07403  -0.00193   0.00000  -0.03178  -0.03209  -2.10612
    D9       -1.11162   0.00166   0.00000   0.04848   0.04855  -1.06307
   D10        1.04993   0.00036   0.00000   0.01995   0.02018   1.07012
   D11        3.05057   0.00139   0.00000   0.04202   0.04212   3.09269
   D12        1.02678  -0.00124   0.00000   0.00416   0.00401   1.03080
   D13       -3.09485  -0.00255   0.00000  -0.02437  -0.02436  -3.11920
   D14       -1.09421  -0.00151   0.00000  -0.00229  -0.00242  -1.09663
   D15        3.06204   0.00170   0.00000   0.05330   0.05319   3.11523
   D16       -1.05959   0.00040   0.00000   0.02477   0.02482  -1.03477
   D17        0.94105   0.00143   0.00000   0.04684   0.04675   0.98780
   D18       -3.10477  -0.00015   0.00000  -0.01849  -0.01840  -3.12318
   D19       -0.96877  -0.00030   0.00000  -0.02172  -0.02163  -0.99040
   D20        1.05885  -0.00057   0.00000  -0.02551  -0.02542   1.03343
   D21        1.01637   0.00134   0.00000   0.01351   0.01351   1.02988
   D22       -3.13081   0.00120   0.00000   0.01028   0.01028  -3.12053
   D23       -1.10319   0.00093   0.00000   0.00649   0.00649  -1.09671
   D24       -0.98824  -0.00092   0.00000  -0.02210  -0.02219  -1.01043
   D25        1.14776  -0.00106   0.00000  -0.02533  -0.02541   1.12235
   D26       -3.10781  -0.00133   0.00000  -0.02912  -0.02920  -3.13701
   D27        3.02217   0.00067   0.00000   0.03171   0.03169   3.05386
   D28       -1.10619  -0.00035   0.00000   0.00914   0.00917  -1.09702
   D29        0.90131   0.00008   0.00000   0.01860   0.01860   0.91991
   D30        0.88726   0.00091   0.00000   0.03678   0.03676   0.92403
   D31        3.04208  -0.00011   0.00000   0.01421   0.01424   3.05632
   D32       -1.23360   0.00032   0.00000   0.02367   0.02367  -1.20993
   D33       -1.14092   0.00054   0.00000   0.03336   0.03333  -1.10758
   D34        1.01390  -0.00047   0.00000   0.01080   0.01081   1.02472
   D35        3.02140  -0.00005   0.00000   0.02025   0.02024   3.04165
   D36        1.09583  -0.00135   0.00000  -0.04067  -0.04057   1.05527
   D37       -3.08133  -0.00013   0.00000  -0.01126  -0.01122  -3.09255
   D38       -1.09795   0.00058   0.00000   0.00603   0.00596  -1.09199
   D39       -1.05915  -0.00056   0.00000  -0.01926  -0.01920  -1.07836
   D40        1.04687   0.00066   0.00000   0.01016   0.01014   1.05701
   D41        3.03025   0.00138   0.00000   0.02745   0.02732   3.05757
   D42       -3.05823  -0.00137   0.00000  -0.03290  -0.03281  -3.09104
   D43       -0.95221  -0.00015   0.00000  -0.00349  -0.00347  -0.95567
   D44        1.03118   0.00057   0.00000   0.01380   0.01371   1.04489
   D45       -1.63870   0.00143   0.00000   0.06873   0.06866  -1.57004
   D46        2.54014   0.00094   0.00000   0.05062   0.05048   2.59063
   D47        0.53699   0.00026   0.00000   0.03873   0.03866   0.57566
   D48        2.54540   0.00115   0.00000   0.04767   0.04766   2.59307
   D49        0.44106   0.00067   0.00000   0.02957   0.02949   0.47055
   D50       -1.56209  -0.00002   0.00000   0.01767   0.01766  -1.54442
   D51        0.55274  -0.00022   0.00000   0.02309   0.02324   0.57597
   D52       -1.55160  -0.00071   0.00000   0.00499   0.00506  -1.54654
   D53        2.72843  -0.00139   0.00000  -0.00691  -0.00676   2.72167
   D54        3.12528  -0.00068   0.00000  -0.01424  -0.01422   3.11106
   D55       -1.03354  -0.00061   0.00000  -0.01604  -0.01603  -1.04957
   D56        0.99028  -0.00073   0.00000  -0.01496  -0.01494   0.97534
   D57       -1.04862   0.00043   0.00000   0.01010   0.01011  -1.03851
   D58        1.07574   0.00050   0.00000   0.00831   0.00831   1.08405
   D59        3.09956   0.00038   0.00000   0.00939   0.00940   3.10896
   D60        0.95275   0.00028   0.00000   0.01290   0.01288   0.96562
   D61        3.07711   0.00035   0.00000   0.01111   0.01107   3.08819
   D62       -1.18226   0.00023   0.00000   0.01219   0.01217  -1.17009
   D63       -3.14155  -0.00012   0.00000  -0.00506  -0.00506   3.13658
   D64       -1.01629   0.00023   0.00000  -0.00166  -0.00168  -1.01797
   D65        1.01284  -0.00051   0.00000  -0.00968  -0.00966   1.00318
   D66        1.01802   0.00023   0.00000   0.00080   0.00080   1.01882
   D67       -3.13991   0.00057   0.00000   0.00420   0.00417  -3.13573
   D68       -1.11078  -0.00017   0.00000  -0.00383  -0.00381  -1.11458
   D69       -0.99258  -0.00015   0.00000  -0.00580  -0.00580  -0.99837
   D70        1.13268   0.00020   0.00000  -0.00240  -0.00242   1.13026
   D71       -3.12138  -0.00054   0.00000  -0.01042  -0.01040  -3.13177
   D72        1.04957  -0.00035   0.00000  -0.00606  -0.00605   1.04352
   D73        3.14027   0.00002   0.00000   0.00021   0.00021   3.14049
   D74       -1.05073   0.00029   0.00000   0.00482   0.00480  -1.04593
   D75       -1.08039  -0.00002   0.00000  -0.00174  -0.00173  -1.08212
   D76        1.01031   0.00036   0.00000   0.00453   0.00454   1.01484
   D77        3.10249   0.00063   0.00000   0.00913   0.00912   3.11162
   D78       -3.09993  -0.00065   0.00000  -0.00924  -0.00923  -3.10915
   D79       -1.00923  -0.00028   0.00000  -0.00296  -0.00296  -1.01219
   D80        1.08296  -0.00000   0.00000   0.00164   0.00162   1.08458
         Item               Value     Threshold  Converged?
 Maximum Force            0.016936     0.000450     NO 
 RMS     Force            0.002922     0.000300     NO 
 Maximum Displacement     0.629431     0.001800     NO 
 RMS     Displacement     0.132614     0.001200     NO 
 Predicted change in Energy=-2.858238D-03
 GradGradGradGradGradGradGradGradGradGradGradGradGradGradGradGradGradGrad

                          Input orientation:                          
 ---------------------------------------------------------------------
 Center     Atomic      Atomic             Coordinates (Angstroms)
 Number     Number       Type             X           Y           Z
 ---------------------------------------------------------------------
      1          8           0        5.689348   -1.000236   -0.726638
      2          6           0        4.569163   -0.263108   -0.907823
      3          6           0        3.535680   -0.522487    0.162475
      4          6           0        3.094752   -1.989903    0.225324
      5          6           0        2.452243   -2.470129   -1.077898
      6          6           0        1.990194   -3.928318   -1.001798
      7          6           0        1.229911   -4.423474   -2.240197
      8          6           0        2.031167   -4.370967   -3.557226
      9          6           0        1.897200   -3.053926   -4.332631
     10          6           0        2.738930   -3.021462   -5.611976
     11          6           0        2.596677   -1.707401   -6.386548
     12          8           0        4.430610    0.467931   -1.865345
     13          1           0        6.279177   -0.792358   -1.471381
     14          1           0        2.687951    0.132412   -0.051201
     15          1           0        3.963208   -0.223212    1.127301
     16          1           0        3.960348   -2.619198    0.463336
     17          1           0        2.386325   -2.103684    1.054939
     18          1           0        1.599509   -1.824245   -1.323531
     19          1           0        3.172624   -2.355036   -1.896767
     20          1           0        2.865443   -4.572016   -0.842687
     21          1           0        1.350099   -4.057103   -0.118460
     22          1           0        0.909704   -5.455102   -2.047979
     23          1           0        0.308174   -3.838197   -2.353881
     24          1           0        1.707140   -5.188991   -4.212928
     25          1           0        3.091683   -4.559466   -3.343461
     26          1           0        0.840651   -2.900850   -4.589858
     27          1           0        2.181442   -2.207585   -3.696649
     28          1           0        3.793693   -3.180659   -5.352992
     29          1           0        2.450741   -3.861741   -6.256980
     30          1           0        2.910051   -0.854797   -5.774517
     31          1           0        3.208324   -1.709430   -7.294763
     32          1           0        1.556539   -1.537164   -6.685160
 ---------------------------------------------------------------------
                    Distance matrix (angstroms):
                    1          2          3          4          5
     1  O    0.000000
     2  C    1.353145   0.000000
     3  C    2.378456   1.510266   0.000000
     4  C    2.935575   2.537663   1.533518   0.000000
     5  C    3.572509   3.062878   2.550622   1.530301   0.000000
     6  C    4.725793   4.482597   3.917109   2.546238   1.531533
     7  C    5.822028   5.498589   5.129046   3.934298   2.580812
     8  C    5.723316   5.507746   5.559725   4.594384   3.152389
     9  C    5.621496   5.163077   5.412835   4.831276   3.352936
[...]
 Alpha virt. eigenvalues --    4.08558   4.11618   4.14387   4.16847   4.19315
 Alpha virt. eigenvalues --    4.19894   4.25905   4.29613   4.31069   4.33142
 Alpha virt. eigenvalues --    4.36953   4.38160   4.39118   4.42993   4.47220
 Alpha virt. eigenvalues --    4.48099   4.49341   4.52394   4.53374   4.53996
 Alpha virt. eigenvalues --    4.57225   4.58020   4.58677   4.62198   4.62718
 Alpha virt. eigenvalues --    4.64711   4.65617   4.65933   4.72281   4.74456
 Alpha virt. eigenvalues --    4.76109   4.78551   4.81196   4.83592   4.98636
 Alpha virt. eigenvalues --    5.03949   5.06061   5.09529   5.17115   5.20856
 Alpha virt. eigenvalues --    5.22623   5.39525   5.40068   5.51090   5.59369
 Alpha virt. eigenvalues --    5.73415   5.84688   5.87374   6.15786   6.19139
 Alpha virt. eigenvalues --    6.33069   6.34052   6.45788   6.47978   6.63838
 Alpha virt. eigenvalues --    6.69175   6.73737   6.82632   6.88184   7.07145
 Alpha virt. eigenvalues --    7.07297   7.27945  22.41441  22.46688  22.52559
 Alpha virt. eigenvalues --   22.57424  22.58197  22.59815  22.62449  22.63672
 Alpha virt. eigenvalues --   22.67661  23.27710  43.96342  44.02245
          Condensed to atoms (all electrons):
               1          2          3          4          5          6
     1  O    7.972482   0.335667  -0.108167   0.001056   0.003014  -0.001159
     2  C    0.335667   4.536349   0.266329  -0.039499   0.019681   0.000853
     3  C   -0.108167   0.266329   5.253406   0.232782  -0.069691   0.011761
     4  C    0.001056  -0.039499   0.232782   5.218946   0.204040  -0.045092
     5  C    0.003014   0.019681  -0.069691   0.204040   5.402694   0.183458
     6  C   -0.001159   0.000853   0.011761  -0.045092   0.183458   5.229271
     7  C    0.000069   0.000027  -0.000988   0.010065  -0.043137   0.246048
     8  C   -0.000067   0.000080   0.000095  -0.001753   0.015303  -0.027690
     9  C    0.000066  -0.000149   0.000015   0.001671   0.004325  -0.005501
    10  C   -0.000018   0.000029   0.000008  -0.000086   0.000570  -0.000764
    11  C    0.000003  -0.000017  -0.000014   0.000003  -0.000042   0.000027
    12  O   -0.093514   0.661567  -0.087947  -0.000722   0.003598   0.000619
    13  H    0.286575  -0.021671   0.015698  -0.001508  -0.000062  -0.000026
    14  H    0.004523  -0.056061   0.437099  -0.031384  -0.004524   0.000191
    15  H    0.003906  -0.020721   0.407433  -0.053882   0.012571  -0.000441
    16  H    0.004686  -0.010885  -0.025944   0.435812  -0.058045  -0.002089
    17  H   -0.000156   0.007584  -0.040914   0.433377  -0.045776  -0.005380
    18  H    0.000367  -0.004453   0.004637  -0.038735   0.414676  -0.047386
    19  H   -0.000663   0.006637  -0.011775  -0.028950   0.418136  -0.039582
    20  H    0.000072   0.000144  -0.000401  -0.004118  -0.059426   0.438101
    21  H    0.000006  -0.000103  -0.000009  -0.005944  -0.048676   0.437814
    22  H   -0.000000  -0.000003   0.000041  -0.000650   0.011737  -0.057251
    23  H   -0.000001   0.000034  -0.000022  -0.000665  -0.011093  -0.039986
    24  H    0.000000  -0.000000  -0.000006   0.000085   0.000289   0.004292
    25  H    0.000034   0.000035   0.000028  -0.000460  -0.009830   0.008643
    26  H   -0.000000   0.000013  -0.000003  -0.000060  -0.001800   0.002219
    27  H   -0.000067   0.000139  -0.000217   0.001612  -0.001349  -0.000772
    28  H    0.000003   0.000046  -0.000006   0.000001   0.000243  -0.000061
    29  H    0.000000  -0.000000   0.000000   0.000002  -0.000037  -0.000007
    30  H   -0.000004   0.000065   0.000018  -0.000011  -0.000020   0.000019
    31  H   -0.000000   0.000000   0.000000  -0.000000  -0.000001  -0.000000
    32  H   -0.000000   0.000001   0.000000   0.000001   0.000022  -0.000005
               7          8          9         10         11         12
     1  O    0.000069  -0.000067   0.000066  -0.000018   0.000003  -0.093514
     2  C    0.000027   0.000080  -0.000149   0.000029  -0.000017   0.661567
     3  C   -0.000988   0.000095   0.000015   0.000008  -0.000014  -0.087947
     4  C    0.010065  -0.001753   0.001671  -0.000086   0.000003  -0.000722
     5  C   -0.043137   0.015303   0.004325   0.000570  -0.000042   0.003598
     6  C    0.246048  -0.027690  -0.005501  -0.000764   0.000027   0.000619
     7  C    5.170653   0.187770  -0.021024   0.008859  -0.000679  -0.000011
     8  C    0.187770   5.322453   0.186307  -0.041938   0.011459   0.000022
     9  C   -0.021024   0.186307   5.327435   0.232249  -0.051944  -0.000547
    10  C    0.008859  -0.041938   0.232249   5.127240   0.265619   0.000087
    11  C   -0.000679   0.011459  -0.051944   0.265619   5.039973  -0.000185
    12  O   -0.000011   0.000022  -0.000547   0.000087  -0.000185   7.832017
    13  H   -0.000001  -0.000011   0.000020  -0.000001  -0.000004   0.006803
    14  H   -0.000037   0.000040  -0.000043   0.000003   0.000000   0.006419
    15  H    0.000032  -0.000005  -0.000000  -0.000000   0.000000   0.003306
    16  H   -0.000049  -0.000025   0.000006   0.000003   0.000000   0.000148
    17  H   -0.000401   0.000043  -0.000064   0.000002  -0.000000  -0.000384
    18  H    0.008554  -0.006533   0.000727   0.000021   0.000045  -0.000174
    19  H   -0.014868   0.016419  -0.015205   0.001162  -0.000273  -0.003126
    20  H   -0.032714  -0.015911   0.002635  -0.000121   0.000010  -0.000017
    21  H   -0.048784   0.011420  -0.001050   0.000073  -0.000003  -0.000006
    22  H    0.441732  -0.044286   0.005475  -0.000443   0.000019   0.000000
    23  H    0.440100  -0.063698  -0.003240  -0.000268   0.000051  -0.000001
    24  H   -0.034342   0.423770  -0.039555  -0.005900  -0.000123  -0.000000
    25  H   -0.053194   0.428014  -0.055367  -0.002493  -0.000098  -0.000010
    26  H   -0.006181  -0.038817   0.413764  -0.029762  -0.005542   0.000008
    27  H    0.000382  -0.050849   0.437251  -0.049436  -0.001698   0.001518
    28  H   -0.000187  -0.004489  -0.046802   0.426834  -0.040068   0.000011
    29  H   -0.000272  -0.004411  -0.051979   0.429426  -0.037278   0.000000
    30  H   -0.000046  -0.000251  -0.008299  -0.039408   0.417661   0.000366
    31  H    0.000039  -0.000898   0.013208  -0.052502   0.421683   0.000002
    32  H   -0.000035  -0.000086  -0.005109  -0.041387   0.411661   0.000002
              13         14         15         16         17         18
     1  O    0.286575   0.004523   0.003906   0.004686  -0.000156   0.000367
     2  C   -0.021671  -0.056061  -0.020721  -0.010885   0.007584  -0.004453
     3  C    0.015698   0.437099   0.407433  -0.025944  -0.040914   0.004637
     4  C   -0.001508  -0.031384  -0.053882   0.435812   0.433377  -0.038735
     5  C   -0.000062  -0.004524   0.012571  -0.058045  -0.045776   0.414676
     6  C   -0.000026   0.000191  -0.000441  -0.002089  -0.005380  -0.047386
     7  C   -0.000001  -0.000037   0.000032  -0.000049  -0.000401   0.008554
     8  C   -0.000011   0.000040  -0.000005  -0.000025   0.000043  -0.006533
     9  C    0.000020  -0.000043  -0.000000   0.000006  -0.000064   0.000727
    10  C   -0.000001   0.000003  -0.000000   0.000003   0.000002   0.000021
    11  C   -0.000004   0.000000   0.000000   0.000000  -0.000000   0.000045
    12  O    0.006803   0.006419   0.003306   0.000148  -0.000384  -0.000174
    13  H    0.380212  -0.000732  -0.000835  -0.000295   0.000063   0.000019
    14  H   -0.000732   0.492997  -0.015358   0.004629  -0.004090  -0.000102
    15  H   -0.000835  -0.015358   0.506852  -0.002554  -0.005747   0.000142
    16  H   -0.000295   0.004629  -0.002554   0.504767  -0.021039   0.005784
    17  H    0.000063  -0.004090  -0.005747  -0.021039   0.529316  -0.003830
    18  H    0.000019  -0.000102   0.000142   0.005784  -0.003830   0.530029
    19  H   -0.000077   0.001095  -0.000520  -0.002070   0.005881  -0.027177
    20  H    0.000011  -0.000038   0.000001   0.001771   0.000686   0.006350
    21  H   -0.000000   0.000083  -0.000027   0.000474   0.002509  -0.002350
    22  H    0.000000  -0.000001  -0.000000   0.000016  -0.000043   0.000199
    23  H    0.000000  -0.000005  -0.000001  -0.000023   0.000133   0.001463
    24  H   -0.000000   0.000000   0.000000  -0.000007   0.000001  -0.000214
    25  H    0.000004  -0.000002  -0.000001   0.000055   0.000003   0.001025
    26  H    0.000000   0.000000  -0.000000   0.000002   0.000001   0.000581
    27  H   -0.000034   0.000094   0.000017  -0.000054  -0.000053  -0.005753
    28  H    0.000009  -0.000000  -0.000000   0.000002   0.000000   0.000042
    29  H    0.000000  -0.000000   0.000000  -0.000000   0.000000  -0.000016
    30  H    0.000005  -0.000000  -0.000000   0.000000   0.000000   0.000007
    31  H    0.000000   0.000000  -0.000000   0.000000   0.000000  -0.000000
    32  H    0.000000   0.000000  -0.000000  -0.000000  -0.000000   0.000001
              19         20         21         22         23         24
     1  O   -0.000663   0.000072   0.000006  -0.000000  -0.000001   0.000000
     2  C    0.006637   0.000144  -0.000103  -0.000003   0.000034  -0.000000
     3  C   -0.011775  -0.000401  -0.000009   0.000041  -0.000022  -0.000006
     4  C   -0.028950  -0.004118  -0.005944  -0.000650  -0.000665   0.000085
     5  C    0.418136  -0.059426  -0.048676   0.011737  -0.011093   0.000289
     6  C   -0.039582   0.438101   0.437814  -0.057251  -0.039986   0.004292
     7  C   -0.014868  -0.032714  -0.048784   0.441732   0.440100  -0.034342
     8  C    0.016419  -0.015911   0.011420  -0.044286  -0.063698   0.423770
     9  C   -0.015205   0.002635  -0.001050   0.005475  -0.003240  -0.039555
    10  C    0.001162  -0.000121   0.000073  -0.000443  -0.000268  -0.005900
    11  C   -0.000273   0.000010  -0.000003   0.000019   0.000051  -0.000123
    12  O   -0.003126  -0.000017  -0.000006   0.000000  -0.000001  -0.000000
    13  H   -0.000077   0.000011  -0.000000   0.000000   0.000000  -0.000000
    14  H    0.001095  -0.000038   0.000083  -0.000001  -0.000005   0.000000
    15  H   -0.000520   0.000001  -0.000027  -0.000000  -0.000001   0.000000
    16  H   -0.002070   0.001771   0.000474   0.000016  -0.000023  -0.000007
    17  H    0.005881   0.000686   0.002509  -0.000043   0.000133   0.000001
    18  H   -0.027177   0.006350  -0.002350   0.000199   0.001463  -0.000214
    19  H    0.537949  -0.002644   0.006204  -0.000544   0.001387   0.000303
    20  H   -0.002644   0.529364  -0.021853  -0.003266   0.006002  -0.000175
    21  H    0.006204  -0.021853   0.539161  -0.006657  -0.002349  -0.000185
    22  H   -0.000544  -0.003266  -0.006657   0.538971  -0.020252  -0.011202
    23  H    0.001387   0.006002  -0.002349  -0.020252   0.530608   0.001180
    24  H    0.000303  -0.000175  -0.000185  -0.011202   0.001180   0.536837
    25  H   -0.000828   0.003055   0.000017   0.002602   0.006543  -0.023571
    26  H    0.000592   0.000005  -0.000049   0.000500   0.001944  -0.005168
    27  H   -0.007204  -0.000195  -0.000029  -0.000265   0.000860   0.005525
    28  H   -0.000034   0.000029  -0.000005  -0.000007  -0.000016   0.000754
    29  H    0.000021  -0.000005   0.000002  -0.000007   0.000054   0.001838
    30  H   -0.000023  -0.000001   0.000000   0.000001   0.000003  -0.000050
    31  H    0.000006  -0.000000   0.000000  -0.000001   0.000001   0.000003
    32  H    0.000007   0.000000  -0.000000  -0.000001  -0.000015   0.000140
              25         26         27         28         29         30
     1  O    0.000034  -0.000000  -0.000067   0.000003   0.000000  -0.000004
     2  C    0.000035   0.000013   0.000139   0.000046  -0.000000   0.000065
     3  C    0.000028  -0.000003  -0.000217  -0.000006   0.000000   0.000018
     4  C   -0.000460  -0.000060   0.001612   0.000001   0.000002  -0.000011
     5  C   -0.009830  -0.001800  -0.001349   0.000243  -0.000037  -0.000020
     6  C    0.008643   0.002219  -0.000772  -0.000061  -0.000007   0.000019
     7  C   -0.053194  -0.006181   0.000382  -0.000187  -0.000272  -0.000046
     8  C    0.428014  -0.038817  -0.050849  -0.004489  -0.004411  -0.000251
     9  C   -0.055367   0.413764   0.437251  -0.046802  -0.051979  -0.008299
    10  C   -0.002493  -0.029762  -0.049436   0.426834   0.429426  -0.039408
    11  C   -0.000098  -0.005542  -0.001698  -0.040068  -0.037278   0.417661
    12  O   -0.000010   0.000008   0.001518   0.000011   0.000000   0.000366
    13  H    0.000004   0.000000  -0.000034   0.000009   0.000000   0.000005
    14  H   -0.000002   0.000000   0.000094  -0.000000  -0.000000  -0.000000
    15  H   -0.000001  -0.000000   0.000017  -0.000000   0.000000  -0.000000
    16  H    0.000055   0.000002  -0.000054   0.000002  -0.000000   0.000000
    17  H    0.000003   0.000001  -0.000053   0.000000   0.000000   0.000000
    18  H    0.001025   0.000581  -0.005753   0.000042  -0.000016   0.000007
    19  H   -0.000828   0.000592  -0.007204  -0.000034   0.000021  -0.000023
    20  H    0.003055   0.000005  -0.000195   0.000029  -0.000005  -0.000001
    21  H    0.000017  -0.000049  -0.000029  -0.000005   0.000002   0.000000
    22  H    0.002602   0.000500  -0.000265  -0.000007  -0.000007   0.000001
    23  H    0.006543   0.001944   0.000860  -0.000016   0.000054   0.000003
    24  H   -0.023571  -0.005168   0.005525   0.000754   0.001838  -0.000050
    25  H    0.538828   0.006682  -0.001615   0.002017   0.000285   0.000102
    26  H    0.006682   0.546414  -0.031525   0.007114  -0.005526   0.000712
    27  H   -0.001615  -0.031525   0.544207  -0.006568   0.007923   0.002463
    28  H    0.002017   0.007114  -0.006568   0.571569  -0.034286  -0.004881
    29  H    0.000285  -0.005526   0.007923  -0.034286   0.568710   0.006967
    30  H    0.000102   0.000712   0.002463  -0.004881   0.006967   0.530870
    31  H    0.000007  -0.000066   0.000012  -0.004397  -0.004151  -0.024179
    32  H   -0.000056   0.002109  -0.000394   0.007650  -0.005673  -0.029986
              31         32
     1  O   -0.000000  -0.000000
     2  C    0.000000   0.000001
     3  C    0.000000   0.000000
     4  C   -0.000000   0.000001
     5  C   -0.000001   0.000022
     6  C   -0.000000  -0.000005
     7  C    0.000039  -0.000035
     8  C   -0.000898  -0.000086
     9  C    0.013208  -0.005109
    10  C   -0.052502  -0.041387
    11  C    0.421683   0.411661
    12  O    0.000002   0.000002
    13  H    0.000000   0.000000
    14  H    0.000000   0.000000
    15  H   -0.000000  -0.000000
    16  H    0.000000  -0.000000
    17  H    0.000000  -0.000000
    18  H   -0.000000   0.000001
    19  H    0.000006   0.000007
    20  H   -0.000000   0.000000
    21  H    0.000000  -0.000000
    22  H   -0.000001  -0.000001
    23  H    0.000001  -0.000015
    24  H    0.000003   0.000140
    25  H    0.000007  -0.000056
    26  H   -0.000066   0.002109
    27  H    0.000012  -0.000394
    28  H   -0.004397   0.007650
    29  H   -0.004151  -0.005673
    30  H   -0.024179  -0.029986
    31  H    0.537877  -0.025540
    32  H   -0.025540   0.553582
 Mulliken charges:
               1
     1  O   -0.408710
     2  C    0.318282
     3  C   -0.283247
     4  C   -0.285933
     5  C   -0.340849
     6  C   -0.290125
     7  C   -0.257380
     8  C   -0.301479
     9  C   -0.319277
    10  C   -0.227658
    11  C   -0.430246
    12  O   -0.329847
    13  H    0.335838
    14  H    0.165204
    15  H    0.165831
    16  H    0.164925
    17  H    0.148279
    18  H    0.162055
    19  H    0.159764
    20  H    0.152648
    21  H    0.140318
    22  H    0.143585
    23  H    0.151274
    24  H    0.145481
    25  H    0.149548
    26  H    0.141838
    27  H    0.156071
    28  H    0.125483
    29  H    0.128420
    30  H    0.147898
    31  H    0.138897
    32  H    0.133113
 Sum of Mulliken charges =  -0.00000
 Mulliken charges with hydrogens summed into heavy atoms:
               1
     1  O   -0.072872
     2  C    0.318282
     3  C    0.047788
     4  C    0.027271
     5  C   -0.019030
     6  C    0.002841
     7  C    0.037479
     8  C   -0.006451
     9  C   -0.021369
    10  C    0.026245
    11  C   -0.010338
    12  O   -0.329847
 Electronic spatial extent (au):  <R**2>=           3341.1863
 Charge=              0.0000 electrons
 Dipole moment (field-independent basis, Debye):
    X=              0.5635    Y=              1.5532    Z=              0.8137  Tot=              1.8418
 Quadrupole moment (field-independent basis, Debye-Ang):
   XX=            -74.4453   YY=            -80.1774   ZZ=            -76.6367
   XY=              1.3680   XZ=              0.0571   YZ=             -5.8249
 Traceless Quadrupole moment (field-independent basis, Debye-Ang):
   XX=              2.6412   YY=             -3.0909   ZZ=              0.4498
   XY=              1.3680   XZ=              0.0571   YZ=             -5.8249
 Octapole moment (field-independent basis, Debye-Ang**2):
  XXX=             32.9749  YYY=             -4.5232  ZZZ=              6.0305  XYY=              7.0924
  XXY=             -0.5785  XXZ=             -5.1508  XZZ=              9.9163  YZZ=             -8.2225
  YYZ=             16.9045  XYZ=            -10.3148
 Hexadecapole moment (field-independent basis, Debye-Ang**3):
 XXXX=          -2769.8618 YYYY=          -1418.4104 ZZZZ=           -282.5918 XXXY=            -37.6443
 XXXZ=            -17.9720 YYYX=            -33.5868 YYYZ=            -47.7919 ZZZX=             20.1600
 ZZZY=            -21.7127 XXYY=           -701.0558 XXZZ=           -524.0006 YYZZ=           -268.0092
 XXYZ=            -24.1299 YYXZ=             27.1626 ZZXY=            -21.4288
 N-N= 7.284066340432D+02 E-N=-2.721750368631D+03  KE= 5.405756307724D+02
 Unable to Open any file for archive entry.
 1\1\GINC-NOTCH075\SP\RM062X\def2TZVP\C10H20O2\U6032257\03-Feb-2022\0\\
 # M062X/def2tzvp int=(grid=ultrafine) nmr=giao guess=read geom=check\\
 Ac1.xyz\\0,1\O,0,5.7108023269,-0.9597576792,-0.722280002\C,0,4.5451668
 112,-0.2887479821,-0.9154170118\C,0,3.5680480257,-0.534501845,0.209748
 6101\C,0,3.1072833076,-2.0037175029,0.258083293\C,0,2.4481986984,-2.46
 22220495,-1.045055503\C,0,1.9681485154,-3.9144219611,-0.9946897864\C,0
 ,1.2258783257,-4.4003501673,-2.2489401817\C,0,2.0432028392,-4.34637378
 67,-3.555578614\C,0,1.889925984,-3.0490394555,-4.3597621898\C,0,2.7511
 195796,-3.0207020307,-5.6252553579\C,0,2.5889022429,-1.7285928931,-6.4
 28348726\O,0,4.3465387747,0.3892590067,-1.8991983042\H,0,6.2601122627,
 -0.7665839403,-1.5005638065\H,0,2.7189806162,0.133461175,0.0481540458\
 H,0,4.0499081493,-0.2646496287,1.1555906999\H,0,3.9694489748,-2.642083
 5614,0.4818488164\H,0,2.4040817868,-2.1182567965,1.0916610496\H,0,1.60
 33692606,-1.8002636185,-1.2792521655\H,0,3.1637381949,-2.3420529966,-1
 .8662661458\H,0,2.8341688372,-4.5679821066,-0.8188209191\H,0,1.3105552
 802,-4.0423740867,-0.1241161641\H,0,0.9063152054,-5.4331400188,-2.0661
 303461\H,0,0.3026443534,-3.8181641192,-2.3750292258\H,0,1.7458516115,-
 5.1814369502,-4.2026177942\H,0,3.105634786,-4.5130319749,-3.3268097826
 \H,0,0.8333788325,-2.9258139633,-4.6365899671\H,0,2.140289202,-2.18052
 95862,-3.7401188991\H,0,3.8055032321,-3.1482916622,-5.3448068295\H,0,2
 .4988803402,-3.8838330997,-6.2561576578\H,0,2.8678997808,-0.8558140016
 ,-5.8278126746\H,0,3.2151548609,-1.7309555833,-7.3261654761\H,0,1.5495
 690011,-1.5909351341,-6.7472029841\\Version=ES64L-G16RevC.01\State=1-A
 \HF=-543.5405472\RMSD=2.219e-09\Dipole=0.0456455,-0.5110884,0.5116267\
 Quadrupole=2.9145657,-4.6993142,1.7847484,0.0298588,-0.9925112,2.55884
 32\PG=C01 [X(C10H20O2)]\\@
 The archive entry for this job was punched.


 You don't have to suffer to be a poet.
 Adolescence is enough suffering for anyone.
                             -- John Ciardi
 Job cpu time:       0 days  0 hours 38 minutes 25.0 seconds.
 Elapsed time:       0 days  0 hours  1 minutes 22.9 seconds.
 File lengths (MBytes):  RWF=    140 Int=      0 D2E=      0 Chk=     24 Scr=      1
 Normal termination of Gaussian 16 at Thu Feb  3 06:45:40 2022.
