 Entering Gaussian System, Link 0=/uufs/chpc.utah.edu/sys/installdir/gaussian16/C01/AVX2/g16/g16
 Input=Ac1_clust-40.com
 Output=Ac1_clust-40.log
 Initial command:
 /uufs/chpc.utah.edu/sys/installdir/gaussian16/C01/AVX2/g16/l1.exe "/scratch/general/lustre/u6032257/3867906/notchpeak.peaks/Gau-38120.inp" -scrdir="/scratch/general/lustre/u6032257/3867906/notchpeak.peaks/"
 Entering Link 1 = /uufs/chpc.utah.edu/sys/installdir/gaussian16/C01/AVX2/g16/l1.exe PID=     38122.
  
 Copyright (c) 1988-2019, Gaussian, Inc.  All Rights Reserved.
  
 This is part of the Gaussian(R) 16 program.  It is based on
 the Gaussian(R) 09 system (copyright 2009, Gaussian, Inc.),
 the Gaussian(R) 03 system (copyright 2003, Gaussian, Inc.),
 the Gaussian(R) 98 system (copyright 1998, Gaussian, Inc.),
 the Gaussian(R) 94 system (copyright 1995, Gaussian, Inc.),
 the Gaussian 92(TM) system (copyright 1992, Gaussian, Inc.),
 the Gaussian 90(TM) system (copyright 1990, Gaussian, Inc.),
 the Gaussian 88(TM) system (copyright 1988, Gaussian, Inc.),
 the Gaussian 86(TM) system (copyright 1986, Carnegie Mellon
 University), and the Gaussian 82(TM) system (copyright 1983,
 Carnegie Mellon University). Gaussian is a federally registered
 trademark of Gaussian, Inc.
  
 This software contains proprietary and confidential information,
 including trade secrets, belonging to Gaussian, Inc.
  
 This software is provided under written license and may be
 used, copied, transmitted, or stored only in accord with that
 written license.
  
 The following legend is applicable only to US Government
 contracts under FAR:
  
                    RESTRICTED RIGHTS LEGEND
  
 Use, reproduction and disclosure by the US Government is
 subject to restrictions as set forth in subparagraphs (a)
 and (c) of the Commercial Computer Software - Restricted
 Rights clause in FAR 52.227-19.
  
 Gaussian, Inc.
 340 Quinnipiac St., Bldg. 40, Wallingford CT 06492
  
  
 ---------------------------------------------------------------
 Warning -- This program may not be used in any manner that
 competes with the business of Gaussian, Inc. or will provide
 assistance to any competitor of Gaussian, Inc.  The licensee
 of this program is prohibited from giving any competitor of
 Gaussian, Inc. access to this program.  By using this program,
 the user acknowledges that Gaussian, Inc. is engaged in the
 business of creating and licensing software in the field of
 computational chemistry and represents and warrants to the
 licensee that it is not a competitor of Gaussian, Inc. and that
 it will not use this program in any manner prohibited above.
 ---------------------------------------------------------------
  

 Cite this work as:
 Gaussian 16, Revision C.01,
 M. J. Frisch, G. W. Trucks, H. B. Schlegel, G. E. Scuseria, 
 M. A. Robb, J. R. Cheeseman, G. Scalmani, V. Barone, 
 G. A. Petersson, H. Nakatsuji, X. Li, M. Caricato, A. V. Marenich, 
 J. Bloino, B. G. Janesko, R. Gomperts, B. Mennucci, H. P. Hratchian, 
 J. V. Ortiz, A. F. Izmaylov, J. L. Sonnenberg, D. Williams-Young, 
 F. Ding, F. Lipparini, F. Egidi, J. Goings, B. Peng, A. Petrone, 
 T. Henderson, D. Ranasinghe, V. G. Zakrzewski, J. Gao, N. Rega, 
 G. Zheng, W. Liang, M. Hada, M. Ehara, K. Toyota, R. Fukuda, 
 J. Hasegawa, M. Ishida, T. Nakajima, Y. Honda, O. Kitao, H. Nakai, 
 T. Vreven, K. Throssell, J. A. Montgomery, Jr., J. E. Peralta, 
 F. Ogliaro, M. J. Bearpark, J. J. Heyd, E. N. Brothers, K. N. Kudin, 
 V. N. Staroverov, T. A. Keith, R. Kobayashi, J. Normand, 
 K. Raghavachari, A. P. Rendell, J. C. Burant, S. S. Iyengar, 
 J. Tomasi, M. Cossi, J. M. Millam, M. Klene, C. Adamo, R. Cammi, 
 J. W. Ochterski, R. L. Martin, K. Morokuma, O. Farkas, 
 J. B. Foresman, and D. J. Fox, Gaussian, Inc., Wallingford CT, 2019.
 
 ******************************************
 Gaussian 16:  ES64L-G16RevC.01  3-Jul-2019
                 5-Feb-2022 
 ******************************************
 %NProcShared=32
 Will use up to   32 processors via shared memory.
 %mem=16GB
 %chk=Ac1_clust-40.chk
 ----------------------------------------------------------------------
 # B3LYP/6-31G(d,p) empiricaldispersion=GD3BJ int=(grid=ultrafine) opt 
 freq=noraman
 ----------------------------------------------------------------------
 1/18=20,19=15,26=4,38=1/1,3;
 2/9=110,12=2,17=6,18=5,40=1/2;
 3/5=1,6=6,7=101,11=2,25=1,30=1,71=1,74=-5,75=-5,124=41/1,2,3;
 4//1;
 5/5=2,38=5/2;
 6/7=2,8=2,9=2,10=2,28=1/1;
 7//1,2,3,16;
 1/18=20,19=15,26=4/3(2);
 2/9=110/2;
 99//99;
 2/9=110/2;
 3/5=1,6=6,7=101,11=2,25=1,30=1,71=1,74=-5,75=-5,124=41/1,2,3;
 4/5=5,16=3,69=1/1;
 5/5=2,38=5/2;
 7//1,2,3,16;
 1/18=20,19=15,26=4/3(-5);
 2/9=110/2;
 6/7=2,8=2,9=2,10=2,19=2,28=1/1;
 99/9=1/99;
 -------
 Ac1.xyz
 -------
 Symbolic Z-matrix:
 Charge =  0 Multiplicity = 1
 O                     6.4906    0.54      0.5338 
 C                     5.4634   -0.3236    0.6776 
 C                     4.7511   -0.582    -0.6488 
 C                     3.5617   -1.5662   -0.5518 
 C                     2.8759   -1.7943   -1.9103 
 C                     1.6919   -2.7764   -1.8209 
 C                     0.9199   -2.9588   -3.1428 
 C                     1.7316   -3.6416   -4.2606 
 C                     0.8996   -3.8914   -5.5309 
 C                     1.7091   -4.5707   -6.6487 
 C                     0.8775   -4.8193   -7.9148 
 O                     5.1573   -0.8264    1.7498 
 H                     6.8529    0.6218    1.4166 
 H                     5.4953   -0.9628   -1.3479 
 H                     4.4092    0.3813   -1.0266 
 H                     3.9061   -2.5249   -0.1563 
 H                     2.8277   -1.1894    0.1647 
 H                     2.5255   -0.8392   -2.3058 
 H                     3.6121   -2.168    -2.6232 
 H                     2.0436   -3.7474   -1.4673 
 H                     0.9939   -2.4212   -1.0606 
 H                     0.027    -3.5532   -2.9409 
 H                     0.557    -1.9897   -3.4899 
 H                     2.1279   -4.5902   -3.8938 
 H                     2.5966   -3.0283   -4.5165 
 H                     0.0345   -4.5092   -5.2832 
 H                     0.5013   -2.943    -5.8962 
 H                     2.5742   -3.9554   -6.9024 
 H                     2.1077   -5.5209   -6.2887 
 H                     0.0243   -5.4668   -7.7089 
 H                     0.4954   -3.8853   -8.3288 
 H                     1.4772   -5.3009   -8.6879 
 

 GradGradGradGradGradGradGradGradGradGradGradGradGradGradGradGradGradGrad
 Berny optimization.
 Initialization pass.
                           ----------------------------
                           !    Initial Parameters    !
                           ! (Angstroms and Degrees)  !
 --------------------------                            --------------------------
 ! Name  Definition              Value          Derivative Info.                !
 --------------------------------------------------------------------------------
 ! R1    R(1,2)                  1.3497         estimate D2E/DX2                !
 ! R2    R(1,13)                 0.9578         estimate D2E/DX2                !
 ! R3    R(2,3)                  1.5276         estimate D2E/DX2                !
 ! R4    R(2,12)                 1.2232         estimate D2E/DX2                !
 ! R5    R(3,4)                  1.5468         estimate D2E/DX2                !
 ! R6    R(3,14)                 1.0898         estimate D2E/DX2                !
 ! R7    R(3,15)                 1.0898         estimate D2E/DX2                !
 ! R8    R(4,5)                  1.5388         estimate D2E/DX2                !
 ! R9    R(4,16)                 1.0928         estimate D2E/DX2                !
 ! R10   R(4,17)                 1.0928         estimate D2E/DX2                !
 ! R11   R(5,6)                  1.5409         estimate D2E/DX2                !
 ! R12   R(5,18)                 1.0915         estimate D2E/DX2                !
 ! R13   R(5,19)                 1.0908         estimate D2E/DX2                !
 ! R14   R(6,7)                  1.5416         estimate D2E/DX2                !
 ! R15   R(6,20)                 1.0916         estimate D2E/DX2                !
 ! R16   R(6,21)                 1.0915         estimate D2E/DX2                !
 ! R17   R(7,8)                  1.541          estimate D2E/DX2                !
 ! R18   R(7,22)                 1.0915         estimate D2E/DX2                !
 ! R19   R(7,23)                 1.0915         estimate D2E/DX2                !
 ! R20   R(8,9)                  1.5389         estimate D2E/DX2                !
 ! R21   R(8,24)                 1.0915         estimate D2E/DX2                !
 ! R22   R(8,25)                 1.0908         estimate D2E/DX2                !
 ! R23   R(9,10)                 1.5383         estimate D2E/DX2                !
 ! R24   R(9,26)                 1.0915         estimate D2E/DX2                !
 ! R25   R(9,27)                 1.0916         estimate D2E/DX2                !
 ! R26   R(10,11)                1.535          estimate D2E/DX2                !
 ! R27   R(10,28)                1.0915         estimate D2E/DX2                !
 ! R28   R(10,29)                1.0915         estimate D2E/DX2                !
 ! R29   R(11,30)                1.0907         estimate D2E/DX2                !
 ! R30   R(11,31)                1.0908         estimate D2E/DX2                !
 ! R31   R(11,32)                1.0905         estimate D2E/DX2                !
 ! A1    A(2,1,13)             104.143          estimate D2E/DX2                !
 ! A2    A(1,2,3)              111.7531         estimate D2E/DX2                !
 ! A3    A(1,2,12)             123.1532         estimate D2E/DX2                !
 ! A4    A(3,2,12)             125.0937         estimate D2E/DX2                !
 ! A5    A(2,3,4)              114.3131         estimate D2E/DX2                !
 ! A6    A(2,3,14)             107.32           estimate D2E/DX2                !
 ! A7    A(2,3,15)             107.3251         estimate D2E/DX2                !
 ! A8    A(4,3,14)             110.0593         estimate D2E/DX2                !
 ! A9    A(4,3,15)             110.0554         estimate D2E/DX2                !
 ! A10   A(14,3,15)            107.5018         estimate D2E/DX2                !
 ! A11   A(3,4,5)              112.4355         estimate D2E/DX2                !
 ! A12   A(3,4,16)             109.7894         estimate D2E/DX2                !
 ! A13   A(3,4,17)             109.7675         estimate D2E/DX2                !
 ! A14   A(5,4,16)             109.2648         estimate D2E/DX2                !
 ! A15   A(5,4,17)             109.3062         estimate D2E/DX2                !
 ! A16   A(16,4,17)            106.0753         estimate D2E/DX2                !
 ! A17   A(4,5,6)              112.6876         estimate D2E/DX2                !
 ! A18   A(4,5,18)             109.4661         estimate D2E/DX2                !
 ! A19   A(4,5,19)             109.085          estimate D2E/DX2                !
 ! A20   A(6,5,18)             109.3935         estimate D2E/DX2                !
 ! A21   A(6,5,19)             109.7646         estimate D2E/DX2                !
 ! A22   A(18,5,19)            106.2378         estimate D2E/DX2                !
 ! A23   A(5,6,7)              114.2324         estimate D2E/DX2                !
 ! A24   A(5,6,20)             109.7657         estimate D2E/DX2                !
 ! A25   A(5,6,21)             108.9272         estimate D2E/DX2                !
 ! A26   A(7,6,20)             109.5029         estimate D2E/DX2                !
 ! A27   A(7,6,21)             108.3934         estimate D2E/DX2                !
 ! A28   A(20,6,21)            105.6563         estimate D2E/DX2                !
 ! A29   A(6,7,8)              114.2453         estimate D2E/DX2                !
 ! A30   A(6,7,22)             108.3895         estimate D2E/DX2                !
 ! A31   A(6,7,23)             109.5194         estimate D2E/DX2                !
 ! A32   A(8,7,22)             108.8923         estimate D2E/DX2                !
 ! A33   A(8,7,23)             109.7474         estimate D2E/DX2                !
 ! A34   A(22,7,23)            105.6851         estimate D2E/DX2                !
 ! A35   A(7,8,9)              112.7007         estimate D2E/DX2                !
 ! A36   A(7,8,24)             109.4244         estimate D2E/DX2                !
 ! A37   A(7,8,25)             109.801          estimate D2E/DX2                !
 ! A38   A(9,8,24)             109.4271         estimate D2E/DX2                !
 ! A39   A(9,8,25)             109.0467         estimate D2E/DX2                !
 ! A40   A(24,8,25)            106.2332         estimate D2E/DX2                !
 ! A41   A(8,9,10)             112.768          estimate D2E/DX2                !
 ! A42   A(8,9,26)             109.4535         estimate D2E/DX2                !
 ! A43   A(8,9,27)             109.4192         estimate D2E/DX2                !
 ! A44   A(10,9,26)            109.3925         estimate D2E/DX2                !
 ! A45   A(10,9,27)            109.4217         estimate D2E/DX2                !
 ! A46   A(26,9,27)            106.1711         estimate D2E/DX2                !
 ! A47   A(9,10,11)            112.6922         estimate D2E/DX2                !
 ! A48   A(9,10,28)            109.6975         estimate D2E/DX2                !
 ! A49   A(9,10,29)            109.6909         estimate D2E/DX2                !
 ! A50   A(11,10,28)           109.2057         estimate D2E/DX2                !
 ! A51   A(11,10,29)           109.2013         estimate D2E/DX2                !
 ! A52   A(28,10,29)           106.139          estimate D2E/DX2                !
 ! A53   A(10,11,30)           111.3596         estimate D2E/DX2                !
 ! A54   A(10,11,31)           111.3556         estimate D2E/DX2                !
 ! A55   A(10,11,32)           110.9971         estimate D2E/DX2                !
 ! A56   A(30,11,31)           107.8163         estimate D2E/DX2                !
 ! A57   A(30,11,32)           107.5677         estimate D2E/DX2                !
 ! A58   A(31,11,32)           107.5608         estimate D2E/DX2                !
 ! D1    D(13,1,2,3)           179.9972         estimate D2E/DX2                !
 ! D2    D(13,1,2,12)            0.0093         estimate D2E/DX2                !
 ! D3    D(1,2,3,4)            179.9743         estimate D2E/DX2                !
 ! D4    D(1,2,3,14)            57.6209         estimate D2E/DX2                !
 ! D5    D(1,2,3,15)           -57.6735         estimate D2E/DX2                !
 ! D6    D(12,2,3,4)            -0.038          estimate D2E/DX2                !
 ! D7    D(12,2,3,14)         -122.3915         estimate D2E/DX2                !
 ! D8    D(12,2,3,15)          122.3141         estimate D2E/DX2                !
 ! D9    D(2,3,4,5)            179.9626         estimate D2E/DX2                !
 ! D10   D(2,3,4,16)           -58.1724         estimate D2E/DX2                !
 ! D11   D(2,3,4,17)            58.0602         estimate D2E/DX2                !
 ! D12   D(14,3,4,5)           -59.1905         estimate D2E/DX2                !
 ! D13   D(14,3,4,16)           62.6746         estimate D2E/DX2                !
 ! D14   D(14,3,4,17)          178.9071         estimate D2E/DX2                !
 ! D15   D(15,3,4,5)            59.1119         estimate D2E/DX2                !
 ! D16   D(15,3,4,16)         -179.0231         estimate D2E/DX2                !
 ! D17   D(15,3,4,17)          -62.7905         estimate D2E/DX2                !
 ! D18   D(3,4,5,6)            179.8741         estimate D2E/DX2                !
 ! D19   D(3,4,5,18)           -58.1553         estimate D2E/DX2                !
 ! D20   D(3,4,5,19)            57.7012         estimate D2E/DX2                !
 ! D21   D(16,4,5,6)            57.7115         estimate D2E/DX2                !
 ! D22   D(16,4,5,18)          179.6821         estimate D2E/DX2                !
 ! D23   D(16,4,5,19)          -64.4614         estimate D2E/DX2                !
 ! D24   D(17,4,5,6)           -57.9619         estimate D2E/DX2                !
 ! D25   D(17,4,5,18)           64.0088         estimate D2E/DX2                !
 ! D26   D(17,4,5,19)          179.8652         estimate D2E/DX2                !
 ! D27   D(4,5,6,7)            176.1249         estimate D2E/DX2                !
 ! D28   D(4,5,6,20)           -60.4549         estimate D2E/DX2                !
 ! D29   D(4,5,6,21)            54.7827         estimate D2E/DX2                !
 ! D30   D(18,5,6,7)            54.1133         estimate D2E/DX2                !
 ! D31   D(18,5,6,20)          177.5335         estimate D2E/DX2                !
 ! D32   D(18,5,6,21)          -67.229          estimate D2E/DX2                !
 ! D33   D(19,5,6,7)           -62.086          estimate D2E/DX2                !
 ! D34   D(19,5,6,20)           61.3342         estimate D2E/DX2                !
 ! D35   D(19,5,6,21)          176.5718         estimate D2E/DX2                !
 ! D36   D(5,6,7,8)             66.3932         estimate D2E/DX2                !
 ! D37   D(5,6,7,22)          -172.0093         estimate D2E/DX2                !
 ! D38   D(5,6,7,23)           -57.1668         estimate D2E/DX2                !
 ! D39   D(20,6,7,8)           -57.1686         estimate D2E/DX2                !
 ! D40   D(20,6,7,22)           64.4288         estimate D2E/DX2                !
 ! D41   D(20,6,7,23)          179.2714         estimate D2E/DX2                !
 ! D42   D(21,6,7,8)          -171.9703         estimate D2E/DX2                !
 ! D43   D(21,6,7,22)          -50.3728         estimate D2E/DX2                !
 ! D44   D(21,6,7,23)           64.4697         estimate D2E/DX2                !
 ! D45   D(6,7,8,9)            176.1358         estimate D2E/DX2                !
 ! D46   D(6,7,8,24)            54.143          estimate D2E/DX2                !
 ! D47   D(6,7,8,25)           -62.0891         estimate D2E/DX2                !
 ! D48   D(22,7,8,9)            54.8156         estimate D2E/DX2                !
 ! D49   D(22,7,8,24)          -67.1772         estimate D2E/DX2                !
 ! D50   D(22,7,8,25)          176.5906         estimate D2E/DX2                !
 ! D51   D(23,7,8,9)           -60.4271         estimate D2E/DX2                !
 ! D52   D(23,7,8,24)          177.5801         estimate D2E/DX2                !
 ! D53   D(23,7,8,25)           61.348          estimate D2E/DX2                !
 ! D54   D(7,8,9,10)           179.8972         estimate D2E/DX2                !
 ! D55   D(7,8,9,26)           -58.0879         estimate D2E/DX2                !
 ! D56   D(7,8,9,27)            57.8694         estimate D2E/DX2                !
 ! D57   D(24,8,9,10)          -58.1116         estimate D2E/DX2                !
 ! D58   D(24,8,9,26)           63.9034         estimate D2E/DX2                !
 ! D59   D(24,8,9,27)          179.8607         estimate D2E/DX2                !
 ! D60   D(25,8,9,10)           57.6963         estimate D2E/DX2                !
 ! D61   D(25,8,9,26)          179.7112         estimate D2E/DX2                !
 ! D62   D(25,8,9,27)          -64.3315         estimate D2E/DX2                !
 ! D63   D(8,9,10,11)          179.9881         estimate D2E/DX2                !
 ! D64   D(8,9,10,28)          -58.113          estimate D2E/DX2                !
 ! D65   D(8,9,10,29)           58.0996         estimate D2E/DX2                !
 ! D66   D(26,9,10,11)          57.9388         estimate D2E/DX2                !
 ! D67   D(26,9,10,28)         179.8377         estimate D2E/DX2                !
 ! D68   D(26,9,10,29)         -63.9498         estimate D2E/DX2                !
 ! D69   D(27,9,10,11)         -57.9855         estimate D2E/DX2                !
 ! D70   D(27,9,10,28)          63.9134         estimate D2E/DX2                !
 ! D71   D(27,9,10,29)        -179.8741         estimate D2E/DX2                !
 ! D72   D(9,10,11,30)         -60.1864         estimate D2E/DX2                !
 ! D73   D(9,10,11,31)          60.1892         estimate D2E/DX2                !
 ! D74   D(9,10,11,32)         179.9957         estimate D2E/DX2                !
 ! D75   D(28,10,11,30)        177.6371         estimate D2E/DX2                !
 ! D76   D(28,10,11,31)        -61.9873         estimate D2E/DX2                !
 ! D77   D(28,10,11,32)         57.8192         estimate D2E/DX2                !
 ! D78   D(29,10,11,30)         61.9785         estimate D2E/DX2                !
 ! D79   D(29,10,11,31)       -177.646          estimate D2E/DX2                !
 ! D80   D(29,10,11,32)        -57.8394         estimate D2E/DX2                !
 --------------------------------------------------------------------------------
 Trust Radius=3.00D-01 FncErr=1.00D-07 GrdErr=1.00D-06 EigMax=2.50D+02 EigMin=1.00D-04
 Number of steps in this run=    179 maximum allowed number of steps=    192.
 GradGradGradGradGradGradGradGradGradGradGradGradGradGradGradGradGradGrad

                          Input orientation:                          
 ---------------------------------------------------------------------
 Center     Atomic      Atomic             Coordinates (Angstroms)
 Number     Number       Type             X           Y           Z
 ---------------------------------------------------------------------
      1          8           0        6.490600    0.540000    0.533800
      2          6           0        5.463400   -0.323600    0.677600
      3          6           0        4.751100   -0.582000   -0.648800
      4          6           0        3.561700   -1.566200   -0.551800
      5          6           0        2.875900   -1.794300   -1.910300
      6          6           0        1.691900   -2.776400   -1.820900
      7          6           0        0.919900   -2.958800   -3.142800
      8          6           0        1.731600   -3.641600   -4.260600
      9          6           0        0.899600   -3.891400   -5.530900
     10          6           0        1.709100   -4.570700   -6.648700
     11          6           0        0.877500   -4.819300   -7.914800
     12          8           0        5.157300   -0.826400    1.749800
     13          1           0        6.852900    0.621800    1.416600
     14          1           0        5.495300   -0.962800   -1.347900
     15          1           0        4.409200    0.381300   -1.026600
     16          1           0        3.906100   -2.524900   -0.156300
     17          1           0        2.827700   -1.189400    0.164700
     18          1           0        2.525500   -0.839200   -2.305800
     19          1           0        3.612100   -2.168000   -2.623200
     20          1           0        2.043600   -3.747400   -1.467300
     21          1           0        0.993900   -2.421200   -1.060600
     22          1           0        0.027000   -3.553200   -2.940900
     23          1           0        0.557000   -1.989700   -3.489900
     24          1           0        2.127900   -4.590200   -3.893800
     25          1           0        2.596600   -3.028300   -4.516500
     26          1           0        0.034500   -4.509200   -5.283200
     27          1           0        0.501300   -2.943000   -5.896200
     28          1           0        2.574200   -3.955400   -6.902400
     29          1           0        2.107700   -5.520900   -6.288700
     30          1           0        0.024300   -5.466800   -7.708900
     31          1           0        0.495400   -3.885300   -8.328800
     32          1           0        1.477200   -5.300900   -8.687900
 ---------------------------------------------------------------------
                    Distance matrix (angstroms):
                    1          2          3          4          5
     1  O    0.000000
     2  C    1.349675   0.000000
     3  C    2.383965   1.527573   0.000000
     4  C    3.767368   2.583010   1.546845   0.000000
     5  C    4.948600   3.944026   2.564650   1.538790   0.000000
     6  C    6.290520   5.146158   3.943084   2.563465   1.540899
     7  C    7.536026   6.494854   5.152408   3.953697   2.588639
     8  C    7.944818   7.022911   5.614591   4.627283   3.200914
     9  C    9.363609   8.491345   7.044223   6.106125   4.627346
    10  C   10.028475   9.263223   7.820632   7.044951   5.614468
    11  C   11.472046  10.727121   9.260359   8.485361   7.014146
    12  O    2.263492   1.223159   2.444997   2.896654   4.420175
    13  H    0.957752   1.835923   3.183171   4.415194   5.720344
    14  H    2.605729   2.124204   1.089763   2.176391   2.805164
    15  H    2.606196   2.124269   1.089759   2.176338   2.804491
    16  H    4.068106   2.822462   2.175188   1.092766   2.161389
    17  H    4.067419   2.821275   2.174899   1.092752   2.161909
    18  H    5.068288   4.218741   2.786592   2.163043   1.091520
    19  H    5.058228   4.210036   2.776864   2.157638   1.090811
    20  H    6.493228   5.293206   4.245027   2.810765   2.168772
    21  H    6.443953   5.234281   4.203426   2.753815   2.157989
    22  H    8.402735   7.285486   6.033148   4.706386   3.503155
    23  H    7.602444   6.649564   5.257751   4.223743   2.812581
    24  H    8.059513   7.087110   5.785920   4.729622   3.508680
    25  H    7.307635   6.520170   5.058197   4.334513   2.897075
    26  H   10.050529   9.084236   7.690701   6.594584   5.178870
    27  H    9.452402   8.642832   7.153344   6.310645   4.779711
    28  H    9.531206   8.887848   7.431436   6.856643   5.448159
    29  H   10.123775   9.316758   7.949136   7.117991   5.800695
    30  H   12.076290  11.241428   9.800455   8.885492   7.432539
    31  H   11.578920  10.884942   9.381107   8.675376   7.157947
    32  H   12.012079  11.330309   9.879958   9.191803   7.758123
                    6          7          8          9         10
     6  C    0.000000
     7  C    1.541646   0.000000
     8  C    2.588877   1.540957   0.000000
     9  C    3.954120   2.563821   1.538924   0.000000
    10  C    5.150482   3.938578   2.562568   1.538251   0.000000
    11  C    6.478604   5.122035   3.933147   2.558215   1.535047
    12  O    5.344286   6.814706   7.468981   8.973897   9.820625
    13  H    6.976037   8.295138   8.754136  10.201888  10.884383
    14  H    4.240133   5.304712   5.461248   6.869836   7.446525
    15  H    4.240955   5.273498   5.814811   7.131758   7.963721
    16  H    2.781515   4.245567   4.777107   6.308145   7.152857
    17  H    2.784101   4.208329   5.176678   6.592286   7.688100
    18  H    2.163969   2.787692   3.507843   4.728715   5.783717
    19  H    2.168180   2.853645   2.896352   4.333876   5.059548
    20  H    1.091589   2.166078   2.812661   4.224017   5.257054
    21  H    1.091525   2.151754   3.503367   4.706800   6.029819
    22  H    2.151676   1.091488   2.157564   2.753890   4.196731
    23  H    2.166208   1.091480   2.168510   2.810608   4.238740
    24  H    2.788706   2.164424   1.091530   2.162669   2.786619
    25  H    2.854504   2.168687   1.090801   2.157257   2.777216
    26  H    4.211543   2.787290   2.163005   1.091527   2.161633
    27  H    4.248924   2.785083   2.162607   1.091581   2.162046
    28  H    5.290571   4.226643   2.790619   2.165501   1.091492
    29  H    5.259887   4.227518   2.790414   2.165418   1.091495
    30  H    6.684885   5.285966   4.258756   2.826963   2.183019
    31  H    6.709250   5.285187   4.258853   2.826952   2.183020
    32  H    7.319487   6.045176   4.734869   3.505276   2.178372
                   11         12         13         14         15
    11  C    0.000000
    12  O   11.298869   0.000000
    13  H   12.344472   2.254632   0.000000
    14  H    8.906225   3.119069   3.463596   0.000000
    15  H    9.325580   3.118748   3.463919   1.757684   0.000000
    16  H    8.638924   2.843171   4.589048   2.526979   3.075147
    17  H    9.069607   2.841012   4.588021   3.074963   2.527338
    18  H    7.072339   4.834711   5.892128   3.122909   2.583466
    19  H    6.519851   4.828112   5.882665   2.573973   3.111821
    20  H    6.639203   5.345755   7.108879   4.436495   4.778749
    21  H    7.262540   5.270259   7.051542   4.740472   4.418081
    22  H    5.202503   7.467134   9.111056   6.257006   6.192618
    23  H    5.262043   7.068980   8.398335   5.479917   5.150624
    24  H    4.217159   7.429245   8.814245   5.565880   6.175838
    25  H    4.208495   7.118431   8.163394   4.765373   5.204834
    26  H    2.780671   9.448237  10.849196   7.608145   7.821358
    27  H    2.781506   9.198894  10.321224   7.039053   7.073589
    28  H    2.156402   9.556339  10.414595   6.952766   7.529888
    29  H    2.156348   9.795707  10.937154   7.527524   8.235446
    30  H    1.090688  11.719557  12.921903   9.522614   9.903573
    31  H    1.090758  11.518175  12.478164   9.070445   9.319004
    32  H    1.090533  11.937750  12.887104   9.425489   9.978955
                   16         17         18         19         20
    16  H    0.000000
    17  H    1.746295   0.000000
    18  H    3.060717   2.513431   0.000000
    19  H    2.509862   3.057013   1.745609   0.000000
    20  H    2.584982   3.133943   3.064790   2.508147   0.000000
    21  H    3.051134   2.526166   2.529633   3.059542   1.739564
    22  H    4.884549   4.803772   3.743214   3.856508   2.505172
    23  H    4.755607   4.376375   2.569190   3.180660   3.064376
    24  H    4.625621   5.341028   4.092656   3.111965   2.570082
    25  H    4.580343   5.034739   3.111978   2.314291   3.181279
    26  H    6.723975   6.964385   5.342180   5.035478   4.379260
    27  H    6.686847   6.724713   4.627562   4.581510   4.758246
    28  H    7.023543   7.593347   5.553540   4.752219   5.464898
    29  H    7.058087   7.805553   6.160874   5.190477   5.137637
    30  H    8.986930   9.388758   7.540834   7.044057   6.781702
    31  H    8.959538   9.211245   7.048160   6.724345   7.035348
    32  H    9.294833   9.853771   7.857283   7.152164   7.407512
                   21         22         23         24         25
    21  H    0.000000
    22  H    2.398301   0.000000
    23  H    2.505708   1.739780   0.000000
    24  H    3.744000   2.529262   3.064876   0.000000
    25  H    3.857520   3.059555   2.508499   1.745556   0.000000
    26  H    4.807343   2.529894   3.136369   2.513825   3.057000
    27  H    4.888554   3.054685   2.588854   3.060833   2.510205
    28  H    6.243216   4.726889   4.424729   3.107061   2.559792
    29  H    6.179136   4.405556   4.765220   2.569466   3.097220
    30  H    7.376700   5.137674   5.493082   4.443934   4.770160
    31  H    7.430937   5.418409   5.197312   4.778197   4.436566
    32  H    8.167127   6.179445   6.231374   4.889980   4.880404
                   26         27         28         29         30
    26  H    0.000000
    27  H    1.745467   0.000000
    28  H    3.062447   2.516805   0.000000
    29  H    2.516491   3.062702   1.745004   0.000000
    30  H    2.607896   3.143720   3.071931   2.521993   0.000000
    31  H    3.142827   2.608737   2.522090   3.071922   1.762769
    32  H    3.781554   3.782283   2.490339   2.490400   1.759796
                   31         32
    31  H    0.000000
    32  H    1.759775   0.000000
 Stoichiometry    C10H20O2
 Framework group  C1[X(C10H20O2)]
 Deg. of freedom    90
 Full point group                 C1      NOp   1
 Largest Abelian subgroup         C1      NOp   1
 Largest concise Abelian subgroup C1      NOp   1
                         Standard orientation:                         
 ---------------------------------------------------------------------
 Center     Atomic      Atomic             Coordinates (Angstroms)
 Number     Number       Type             X           Y           Z
 ---------------------------------------------------------------------
      1          8           0       -5.261032   -1.490842    0.286554
      2          6           0       -4.511006   -0.433347   -0.088664
      3          6           0       -3.046578   -0.608252    0.309254
      4          6           0       -2.131732    0.572123   -0.093864
      5          6           0       -0.668399    0.351615    0.327927
      6          6           0        0.248821    1.522864   -0.073635
      7          6           0        1.704507    1.382598    0.414194
      8          6           0        2.479964    0.219624   -0.234426
      9          6           0        3.953764    0.169932    0.205721
     10          6           0        4.728719   -0.991999   -0.438930
     11          6           0        6.198586   -1.039758    0.001049
     12          8           0       -4.969229    0.537258   -0.675243
     13          1           0       -6.143745   -1.269334   -0.011842
     14          1           0       -2.692821   -1.529886   -0.152296
     15          1           0       -3.018561   -0.750854    1.389279
     16          1           0       -2.176509    0.722323   -1.175331
     17          1           0       -2.501864    1.496818    0.355632
     18          1           0       -0.619230    0.206815    1.408682
     19          1           0       -0.303418   -0.573282   -0.120653
     20          1           0        0.238136    1.645000   -1.158318
     21          1           0       -0.162320    2.449421    0.331186
     22          1           0        2.229029    2.316837    0.205818
     23          1           0        1.716295    1.273443    1.500139
     24          1           0        2.428419    0.310261   -1.320964
     25          1           0        2.001655   -0.728318    0.015521
     26          1           0        4.440378    1.113987   -0.046068
     27          1           0        4.005184    0.081787    1.292522
     28          1           0        4.247801   -1.939110   -0.187823
     29          1           0        4.682010   -0.906868   -1.526097
     30          1           0        6.724681   -0.123928   -0.271126
     31          1           0        6.286057   -1.166546    1.080876
     32          1           0        6.721040   -1.872288   -0.471388
 ---------------------------------------------------------------------
 Rotational constants (GHZ):           2.5647365           0.1943857           0.1851110
 Standard basis: 6-31G(d,p) (6D, 7F)
 There are   280 symmetry adapted cartesian basis functions of A   symmetry.
 There are   280 symmetry adapted basis functions of A   symmetry.
   280 basis functions,   476 primitive gaussians,   280 cartesian basis functions
    48 alpha electrons       48 beta electrons
       nuclear repulsion energy       673.3777885161 Hartrees.
 NAtoms=   32 NActive=   32 NUniq=   32 SFac= 1.00D+00 NAtFMM=   60 NAOKFM=F Big=F
 Integral buffers will be    131072 words long.
 Raffenetti 2 integral format.
 Two-electron integral symmetry is turned on.
 Nuclear repulsion after empirical dispersion term =      673.3324565535 Hartrees.
 One-electron integrals computed using PRISM.
 NBasis=   280 RedAO= T EigKep=  2.38D-03  NBF=   280
 NBsUse=   280 1.00D-06 EigRej= -1.00D+00 NBFU=   280
 ExpMin= 1.61D-01 ExpMax= 5.48D+03 ExpMxC= 8.25D+02 IAcc=3 IRadAn=         5 AccDes= 0.00D+00
 Harris functional with IExCor=  402 and IRadAn=       5 diagonalized for initial guess.
 HarFok:  IExCor=  402 AccDes= 0.00D+00 IRadAn=         5 IDoV= 1 UseB2=F ITyADJ=14
 ICtDFT=  3500011 ScaDFX=  1.000000  1.000000  1.000000  1.000000
 FoFCou: FMM=F IPFlag=           0 FMFlag=      100000 FMFlg1=           0
         NFxFlg=           0 DoJE=T BraDBF=F KetDBF=T FulRan=T
         wScrn=  0.000000 ICntrl=       500 IOpCl=  0 I1Cent=   200000004 NGrid=           0
         NMat0=    1 NMatS0=      1 NMatT0=    0 NMatD0=    1 NMtDS0=    0 NMtDT0=    0
 Petite list used in FoFCou.
 Requested convergence on RMS density matrix=1.00D-08 within 128 cycles.
 Requested convergence on MAX density matrix=1.00D-06.
 Requested convergence on             energy=1.00D-06.
 No special actions if energy rises.
 Integral accuracy reduced to 1.0D-05 until final iterations.
 Initial convergence to 1.0D-05 achieved.  Increase integral accuracy.
 SCF Done:  E(RB3LYP) =  -543.666799940     A.U. after   13 cycles
            NFock= 13  Conv=0.37D-08     -V/T= 2.0096

 **********************************************************************

            Population analysis using the SCF Density.

 **********************************************************************

 Orbital symmetries:
       Occupied  (A) (A) (A) (A) (A) (A) (A) (A) (A) (A) (A) (A)
                 (A) (A) (A) (A) (A) (A) (A) (A) (A) (A) (A) (A)
                 (A) (A) (A) (A) (A) (A) (A) (A) (A) (A) (A) (A)
                 (A) (A) (A) (A) (A) (A) (A) (A) (A) (A) (A) (A)
       Virtual   (A) (A) (A) (A) (A) (A) (A) (A) (A) (A) (A) (A)
                 (A) (A) (A) (A) (A) (A) (A) (A) (A) (A) (A) (A)
                 (A) (A) (A) (A) (A) (A) (A) (A) (A) (A) (A) (A)
                 (A) (A) (A) (A) (A) (A) (A) (A) (A) (A) (A) (A)
                 (A) (A) (A) (A) (A) (A) (A) (A) (A) (A) (A) (A)
                 (A) (A) (A) (A) (A) (A) (A) (A) (A) (A) (A) (A)
                 (A) (A) (A) (A) (A) (A) (A) (A) (A) (A) (A) (A)
                 (A) (A) (A) (A) (A) (A) (A) (A) (A) (A) (A) (A)
                 (A) (A) (A) (A) (A) (A) (A) (A) (A) (A) (A) (A)
                 (A) (A) (A) (A) (A) (A) (A) (A) (A) (A) (A) (A)
                 (A) (A) (A) (A) (A) (A) (A) (A) (A) (A) (A) (A)
                 (A) (A) (A) (A) (A) (A) (A) (A) (A) (A) (A) (A)
                 (A) (A) (A) (A) (A) (A) (A) (A) (A) (A) (A) (A)
                 (A) (A) (A) (A) (A) (A) (A) (A) (A) (A) (A) (A)
                 (A) (A) (A) (A) (A) (A) (A) (A) (A) (A) (A) (A)
                 (A) (A) (A) (A) (A) (A) (A) (A) (A) (A) (A) (A)
                 (A) (A) (A) (A) (A) (A) (A) (A) (A) (A) (A) (A)
                 (A) (A) (A) (A) (A) (A) (A) (A) (A) (A) (A) (A)
                 (A) (A) (A) (A) (A) (A) (A) (A) (A) (A) (A) (A)
                 (A) (A) (A) (A)
 The electronic state is 1-A.
 Alpha  occ. eigenvalues --  -19.19813 -19.13767 -10.32087 -10.20060 -10.18357
 Alpha  occ. eigenvalues --  -10.17964 -10.17697 -10.17621 -10.17567 -10.17444
 Alpha  occ. eigenvalues --  -10.17411 -10.16944  -1.10751  -1.01047  -0.81147
 Alpha  occ. eigenvalues --   -0.79473  -0.76788  -0.73027  -0.68909  -0.64092
 Alpha  occ. eigenvalues --   -0.60982  -0.57732  -0.57620  -0.56592  -0.48743
 Alpha  occ. eigenvalues --   -0.48567  -0.47923  -0.47119  -0.45325  -0.43496
 Alpha  occ. eigenvalues --   -0.42799  -0.41432  -0.40200  -0.40084  -0.39077
 Alpha  occ. eigenvalues --   -0.38257  -0.36624  -0.36260  -0.34686  -0.34090
 Alpha  occ. eigenvalues --   -0.33322  -0.32977  -0.32295  -0.32008  -0.31688
 Alpha  occ. eigenvalues --   -0.31048  -0.29917  -0.27228
 Alpha virt. eigenvalues --    0.01085   0.08292   0.08850   0.09455   0.10654
 Alpha virt. eigenvalues --    0.11752   0.11921   0.13297   0.14205   0.15029
 Alpha virt. eigenvalues --    0.15909   0.17022   0.17676   0.17799   0.18364
 Alpha virt. eigenvalues --    0.19454   0.19669   0.19903   0.20537   0.20601
 Alpha virt. eigenvalues --    0.21420   0.22136   0.22323   0.23130   0.24837
 Alpha virt. eigenvalues --    0.25414   0.26657   0.26946   0.28841   0.30386
 Alpha virt. eigenvalues --    0.33247   0.38104   0.48531   0.49253   0.50827
 Alpha virt. eigenvalues --    0.51054   0.52795   0.54154   0.54978   0.55291
 Alpha virt. eigenvalues --    0.55857   0.56805   0.58266   0.60169   0.60957
 Alpha virt. eigenvalues --    0.62602   0.64733   0.65899   0.66784   0.67487
 Alpha virt. eigenvalues --    0.68287   0.69530   0.70829   0.73558   0.74209
 Alpha virt. eigenvalues --    0.75082   0.78225   0.78565   0.79630   0.80497
 Alpha virt. eigenvalues --    0.81729   0.83768   0.84106   0.85419   0.86830
 Alpha virt. eigenvalues --    0.87666   0.88324   0.88552   0.90242   0.91089
 Alpha virt. eigenvalues --    0.91393   0.91977   0.92450   0.93162   0.93732
 Alpha virt. eigenvalues --    0.94297   0.94658   0.95419   0.95571   0.95913
 Alpha virt. eigenvalues --    0.96861   0.97517   0.99903   1.00361   1.01268
 Alpha virt. eigenvalues --    1.04237   1.11348   1.12809   1.15046   1.16034
 Alpha virt. eigenvalues --    1.23319   1.27650   1.28848   1.33590   1.34074
 Alpha virt. eigenvalues --    1.38372   1.38657   1.41914   1.45555   1.48009
 Alpha virt. eigenvalues --    1.51933   1.54082   1.54652   1.54916   1.55798
 Alpha virt. eigenvalues --    1.58321   1.60196   1.64941   1.67356   1.68551
 Alpha virt. eigenvalues --    1.69444   1.70163   1.70639   1.72083   1.72716
 Alpha virt. eigenvalues --    1.73048   1.76605   1.79800   1.82520   1.83913
 Alpha virt. eigenvalues --    1.85193   1.86427   1.87222   1.87439   1.89327
 Alpha virt. eigenvalues --    1.90181   1.91034   1.92266   1.92928   1.95700
 Alpha virt. eigenvalues --    1.97162   2.04284   2.05622   2.07691   2.07849
 Alpha virt. eigenvalues --    2.09123   2.09903   2.10673   2.11323   2.12785
 Alpha virt. eigenvalues --    2.13744   2.14579   2.17171   2.17761   2.18105
 Alpha virt. eigenvalues --    2.21269   2.23388   2.24387   2.25654   2.27933
 Alpha virt. eigenvalues --    2.29316   2.30500   2.31181   2.31837   2.32031
 Alpha virt. eigenvalues --    2.34028   2.37161   2.39029   2.40002   2.41764
 Alpha virt. eigenvalues --    2.43220   2.43848   2.45400   2.46864   2.48081
 Alpha virt. eigenvalues --    2.50922   2.54004   2.55907   2.57892   2.58500
 Alpha virt. eigenvalues --    2.62591   2.63517   2.65103   2.65599   2.67005
 Alpha virt. eigenvalues --    2.69811   2.70479   2.71978   2.74114   2.76520
 Alpha virt. eigenvalues --    2.78275   2.80272   2.82034   2.82397   2.85217
 Alpha virt. eigenvalues --    2.86214   2.87337   2.88345   2.88694   2.90217
 Alpha virt. eigenvalues --    2.90689   2.91494   2.91877   2.92479   2.92834
 Alpha virt. eigenvalues --    2.93916   2.95312   2.97100   3.01689   3.17496
 Alpha virt. eigenvalues --    3.19840   3.24572   3.26590   3.28754   3.30756
 Alpha virt. eigenvalues --    3.31606   3.33024   3.34626   3.35362   3.40036
 Alpha virt. eigenvalues --    3.41421   3.43617   3.46202   3.47160   3.49223
 Alpha virt. eigenvalues --    3.52484   3.56298   3.58649   3.59731   3.60602
 Alpha virt. eigenvalues --    3.94710   4.14141   4.23420   4.26362   4.33764
 Alpha virt. eigenvalues --    4.40669   4.48129   4.53335   4.60231   4.64307
 Alpha virt. eigenvalues --    4.73152   4.78658
          Condensed to atoms (all electrons):
               1          2          3          4          5          6
     1  O    8.115775   0.257717  -0.095048   0.002498  -0.000023   0.000000
     2  C    0.257717   4.386453   0.312789  -0.029626   0.004013  -0.000098
     3  C   -0.095048   0.312789   5.154786   0.340180  -0.032674   0.003052
     4  C    0.002498  -0.029626   0.340180   4.902695   0.354971  -0.035041
     5  C   -0.000023   0.004013  -0.032674   0.354971   4.922680   0.377951
     6  C    0.000000  -0.000098   0.003052  -0.035041   0.377951   4.913074
     7  C   -0.000000   0.000001  -0.000106   0.003254  -0.037592   0.358985
     8  C    0.000000   0.000000   0.000001   0.000160  -0.005119  -0.037785
     9  C   -0.000000   0.000000  -0.000000  -0.000001   0.000153   0.003481
    10  C    0.000000  -0.000000   0.000000  -0.000000   0.000001  -0.000123
    11  C    0.000000   0.000000  -0.000000   0.000000   0.000000   0.000001
    12  O   -0.079975   0.572714  -0.088230   0.006206   0.000394   0.000001
    13  H    0.267641  -0.009419   0.011330  -0.000319   0.000002  -0.000000
    14  H    0.002369  -0.024848   0.367856  -0.034851  -0.002841   0.000015
    15  H    0.002374  -0.024935   0.368081  -0.034870  -0.002845   0.000016
    16  H    0.000056  -0.002497  -0.037528   0.389114  -0.039758  -0.003151
    17  H    0.000056  -0.002504  -0.037461   0.388786  -0.039684  -0.003562
    18  H   -0.000000   0.000009  -0.004096  -0.038161   0.380343  -0.039821
    19  H   -0.000000   0.000015  -0.003923  -0.037772   0.381468  -0.038235
    20  H   -0.000000   0.000000   0.000038  -0.003516  -0.039681   0.381690
    21  H   -0.000000   0.000000   0.000085  -0.004407  -0.040905   0.377038
    22  H    0.000000  -0.000000   0.000001  -0.000130   0.004530  -0.031498
    23  H   -0.000000   0.000000  -0.000001   0.000056  -0.007825  -0.037544
    24  H   -0.000000  -0.000000  -0.000000  -0.000026  -0.000811  -0.003242
    25  H    0.000000  -0.000000   0.000004  -0.000076   0.002213  -0.003826
    26  H    0.000000   0.000000   0.000000   0.000000   0.000001   0.000017
    27  H    0.000000  -0.000000   0.000000  -0.000000  -0.000018   0.000091
    28  H   -0.000000   0.000000  -0.000000   0.000000  -0.000002   0.000003
    29  H    0.000000  -0.000000   0.000000  -0.000000   0.000000   0.000002
    30  H    0.000000   0.000000  -0.000000   0.000000  -0.000000   0.000000
    31  H    0.000000   0.000000  -0.000000   0.000000   0.000000   0.000000
    32  H    0.000000  -0.000000   0.000000  -0.000000  -0.000000  -0.000000
               7          8          9         10         11         12
     1  O   -0.000000   0.000000  -0.000000   0.000000   0.000000  -0.079975
     2  C    0.000001   0.000000   0.000000  -0.000000   0.000000   0.572714
     3  C   -0.000106   0.000001  -0.000000   0.000000  -0.000000  -0.088230
     4  C    0.003254   0.000160  -0.000001  -0.000000   0.000000   0.006206
     5  C   -0.037592  -0.005119   0.000153   0.000001   0.000000   0.000394
     6  C    0.358985  -0.037785   0.003481  -0.000123   0.000001   0.000001
     7  C    4.917121   0.374747  -0.034241   0.003449  -0.000130   0.000000
     8  C    0.374747   4.899805   0.374125  -0.035246   0.003703  -0.000000
     9  C   -0.034241   0.374125   4.889697   0.379748  -0.041578   0.000000
    10  C    0.003449  -0.035246   0.379748   4.873290   0.366096  -0.000000
    11  C   -0.000130   0.003703  -0.041578   0.366096   4.921070   0.000000
    12  O    0.000000  -0.000000   0.000000  -0.000000   0.000000   8.040296
    13  H    0.000000   0.000000  -0.000000  -0.000000   0.000000   0.011474
    14  H    0.000002  -0.000002   0.000000  -0.000000   0.000000   0.001177
    15  H    0.000003  -0.000000  -0.000000   0.000000  -0.000000   0.001171
    16  H    0.000082  -0.000017  -0.000000   0.000000  -0.000000   0.002888
    17  H    0.000011   0.000001   0.000000   0.000000  -0.000000   0.002922
    18  H   -0.003332  -0.000787  -0.000026  -0.000000  -0.000000  -0.000001
    19  H   -0.003787   0.002418  -0.000096   0.000006  -0.000000  -0.000001
    20  H   -0.037451  -0.007523   0.000048  -0.000001   0.000000  -0.000001
    21  H   -0.031251   0.004474  -0.000135   0.000001  -0.000000  -0.000001
    22  H    0.377321  -0.040423  -0.004725   0.000068   0.000001   0.000000
    23  H    0.380664  -0.039535  -0.003758   0.000023   0.000001  -0.000000
    24  H   -0.040516   0.382707  -0.038746  -0.003879   0.000044  -0.000000
    25  H   -0.039059   0.383422  -0.038446  -0.003741   0.000051   0.000000
    26  H   -0.003962  -0.038856   0.382907  -0.039830  -0.003202   0.000000
    27  H   -0.003495  -0.038958   0.382941  -0.039909  -0.003244  -0.000000
    28  H    0.000047  -0.004045  -0.038996   0.385987  -0.038455   0.000000
    29  H    0.000050  -0.003895  -0.039078   0.386433  -0.038524   0.000000
    30  H    0.000001   0.000051  -0.004934  -0.034554   0.387498   0.000000
    31  H    0.000001   0.000056  -0.004938  -0.034555   0.387343   0.000000
    32  H    0.000001  -0.000149   0.004080  -0.026846   0.378356   0.000000
              13         14         15         16         17         18
     1  O    0.267641   0.002369   0.002374   0.000056   0.000056  -0.000000
     2  C   -0.009419  -0.024848  -0.024935  -0.002497  -0.002504   0.000009
     3  C    0.011330   0.367856   0.368081  -0.037528  -0.037461  -0.004096
     4  C   -0.000319  -0.034851  -0.034870   0.389114   0.388786  -0.038161
     5  C    0.000002  -0.002841  -0.002845  -0.039758  -0.039684   0.380343
     6  C   -0.000000   0.000015   0.000016  -0.003151  -0.003562  -0.039821
     7  C    0.000000   0.000002   0.000003   0.000082   0.000011  -0.003332
     8  C    0.000000  -0.000002  -0.000000  -0.000017   0.000001  -0.000787
     9  C   -0.000000   0.000000  -0.000000  -0.000000   0.000000  -0.000026
    10  C   -0.000000  -0.000000   0.000000   0.000000   0.000000  -0.000000
    11  C    0.000000   0.000000  -0.000000  -0.000000  -0.000000  -0.000000
    12  O    0.011474   0.001177   0.001171   0.002888   0.002922  -0.000001
    13  H    0.401439  -0.000363  -0.000365  -0.000004  -0.000004   0.000000
    14  H   -0.000363   0.582092  -0.028635  -0.004607   0.005156  -0.000420
    15  H   -0.000365  -0.028635   0.582036   0.005146  -0.004584   0.004535
    16  H   -0.000004  -0.004607   0.005146   0.612288  -0.036079   0.005875
    17  H   -0.000004   0.005156  -0.004584  -0.036079   0.612474  -0.005734
    18  H    0.000000  -0.000420   0.004535   0.005875  -0.005734   0.648524
    19  H    0.000000   0.004656  -0.000435  -0.005743   0.005824  -0.042566
    20  H    0.000000   0.000002   0.000005   0.004623  -0.000523   0.006105
    21  H    0.000000   0.000007   0.000003  -0.000578   0.005293  -0.005360
    22  H   -0.000000  -0.000000   0.000000   0.000004  -0.000006   0.000043
    23  H    0.000000   0.000000  -0.000001   0.000008   0.000004   0.005604
    24  H   -0.000000   0.000000  -0.000000   0.000000   0.000001   0.000081
    25  H   -0.000000  -0.000003   0.000001   0.000011  -0.000001   0.000501
    26  H   -0.000000  -0.000000  -0.000000   0.000000  -0.000000   0.000001
    27  H   -0.000000   0.000000  -0.000000  -0.000000   0.000000   0.000000
    28  H    0.000000  -0.000000  -0.000000   0.000000  -0.000000   0.000000
    29  H   -0.000000  -0.000000   0.000000  -0.000000  -0.000000  -0.000000
    30  H    0.000000   0.000000  -0.000000  -0.000000   0.000000   0.000000
    31  H    0.000000  -0.000000   0.000000   0.000000  -0.000000  -0.000000
    32  H    0.000000  -0.000000   0.000000   0.000000   0.000000   0.000000
              19         20         21         22         23         24
     1  O   -0.000000  -0.000000  -0.000000   0.000000  -0.000000  -0.000000
     2  C    0.000015   0.000000   0.000000  -0.000000   0.000000  -0.000000
     3  C   -0.003923   0.000038   0.000085   0.000001  -0.000001  -0.000000
     4  C   -0.037772  -0.003516  -0.004407  -0.000130   0.000056  -0.000026
     5  C    0.381468  -0.039681  -0.040905   0.004530  -0.007825  -0.000811
     6  C   -0.038235   0.381690   0.377038  -0.031498  -0.037544  -0.003242
     7  C   -0.003787  -0.037451  -0.031251   0.377321   0.380664  -0.040516
     8  C    0.002418  -0.007523   0.004474  -0.040423  -0.039535   0.382707
     9  C   -0.000096   0.000048  -0.000135  -0.004725  -0.003758  -0.038746
    10  C    0.000006  -0.000001   0.000001   0.000068   0.000023  -0.003879
    11  C   -0.000000   0.000000  -0.000000   0.000001   0.000001   0.000044
    12  O   -0.000001  -0.000001  -0.000001   0.000000  -0.000000  -0.000000
    13  H    0.000000   0.000000   0.000000  -0.000000   0.000000  -0.000000
    14  H    0.004656   0.000002   0.000007  -0.000000   0.000000   0.000000
    15  H   -0.000435   0.000005   0.000003   0.000000  -0.000001  -0.000000
    16  H   -0.005743   0.004623  -0.000578   0.000004   0.000008   0.000000
    17  H    0.005824  -0.000523   0.005293  -0.000006   0.000004   0.000001
    18  H   -0.042566   0.006105  -0.005360   0.000043   0.005604   0.000081
    19  H    0.642274  -0.006169   0.006126  -0.000036  -0.000167   0.000499
    20  H   -0.006169   0.642459  -0.040140  -0.003081   0.006034   0.005588
    21  H    0.006126  -0.040140   0.647679  -0.004644  -0.002991   0.000048
    22  H   -0.000036  -0.003081  -0.004644   0.649350  -0.040594  -0.005397
    23  H   -0.000167   0.006034  -0.002991  -0.040594   0.647463   0.006126
    24  H    0.000499   0.005588   0.000048  -0.005397   0.006126   0.646626
    25  H    0.002051  -0.000183  -0.000044   0.006132  -0.006213  -0.042428
    26  H   -0.000001   0.000004  -0.000006   0.005427  -0.000516  -0.006020
    27  H    0.000011   0.000008   0.000004  -0.000566   0.004747   0.006117
    28  H   -0.000004   0.000000  -0.000000   0.000007   0.000003  -0.000556
    29  H    0.000001  -0.000002   0.000000   0.000003   0.000005   0.004998
    30  H   -0.000000   0.000000   0.000000  -0.000002   0.000000   0.000001
    31  H    0.000000  -0.000000   0.000000   0.000000  -0.000001   0.000007
    32  H    0.000000  -0.000000   0.000000   0.000000   0.000000   0.000002
              25         26         27         28         29         30
     1  O    0.000000   0.000000   0.000000  -0.000000   0.000000   0.000000
     2  C   -0.000000   0.000000  -0.000000   0.000000  -0.000000   0.000000
     3  C    0.000004   0.000000   0.000000  -0.000000   0.000000  -0.000000
     4  C   -0.000076   0.000000  -0.000000   0.000000  -0.000000   0.000000
     5  C    0.002213   0.000001  -0.000018  -0.000002   0.000000  -0.000000
     6  C   -0.003826   0.000017   0.000091   0.000003   0.000002   0.000000
     7  C   -0.039059  -0.003962  -0.003495   0.000047   0.000050   0.000001
     8  C    0.383422  -0.038856  -0.038958  -0.004045  -0.003895   0.000051
     9  C   -0.038446   0.382907   0.382941  -0.038996  -0.039078  -0.004934
    10  C   -0.003741  -0.039830  -0.039909   0.385987   0.386433  -0.034554
    11  C    0.000051  -0.003202  -0.003244  -0.038455  -0.038524   0.387498
    12  O    0.000000   0.000000  -0.000000   0.000000   0.000000   0.000000
    13  H   -0.000000  -0.000000  -0.000000   0.000000  -0.000000   0.000000
    14  H   -0.000003  -0.000000   0.000000  -0.000000  -0.000000   0.000000
    15  H    0.000001  -0.000000  -0.000000  -0.000000   0.000000  -0.000000
    16  H    0.000011   0.000000  -0.000000   0.000000  -0.000000  -0.000000
    17  H   -0.000001  -0.000000   0.000000  -0.000000  -0.000000   0.000000
    18  H    0.000501   0.000001   0.000000   0.000000  -0.000000   0.000000
    19  H    0.002051  -0.000001   0.000011  -0.000004   0.000001  -0.000000
    20  H   -0.000183   0.000004   0.000008   0.000000  -0.000002   0.000000
    21  H   -0.000044  -0.000006   0.000004  -0.000000   0.000000   0.000000
    22  H    0.006132   0.005427  -0.000566   0.000007   0.000003  -0.000002
    23  H   -0.006213  -0.000516   0.004747   0.000003   0.000005   0.000000
    24  H   -0.042428  -0.006020   0.006117  -0.000556   0.004998   0.000001
    25  H    0.643225   0.006084  -0.006072   0.005202  -0.000591   0.000007
    26  H    0.006084   0.646579  -0.042178   0.006128  -0.006017   0.004801
    27  H   -0.006072  -0.042178   0.647375  -0.006037   0.006122  -0.000484
    28  H    0.005202   0.006128  -0.006037   0.643148  -0.041369   0.005502
    29  H   -0.000591  -0.006017   0.006122  -0.041369   0.642179  -0.005038
    30  H    0.000007   0.004801  -0.000484   0.005502  -0.005038   0.611224
    31  H    0.000000  -0.000482   0.004806  -0.005034   0.005500  -0.033801
    32  H    0.000002  -0.000022  -0.000020  -0.003113  -0.003093  -0.032552
              31         32
     1  O    0.000000   0.000000
     2  C    0.000000  -0.000000
     3  C   -0.000000   0.000000
     4  C    0.000000  -0.000000
     5  C    0.000000  -0.000000
     6  C    0.000000  -0.000000
     7  C    0.000001   0.000001
     8  C    0.000056  -0.000149
     9  C   -0.004938   0.004080
    10  C   -0.034555  -0.026846
    11  C    0.387343   0.378356
    12  O    0.000000   0.000000
    13  H    0.000000   0.000000
    14  H   -0.000000  -0.000000
    15  H    0.000000   0.000000
    16  H    0.000000   0.000000
    17  H   -0.000000   0.000000
    18  H   -0.000000   0.000000
    19  H    0.000000   0.000000
    20  H   -0.000000  -0.000000
    21  H    0.000000   0.000000
    22  H    0.000000   0.000000
    23  H   -0.000001   0.000000
    24  H    0.000007   0.000002
    25  H    0.000000   0.000002
    26  H   -0.000482  -0.000022
    27  H    0.004806  -0.000020
    28  H   -0.005034  -0.003113
    29  H    0.005500  -0.003093
    30  H   -0.033801  -0.032552
    31  H    0.611788  -0.032580
    32  H   -0.032580   0.617293
 Mulliken charges:
               1
     1  O   -0.473439
     2  C    0.560214
     3  C   -0.259136
     4  C   -0.169124
     5  C   -0.178943
     6  C   -0.181490
     7  C   -0.180818
     8  C   -0.173332
     9  C   -0.167482
    10  C   -0.176415
    11  C   -0.319033
    12  O   -0.471034
    13  H    0.318587
    14  H    0.133238
    15  H    0.133300
    16  H    0.109867
    17  H    0.109615
    18  H    0.088684
    19  H    0.093587
    20  H    0.091667
    21  H    0.089704
    22  H    0.088216
    23  H    0.088408
    24  H    0.088776
    25  H    0.091778
    26  H    0.089141
    27  H    0.088760
    28  H    0.091584
    29  H    0.092314
    30  H    0.102276
    31  H    0.101890
    32  H    0.098639
 Sum of Mulliken charges =  -0.00000
 Mulliken charges with hydrogens summed into heavy atoms:
               1
     1  O   -0.154852
     2  C    0.560214
     3  C    0.007402
     4  C    0.050359
     5  C    0.003328
     6  C   -0.000119
     7  C   -0.004195
     8  C    0.007222
     9  C    0.010420
    10  C    0.007483
    11  C   -0.016228
    12  O   -0.471034
 Electronic spatial extent (au):  <R**2>=           5717.5409
 Charge=              0.0000 electrons
 Dipole moment (field-independent basis, Debye):
    X=              0.6178    Y=             -1.1509    Z=              0.6819  Tot=              1.4735
 Quadrupole moment (field-independent basis, Debye-Ang):
   XX=            -76.8970   YY=            -77.9632   ZZ=            -76.2692
   XY=              7.2098   XZ=             -3.6683   YZ=              1.9544
 Traceless Quadrupole moment (field-independent basis, Debye-Ang):
   XX=              0.1461   YY=             -0.9201   ZZ=              0.7739
   XY=              7.2098   XZ=             -3.6683   YZ=              1.9544
 Octapole moment (field-independent basis, Debye-Ang**2):
  XXX=            -94.2264  YYY=             -1.2660  ZZZ=             -0.2058  XYY=             -5.7786
  XXY=            -44.0998  XXZ=             12.5275  XZZ=            -11.2874  YZZ=             -2.0803
  YYZ=             -2.0172  XYZ=            -11.7572
 Hexadecapole moment (field-independent basis, Debye-Ang**3):
 XXXX=          -6243.8588 YYYY=           -543.3734 ZZZZ=           -182.6673 XXXY=            328.8036
 XXXZ=            -78.5295 YYYX=             10.5111 YYYZ=              2.0538 ZZZX=              4.2640
 ZZZY=             -4.1445 XXYY=          -1233.6543 XXZZ=          -1163.5143 YYZZ=           -123.2081
 XXYZ=             52.4974 YYXZ=              6.3959 ZZXY=              9.4869
 N-N= 6.733324565535D+02 E-N=-2.609946783632D+03  KE= 5.384917331801D+02
 Calling FoFJK, ICntrl=      2127 FMM=F ISym2X=0 I1Cent= 0 IOpClX= 0 NMat=1 NMatS=1 NMatT=0.
 ***** Axes restored to original set *****
 -------------------------------------------------------------------
 Center     Atomic                   Forces (Hartrees/Bohr)
 Number     Number              X              Y              Z
 -------------------------------------------------------------------
      1        8          -0.004994774   -0.001924373   -0.008895458
      2        6          -0.017889014   -0.015394551    0.004178673
      3        6          -0.006060916   -0.007672333    0.011094642
      4        6           0.003949403    0.004143212   -0.003444662
      5        6          -0.000831177   -0.004444308    0.007125810
      6        6           0.000536107    0.005957715   -0.006203462
      7        6           0.008344924   -0.004755477    0.001938417
      8        6          -0.010190488    0.004481947   -0.000495692
      9        6           0.011179682   -0.002775860    0.001499823
     10        6          -0.009370436    0.002104493   -0.001877690
     11        6           0.004345424   -0.000144970    0.002801507
     12        8           0.007551338    0.009600523   -0.014774548
     13        1           0.008592708    0.003767001    0.013299703
     14        1           0.003170717    0.000994438   -0.004094676
     15        1           0.000751451    0.003971451   -0.003375241
     16        1           0.001852719   -0.000805788    0.001523998
     17        1          -0.000019065    0.001419939    0.002051051
     18        1          -0.002110922    0.003896701   -0.001812180
     19        1           0.002756815   -0.001441978   -0.002990545
     20        1           0.002482893   -0.003765332    0.000539779
     21        1          -0.002012009    0.002265808    0.003072849
     22        1          -0.003029737   -0.002946733    0.000322997
     23        1          -0.000326447    0.004310902   -0.001862257
     24        1           0.001194842   -0.003989204    0.001839179
     25        1           0.003249455    0.002325925   -0.001243101
     26        1          -0.003367924   -0.002771495    0.001056989
     27        1          -0.001342299    0.003931664   -0.001659100
     28        1           0.003048380    0.002885958   -0.000092154
     29        1           0.001203384   -0.003245953    0.002340759
     30        1          -0.002628036   -0.001493221    0.001086492
     31        1          -0.001330715    0.002829084   -0.000607463
     32        1           0.001293717   -0.001315181   -0.002344438
 -------------------------------------------------------------------
 Cartesian Forces:  Max     0.017889014 RMS     0.005136700

 GradGradGradGradGradGradGradGradGradGradGradGradGradGradGradGradGradGrad
 Berny optimization.
 FormGI is forming the generalized inverse of G from B-inverse, IUseBI=4.
 Internal  Forces:  Max     0.018787648 RMS     0.002890157
 Search for a local minimum.
 Step number   1 out of a maximum of  179
 All quantities printed in internal units (Hartrees-Bohrs-Radians)
 Mixed Optimization -- RFO/linear search
 Second derivative matrix not updated -- first step.
 ITU=  0
     Eigenvalues ---    0.00230   0.00230   0.00230   0.00230   0.00251
     Eigenvalues ---    0.00253   0.00260   0.00302   0.00401   0.00874
     Eigenvalues ---    0.02357   0.03245   0.03245   0.03414   0.03416
     Eigenvalues ---    0.03417   0.03431   0.03443   0.03826   0.04686
     Eigenvalues ---    0.04687   0.04733   0.04733   0.04734   0.04741
     Eigenvalues ---    0.04759   0.05195   0.05410   0.05464   0.08261
     Eigenvalues ---    0.08295   0.08297   0.08317   0.08320   0.08564
     Eigenvalues ---    0.08565   0.09617   0.12164   0.12189   0.12191
     Eigenvalues ---    0.12202   0.12204   0.12388   0.12388   0.12964
     Eigenvalues ---    0.16000   0.16000   0.16000   0.16000   0.21881
     Eigenvalues ---    0.21890   0.21894   0.21894   0.21894   0.21908
     Eigenvalues ---    0.21909   0.22005   0.25000   0.25000   0.27921
     Eigenvalues ---    0.28374   0.28434   0.28439   0.28614   0.28626
     Eigenvalues ---    0.28674   0.28962   0.29649   0.34495   0.34497
     Eigenvalues ---    0.34630   0.34631   0.34636   0.34637   0.34637
     Eigenvalues ---    0.34638   0.34640   0.34641   0.34641   0.34642
     Eigenvalues ---    0.34719   0.34720   0.34725   0.34733   0.34751
     Eigenvalues ---    0.34840   0.34840   0.55091   0.55960   0.93997
 RFO step:  Lambda=-3.90867393D-03 EMin= 2.30000000D-03
 Linear search not attempted -- first point.
 Iteration  1 RMS(Cart)=  0.03002066 RMS(Int)=  0.00015432
 Iteration  2 RMS(Cart)=  0.00025288 RMS(Int)=  0.00003431
 Iteration  3 RMS(Cart)=  0.00000007 RMS(Int)=  0.00003431
 Variable       Old X    -DE/DX   Delta X   Delta X   Delta X     New X
                                 (Linear)    (Quad)   (Total)
    R1        2.55052   0.00345   0.00000   0.00622   0.00622   2.55673
    R2        1.80989   0.01583   0.00000   0.02809   0.02809   1.83798
    R3        2.88669  -0.00919   0.00000  -0.03059  -0.03059   2.85611
    R4        2.31144  -0.01879   0.00000  -0.01990  -0.01990   2.29153
    R5        2.92311  -0.01090   0.00000  -0.03850  -0.03850   2.88461
    R6        2.05935   0.00444   0.00000   0.01262   0.01262   2.07197
    R7        2.05935   0.00445   0.00000   0.01262   0.01262   2.07196
    R8        2.90789  -0.00381   0.00000  -0.01314  -0.01314   2.89475
    R9        2.06503   0.00184   0.00000   0.00528   0.00528   2.07031
   R10        2.06500   0.00185   0.00000   0.00529   0.00529   2.07030
   R11        2.91188  -0.00499   0.00000  -0.01731  -0.01731   2.89456
   R12        2.06267   0.00474   0.00000   0.01354   0.01354   2.07622
   R13        2.06133   0.00431   0.00000   0.01227   0.01227   2.07361
   R14        2.91329  -0.00339   0.00000  -0.01179  -0.01179   2.90150
   R15        2.06280   0.00432   0.00000   0.01235   0.01235   2.07515
   R16        2.06268   0.00416   0.00000   0.01189   0.01189   2.07457
   R17        2.91199  -0.00436   0.00000  -0.01511  -0.01511   2.89688
   R18        2.06261   0.00414   0.00000   0.01183   0.01183   2.07444
   R19        2.06260   0.00453   0.00000   0.01292   0.01292   2.07552
   R20        2.90814  -0.00346   0.00000  -0.01192  -0.01192   2.89622
   R21        2.06269   0.00452   0.00000   0.01290   0.01290   2.07559
   R22        2.06132   0.00418   0.00000   0.01189   0.01189   2.07321
   R23        2.90687  -0.00348   0.00000  -0.01196  -0.01196   2.89491
   R24        2.06269   0.00448   0.00000   0.01278   0.01278   2.07547
   R25        2.06279   0.00446   0.00000   0.01274   0.01274   2.07553
   R26        2.90082  -0.00166   0.00000  -0.00566  -0.00566   2.89516
   R27        2.06262   0.00406   0.00000   0.01160   0.01160   2.07422
   R28        2.06263   0.00404   0.00000   0.01152   0.01152   2.07415
   R29        2.06110   0.00315   0.00000   0.00896   0.00896   2.07006
   R30        2.06123   0.00312   0.00000   0.00888   0.00888   2.07012
   R31        2.06081   0.00295   0.00000   0.00841   0.00841   2.06921
    A1        1.81764   0.00684   0.00000   0.04174   0.04174   1.85937
    A2        1.95046   0.00081   0.00000   0.00317   0.00317   1.95363
    A3        2.14943  -0.00481   0.00000  -0.01893  -0.01893   2.13050
    A4        2.18330   0.00400   0.00000   0.01576   0.01576   2.19905
    A5        1.99514  -0.00655   0.00000  -0.02656  -0.02644   1.96870
    A6        1.87309   0.00189   0.00000   0.00745   0.00757   1.88066
    A7        1.87318   0.00189   0.00000   0.00739   0.00750   1.88068
    A8        1.92090   0.00274   0.00000   0.01663   0.01663   1.93753
    A9        1.92083   0.00272   0.00000   0.01642   0.01642   1.93725
   A10        1.87626  -0.00261   0.00000  -0.02212  -0.02221   1.85405
   A11        1.96237  -0.00158   0.00000  -0.00767  -0.00764   1.95473
   A12        1.91619  -0.00059   0.00000  -0.01046  -0.01043   1.90575
   A13        1.91580  -0.00050   0.00000  -0.00944  -0.00941   1.90639
   A14        1.90703   0.00152   0.00000   0.01351   0.01343   1.92046
   A15        1.90775   0.00148   0.00000   0.01355   0.01348   1.92123
   A16        1.85136  -0.00023   0.00000   0.00123   0.00101   1.85237
   A17        1.96677  -0.00091   0.00000  -0.00459  -0.00459   1.96218
   A18        1.91054   0.00063   0.00000   0.00342   0.00340   1.91395
   A19        1.90389   0.00037   0.00000   0.00375   0.00375   1.90764
   A20        1.90928  -0.00023   0.00000  -0.00502  -0.00502   1.90425
   A21        1.91575   0.00030   0.00000   0.00155   0.00156   1.91732
   A22        1.85420  -0.00011   0.00000   0.00127   0.00126   1.85546
   A23        1.99373  -0.00020   0.00000  -0.00305  -0.00310   1.99063
   A24        1.91577  -0.00051   0.00000  -0.01083  -0.01088   1.90489
   A25        1.90114  -0.00047   0.00000  -0.00154  -0.00153   1.89961
   A26        1.91119  -0.00004   0.00000  -0.00432  -0.00440   1.90678
   A27        1.89182   0.00081   0.00000   0.01149   0.01150   1.90332
   A28        1.84405   0.00047   0.00000   0.00962   0.00962   1.85367
   A29        1.99396   0.00050   0.00000   0.00036   0.00033   1.99428
   A30        1.89175   0.00035   0.00000   0.00757   0.00757   1.89932
   A31        1.91147  -0.00027   0.00000  -0.00510  -0.00514   1.90633
   A32        1.90053  -0.00047   0.00000  -0.00084  -0.00085   1.89968
   A33        1.91545  -0.00064   0.00000  -0.00992  -0.00995   1.90550
   A34        1.84455   0.00057   0.00000   0.00895   0.00896   1.85351
   A35        1.96700   0.00114   0.00000   0.00496   0.00496   1.97196
   A36        1.90982  -0.00069   0.00000  -0.00547  -0.00546   1.90435
   A37        1.91639  -0.00007   0.00000   0.00182   0.00182   1.91821
   A38        1.90986  -0.00020   0.00000  -0.00152  -0.00152   1.90835
   A39        1.90322  -0.00055   0.00000  -0.00190  -0.00191   1.90132
   A40        1.85412   0.00033   0.00000   0.00194   0.00194   1.85606
   A41        1.96817   0.00195   0.00000   0.00892   0.00892   1.97710
   A42        1.91032  -0.00061   0.00000  -0.00229  -0.00229   1.90804
   A43        1.90973  -0.00053   0.00000  -0.00189  -0.00188   1.90785
   A44        1.90926  -0.00063   0.00000  -0.00279  -0.00279   1.90647
   A45        1.90977  -0.00073   0.00000  -0.00383  -0.00384   1.90593
   A46        1.85303   0.00046   0.00000   0.00142   0.00141   1.85445
   A47        1.96685   0.00126   0.00000   0.00562   0.00564   1.97249
   A48        1.91458  -0.00101   0.00000  -0.00882  -0.00884   1.90574
   A49        1.91447  -0.00104   0.00000  -0.00905  -0.00907   1.90539
   A50        1.90600   0.00018   0.00000   0.00502   0.00504   1.91104
   A51        1.90592   0.00020   0.00000   0.00512   0.00514   1.91106
   A52        1.85248   0.00037   0.00000   0.00198   0.00190   1.85438
   A53        1.94359  -0.00068   0.00000  -0.00541  -0.00544   1.93816
   A54        1.94352  -0.00067   0.00000  -0.00528  -0.00531   1.93822
   A55        1.93727   0.00097   0.00000   0.00841   0.00841   1.94568
   A56        1.88175   0.00019   0.00000  -0.00349  -0.00354   1.87820
   A57        1.87741   0.00011   0.00000   0.00294   0.00295   1.88036
   A58        1.87729   0.00011   0.00000   0.00306   0.00307   1.88036
    D1        3.14154   0.00000   0.00000   0.00032   0.00031  -3.14133
    D2        0.00016  -0.00001   0.00000  -0.00052  -0.00051  -0.00035
    D3        3.14114   0.00000   0.00000  -0.00018  -0.00018   3.14096
    D4        1.00567  -0.00059   0.00000  -0.00948  -0.00949   0.99618
    D5       -1.00659   0.00057   0.00000   0.00881   0.00881  -0.99778
    D6       -0.00066   0.00001   0.00000   0.00067   0.00067   0.00001
    D7       -2.13613  -0.00058   0.00000  -0.00863  -0.00863  -2.14477
    D8        2.13478   0.00058   0.00000   0.00966   0.00967   2.14445
    D9        3.14094   0.00000   0.00000   0.00045   0.00045   3.14139
   D10       -1.01530   0.00045   0.00000   0.00507   0.00507  -1.01023
   D11        1.01334  -0.00046   0.00000  -0.00495  -0.00494   1.00840
   D12       -1.03307  -0.00006   0.00000   0.00404   0.00398  -1.02908
   D13        1.09388   0.00039   0.00000   0.00867   0.00861   1.10248
   D14        3.12252  -0.00052   0.00000  -0.00135  -0.00141   3.12111
   D15        1.03170   0.00007   0.00000  -0.00290  -0.00285   1.02885
   D16       -3.12454   0.00052   0.00000   0.00172   0.00177  -3.12277
   D17       -1.09590  -0.00039   0.00000  -0.00830  -0.00824  -1.10414
   D18        3.13939   0.00013   0.00000   0.00103   0.00103   3.14043
   D19       -1.01500  -0.00033   0.00000  -0.00606  -0.00607  -1.02107
   D20        1.00708   0.00010   0.00000  -0.00054  -0.00053   1.00654
   D21        1.00726   0.00086   0.00000   0.00996   0.01003   1.01728
   D22        3.13604   0.00040   0.00000   0.00287   0.00293   3.13897
   D23       -1.12506   0.00083   0.00000   0.00839   0.00846  -1.11660
   D24       -1.01163  -0.00053   0.00000  -0.00657  -0.00663  -1.01826
   D25        1.11716  -0.00099   0.00000  -0.01366  -0.01373   1.10343
   D26        3.13924  -0.00056   0.00000  -0.00814  -0.00820   3.13104
   D27        3.07396   0.00041   0.00000   0.01239   0.01238   3.08634
   D28       -1.05514  -0.00019   0.00000  -0.00391  -0.00389  -1.05902
   D29        0.95614  -0.00017   0.00000   0.00079   0.00080   0.95693
   D30        0.94445   0.00038   0.00000   0.01471   0.01468   0.95914
   D31        3.09854  -0.00022   0.00000  -0.00160  -0.00158   3.09696
   D32       -1.17337  -0.00019   0.00000   0.00310   0.00310  -1.17027
   D33       -1.08360   0.00047   0.00000   0.01518   0.01516  -1.06845
   D34        1.07048  -0.00012   0.00000  -0.00113  -0.00111   1.06938
   D35        3.08176  -0.00010   0.00000   0.00357   0.00358   3.08533
   D36        1.15878  -0.00054   0.00000  -0.02828  -0.02827   1.13051
   D37       -3.00213  -0.00056   0.00000  -0.02357  -0.02356  -3.02569
   D38       -0.99775   0.00016   0.00000  -0.01154  -0.01154  -1.00929
   D39       -0.99778   0.00030   0.00000  -0.00850  -0.00850  -1.00628
   D40        1.12450   0.00028   0.00000  -0.00379  -0.00379   1.12071
   D41        3.12888   0.00100   0.00000   0.00824   0.00824   3.13711
   D42       -3.00145  -0.00068   0.00000  -0.02386  -0.02387  -3.02531
   D43       -0.87917  -0.00070   0.00000  -0.01916  -0.01915  -0.89833
   D44        1.12521   0.00002   0.00000  -0.00713  -0.00713   1.11808
   D45        3.07415   0.00034   0.00000   0.00987   0.00985   3.08400
   D46        0.94497   0.00031   0.00000   0.01236   0.01235   0.95732
   D47       -1.08366   0.00035   0.00000   0.01213   0.01212  -1.07154
   D48        0.95671  -0.00010   0.00000   0.00050   0.00050   0.95721
   D49       -1.17246  -0.00012   0.00000   0.00299   0.00299  -1.16947
   D50        3.08209  -0.00008   0.00000   0.00276   0.00277   3.08485
   D51       -1.05465  -0.00016   0.00000  -0.00429  -0.00428  -1.05893
   D52        3.09936  -0.00019   0.00000  -0.00180  -0.00179   3.09757
   D53        1.07072  -0.00015   0.00000  -0.00203  -0.00202   1.06871
   D54        3.13980   0.00014   0.00000   0.00121   0.00121   3.14101
   D55       -1.01382   0.00023   0.00000   0.00206   0.00206  -1.01176
   D56        1.01001   0.00014   0.00000   0.00142   0.00141   1.01143
   D57       -1.01424  -0.00011   0.00000  -0.00350  -0.00350  -1.01774
   D58        1.11532  -0.00003   0.00000  -0.00265  -0.00265   1.11267
   D59        3.13916  -0.00012   0.00000  -0.00330  -0.00330   3.13586
   D60        1.00699  -0.00014   0.00000  -0.00309  -0.00309   1.00390
   D61        3.13655  -0.00005   0.00000  -0.00224  -0.00224   3.13432
   D62       -1.12280  -0.00014   0.00000  -0.00288  -0.00288  -1.12568
   D63        3.14139  -0.00001   0.00000  -0.00034  -0.00034   3.14104
   D64       -1.01426   0.00036   0.00000   0.00362   0.00359  -1.01067
   D65        1.01403  -0.00038   0.00000  -0.00427  -0.00424   1.00979
   D66        1.01122  -0.00010   0.00000  -0.00147  -0.00146   1.00976
   D67        3.13876   0.00026   0.00000   0.00249   0.00247   3.14123
   D68       -1.11613  -0.00047   0.00000  -0.00539  -0.00536  -1.12150
   D69       -1.01204   0.00011   0.00000   0.00055   0.00055  -1.01149
   D70        1.11550   0.00047   0.00000   0.00451   0.00448   1.11998
   D71       -3.13940  -0.00026   0.00000  -0.00337  -0.00335   3.14044
   D72       -1.05045   0.00034   0.00000   0.00596   0.00595  -1.04450
   D73        1.05050  -0.00034   0.00000  -0.00578  -0.00576   1.04474
   D74        3.14152   0.00001   0.00000   0.00021   0.00021  -3.14146
   D75        3.10035   0.00066   0.00000   0.00984   0.00983   3.11018
   D76       -1.08188  -0.00002   0.00000  -0.00190  -0.00188  -1.08377
   D77        1.00914   0.00033   0.00000   0.00409   0.00409   1.01323
   D78        1.08173   0.00001   0.00000   0.00186   0.00185   1.08357
   D79       -3.10051  -0.00067   0.00000  -0.00988  -0.00987  -3.11037
   D80       -1.00949  -0.00032   0.00000  -0.00389  -0.00389  -1.01338
         Item               Value     Threshold  Converged?
 Maximum Force            0.018788     0.000450     NO 
 RMS     Force            0.002890     0.000300     NO 
 Maximum Displacement     0.100117     0.001800     NO 
 RMS     Displacement     0.029945     0.001200     NO 
 Predicted change in Energy=-1.990898D-03
 GradGradGradGradGradGradGradGradGradGradGradGradGradGradGradGradGradGrad

                          Input orientation:                          
 ---------------------------------------------------------------------
 Center     Atomic      Atomic             Coordinates (Angstroms)
 Number     Number       Type             X           Y           Z
 ---------------------------------------------------------------------
      1          8           0        6.466805    0.493178    0.507327
      2          6           0        5.426883   -0.363318    0.631789
      3          6           0        4.731767   -0.603069   -0.688675
      4          6           0        3.554876   -1.568048   -0.570940
      5          6           0        2.864004   -1.797554   -1.918733
      6          6           0        1.682105   -2.766035   -1.812071
      7          6           0        0.914458   -2.963878   -3.127007
      8          6           0        1.731983   -3.629975   -4.239634
      9          6           0        0.915227   -3.886225   -5.510913
     10          6           0        1.726063   -4.551102   -6.627725
     11          6           0        0.903732   -4.805124   -7.895173
     12          8           0        5.123830   -0.857615    1.696820
     13          1           0        6.853395    0.589967    1.394550
     14          1           0        5.479570   -0.979563   -1.396645
     15          1           0        4.405284    0.369307   -1.076056
     16          1           0        3.910029   -2.521255   -0.164106
     17          1           0        2.837231   -1.174685    0.157406
     18          1           0        2.508064   -0.838578   -2.319712
     19          1           0        3.595927   -2.180877   -2.640835
     20          1           0        2.044911   -3.738947   -1.454734
     21          1           0        0.989285   -2.396713   -1.044736
     22          1           0        0.023188   -3.573231   -2.928580
     23          1           0        0.547852   -1.991173   -3.481623
     24          1           0        2.135736   -4.581688   -3.868670
     25          1           0        2.597513   -3.005023   -4.492442
     26          1           0        0.050705   -4.517888   -5.266275
     27          1           0        0.506850   -2.935081   -5.878151
     28          1           0        2.589631   -3.919107   -6.871917
     29          1           0        2.134897   -5.500954   -6.259830
     30          1           0        0.051377   -5.460747   -7.686321
     31          1           0        0.509050   -3.867958   -8.302575
     32          1           0        1.506771   -5.280441   -8.675815
 ---------------------------------------------------------------------
                    Distance matrix (angstroms):
                    1          2          3          4          5
     1  O    0.000000
     2  C    1.352965   0.000000
     3  C    2.375402   1.511388   0.000000
     4  C    3.727015   2.530285   1.526471   0.000000
     5  C    4.910539   3.889800   2.535424   1.531836   0.000000
     6  C    6.236619   5.076304   3.903956   2.546144   1.531737
     7  C    7.482524   6.422884   5.107908   3.931110   2.573124
     8  C    7.870995   6.932106   5.547087   4.586262   3.166358
     9  C    9.285386   8.396351   6.971303   6.061767   4.589557
    10  C    9.941245   9.161558   7.739091   6.994841   5.572391
[...]
 Alpha virt. eigenvalues --    4.07234   4.10392   4.16410   4.20050   4.21999
 Alpha virt. eigenvalues --    4.23802   4.26903   4.28292   4.29163   4.34317
 Alpha virt. eigenvalues --    4.36275   4.37981   4.44499   4.45371   4.48952
 Alpha virt. eigenvalues --    4.51021   4.52973   4.53764   4.54336   4.55130
 Alpha virt. eigenvalues --    4.55289   4.56639   4.57521   4.61022   4.61555
 Alpha virt. eigenvalues --    4.63534   4.64968   4.66294   4.67200   4.69151
 Alpha virt. eigenvalues --    4.74737   4.80572   4.82620   4.90995   5.01376
 Alpha virt. eigenvalues --    5.03450   5.11599   5.16887   5.19476   5.22291
 Alpha virt. eigenvalues --    5.24935   5.38584   5.41703   5.50098   5.59948
 Alpha virt. eigenvalues --    5.75255   5.84494   5.86332   6.15417   6.19270
 Alpha virt. eigenvalues --    6.32016   6.33967   6.43835   6.48661   6.64823
 Alpha virt. eigenvalues --    6.68411   6.73914   6.80938   6.88619   7.07317
 Alpha virt. eigenvalues --    7.09442   7.27339  22.40109  22.46440  22.46561
 Alpha virt. eigenvalues --   22.56170  22.57400  22.59633  22.60999  22.62578
 Alpha virt. eigenvalues --   22.63762  23.26865  43.93664  44.00452
          Condensed to atoms (all electrons):
               1          2          3          4          5          6
     1  O    7.934411   0.398708  -0.144623   0.012652  -0.000446   0.000010
     2  C    0.398708   4.430711   0.216922   0.001522  -0.003714   0.000446
     3  C   -0.144623   0.216922   5.535145   0.102607  -0.001439   0.005261
     4  C    0.012652   0.001522   0.102607   5.303525   0.156303  -0.026559
     5  C   -0.000446  -0.003714  -0.001439   0.156303   5.360169   0.188361
     6  C    0.000010   0.000446   0.005261  -0.026559   0.188361   5.194501
     7  C   -0.000000  -0.000017  -0.000543   0.006202  -0.043365   0.250855
     8  C    0.000000   0.000010  -0.000009   0.000924   0.013698  -0.046502
     9  C    0.000000  -0.000000   0.000002  -0.000078   0.000720   0.007637
    10  C    0.000000   0.000000   0.000000  -0.000003   0.000012  -0.000914
    11  C    0.000000  -0.000000   0.000000  -0.000000   0.000007   0.000033
    12  O   -0.088318   0.672755  -0.123457   0.020383   0.000545   0.000108
    13  H    0.290820  -0.032720   0.025040  -0.002281   0.000098  -0.000004
    14  H    0.004131  -0.015532   0.399413  -0.038317  -0.003045  -0.000167
    15  H    0.004128  -0.015048   0.398045  -0.037903  -0.003080  -0.000222
    16  H    0.000110  -0.004188  -0.037261   0.429631  -0.044486  -0.003566
    17  H    0.000098  -0.003688  -0.036790   0.436309  -0.050792  -0.004374
    18  H   -0.000013  -0.000065  -0.006147  -0.039874   0.420188  -0.047509
    19  H   -0.000015   0.000213  -0.005022  -0.036257   0.424117  -0.041368
    20  H   -0.000000  -0.000057  -0.000375  -0.002362  -0.067580   0.443830
    21  H   -0.000000  -0.000050   0.000136  -0.004394  -0.044862   0.441533
    22  H    0.000000  -0.000000   0.000029  -0.000487   0.011433  -0.054332
    23  H    0.000000  -0.000001  -0.000016  -0.000056  -0.013479  -0.031591
    24  H    0.000000  -0.000001   0.000013  -0.000090  -0.003979   0.008153
    25  H    0.000000   0.000005   0.000008   0.000915   0.002347  -0.008388
    26  H   -0.000000   0.000000  -0.000000   0.000009  -0.000165   0.000208
    27  H    0.000000  -0.000000   0.000001  -0.000003   0.000108   0.000307
    28  H   -0.000000   0.000000  -0.000000   0.000002  -0.000082   0.000095
    29  H    0.000000   0.000000   0.000000  -0.000000   0.000042  -0.000053
    30  H   -0.000000  -0.000000  -0.000000   0.000000  -0.000001   0.000003
    31  H   -0.000000   0.000000   0.000000   0.000000   0.000001  -0.000001
    32  H    0.000000  -0.000000   0.000000  -0.000000   0.000000  -0.000001
               7          8          9         10         11         12
     1  O   -0.000000   0.000000   0.000000   0.000000   0.000000  -0.088318
     2  C   -0.000017   0.000010  -0.000000   0.000000  -0.000000   0.672755
     3  C   -0.000543  -0.000009   0.000002   0.000000   0.000000  -0.123457
     4  C    0.006202   0.000924  -0.000078  -0.000003  -0.000000   0.020383
     5  C   -0.043365   0.013698   0.000720   0.000012   0.000007   0.000545
     6  C    0.250855  -0.046502   0.007637  -0.000914   0.000033   0.000108
     7  C    5.201368   0.192479  -0.029760   0.010208  -0.000849   0.000001
     8  C    0.192479   5.303137   0.217179  -0.044265   0.012007  -0.000000
     9  C   -0.029760   0.217179   5.243739   0.240013  -0.054653  -0.000000
    10  C    0.010208  -0.044265   0.240013   5.129164   0.271285   0.000000
    11  C   -0.000849   0.012007  -0.054653   0.271285   5.031345  -0.000000
    12  O    0.000001  -0.000000  -0.000000   0.000000  -0.000000   7.835428
    13  H    0.000000   0.000000   0.000000  -0.000000   0.000000   0.005812
    14  H    0.000060  -0.000064   0.000001  -0.000000   0.000000   0.001911
    15  H   -0.000070   0.000043  -0.000000   0.000000   0.000000   0.001946
    16  H    0.000079   0.000147  -0.000004   0.000001  -0.000000   0.002995
    17  H    0.000149  -0.000169   0.000007  -0.000000   0.000000   0.003085
    18  H    0.006677  -0.003325  -0.000125   0.000020  -0.000001   0.000007
    19  H   -0.007511   0.001235   0.000969  -0.000046   0.000004   0.000012
    20  H   -0.032965  -0.012290  -0.000273   0.000016  -0.000002  -0.000021
    21  H   -0.053098   0.010705  -0.000403   0.000022  -0.000000  -0.000023
    22  H    0.440901  -0.043757  -0.004625   0.000002  -0.000010  -0.000000
    23  H    0.440674  -0.066967  -0.002792  -0.000480  -0.000014  -0.000000
    24  H   -0.050624   0.425223  -0.043186  -0.004917  -0.000151   0.000000
    25  H   -0.044765   0.431679  -0.041585  -0.003205   0.000024   0.000000
    26  H   -0.005974  -0.045109   0.427682  -0.041105  -0.002906  -0.000000
    27  H   -0.004994  -0.039233   0.421368  -0.042322  -0.003540   0.000000
    28  H   -0.000425  -0.003834  -0.051235   0.428785  -0.039392  -0.000000
    29  H   -0.000457  -0.002548  -0.051988   0.428408  -0.039375  -0.000000
    30  H   -0.000033  -0.000010  -0.007353  -0.040122   0.414290  -0.000000
    31  H   -0.000032  -0.000295  -0.006716  -0.041122   0.414954   0.000000
    32  H    0.000044  -0.001045   0.013913  -0.054072   0.424494   0.000000
              13         14         15         16         17         18
     1  O    0.290820   0.004131   0.004128   0.000110   0.000098  -0.000013
     2  C   -0.032720  -0.015532  -0.015048  -0.004188  -0.003688  -0.000065
     3  C    0.025040   0.399413   0.398045  -0.037261  -0.036790  -0.006147
     4  C   -0.002281  -0.038317  -0.037903   0.429631   0.436309  -0.039874
     5  C    0.000098  -0.003045  -0.003080  -0.044486  -0.050792   0.420188
     6  C   -0.000004  -0.000167  -0.000222  -0.003566  -0.004374  -0.047509
     7  C    0.000000   0.000060  -0.000070   0.000079   0.000149   0.006677
     8  C    0.000000  -0.000064   0.000043   0.000147  -0.000169  -0.003325
     9  C    0.000000   0.000001  -0.000000  -0.000004   0.000007  -0.000125
    10  C   -0.000000  -0.000000   0.000000   0.000001  -0.000000   0.000020
    11  C    0.000000   0.000000   0.000000  -0.000000   0.000000  -0.000001
    12  O    0.005812   0.001911   0.001946   0.002995   0.003085   0.000007
    13  H    0.379027  -0.000606  -0.000617  -0.000008  -0.000005   0.000001
    14  H   -0.000606   0.499694  -0.020975  -0.002449   0.004986   0.001236
    15  H   -0.000617  -0.020975   0.500653   0.005138  -0.002649   0.000010
    16  H   -0.000008  -0.002449   0.005138   0.515623  -0.020425   0.005635
    17  H   -0.000005   0.004986  -0.002649  -0.020425   0.513512  -0.003231
    18  H    0.000001   0.001236   0.000010   0.005635  -0.003231   0.548980
    19  H    0.000001  -0.000001   0.001042  -0.003625   0.005922  -0.031489
    20  H    0.000000   0.000166  -0.000076   0.000430   0.001099   0.006367
    21  H    0.000000  -0.000071   0.000167   0.000950   0.001037  -0.002160
    22  H   -0.000000   0.000000   0.000000   0.000016  -0.000057   0.000350
    23  H   -0.000000   0.000004  -0.000014  -0.000048   0.000149   0.001082
    24  H   -0.000000   0.000002  -0.000001  -0.000021   0.000017   0.000074
    25  H    0.000000   0.000027   0.000003   0.000048  -0.000046   0.001578
    26  H    0.000000   0.000000  -0.000000  -0.000000  -0.000000   0.000016
    27  H   -0.000000  -0.000000   0.000000   0.000000  -0.000000  -0.000018
    28  H    0.000000   0.000000  -0.000000  -0.000000   0.000000   0.000002
    29  H    0.000000  -0.000000   0.000000   0.000000  -0.000000  -0.000001
    30  H    0.000000   0.000000  -0.000000  -0.000000   0.000000   0.000000
    31  H    0.000000  -0.000000   0.000000   0.000000  -0.000000  -0.000000
    32  H   -0.000000   0.000000   0.000000   0.000000  -0.000000   0.000000
              19         20         21         22         23         24
     1  O   -0.000015  -0.000000  -0.000000   0.000000   0.000000   0.000000
     2  C    0.000213  -0.000057  -0.000050  -0.000000  -0.000001  -0.000001
     3  C   -0.005022  -0.000375   0.000136   0.000029  -0.000016   0.000013
     4  C   -0.036257  -0.002362  -0.004394  -0.000487  -0.000056  -0.000090
     5  C    0.424117  -0.067580  -0.044862   0.011433  -0.013479  -0.003979
     6  C   -0.041368   0.443830   0.441533  -0.054332  -0.031591   0.008153
     7  C   -0.007511  -0.032965  -0.053098   0.440901   0.440674  -0.050624
     8  C    0.001235  -0.012290   0.010705  -0.043757  -0.066967   0.425223
     9  C    0.000969  -0.000273  -0.000403  -0.004625  -0.002792  -0.043186
    10  C   -0.000046   0.000016   0.000022   0.000002  -0.000480  -0.004917
    11  C    0.000004  -0.000002  -0.000000  -0.000010  -0.000014  -0.000151
    12  O    0.000012  -0.000021  -0.000023  -0.000000  -0.000000   0.000000
    13  H    0.000001   0.000000   0.000000  -0.000000  -0.000000  -0.000000
    14  H   -0.000001   0.000166  -0.000071   0.000000   0.000004   0.000002
    15  H    0.001042  -0.000076   0.000167   0.000000  -0.000014  -0.000001
    16  H   -0.003625   0.000430   0.000950   0.000016  -0.000048  -0.000021
    17  H    0.005922   0.001099   0.001037  -0.000057   0.000149   0.000017
    18  H   -0.031489   0.006367  -0.002160   0.000350   0.001082   0.000074
    19  H    0.548202  -0.001554   0.005233  -0.000612   0.001846   0.001663
    20  H   -0.001554   0.528135  -0.020872  -0.001860   0.005913   0.000988
    21  H    0.005233  -0.020872   0.529511  -0.007547  -0.001781   0.000365
    22  H   -0.000612  -0.001860  -0.007547   0.531608  -0.021493  -0.001844
    23  H    0.001846   0.005913  -0.001781  -0.021493   0.534008   0.006450
    24  H    0.001663   0.000988   0.000365  -0.001844   0.006450   0.547087
    25  H   -0.007940   0.001743  -0.000622   0.005260  -0.001517  -0.030484
    26  H   -0.000045   0.000155  -0.000058   0.001155   0.001237  -0.004321
    27  H    0.000068  -0.000055   0.000019   0.001084   0.000562   0.006497
    28  H    0.000034   0.000005   0.000000  -0.000073   0.000197   0.000935
    29  H    0.000010  -0.000020   0.000000   0.000178  -0.000078   0.001026
    30  H    0.000000  -0.000000   0.000000  -0.000026   0.000012   0.000157
    31  H   -0.000000  -0.000000  -0.000000   0.000013  -0.000021  -0.000066
    32  H   -0.000000   0.000000   0.000000   0.000001   0.000000   0.000004
              25         26         27         28         29         30
     1  O    0.000000  -0.000000   0.000000  -0.000000   0.000000  -0.000000
     2  C    0.000005   0.000000  -0.000000   0.000000   0.000000  -0.000000
     3  C    0.000008  -0.000000   0.000001  -0.000000   0.000000  -0.000000
     4  C    0.000915   0.000009  -0.000003   0.000002  -0.000000   0.000000
     5  C    0.002347  -0.000165   0.000108  -0.000082   0.000042  -0.000001
     6  C   -0.008388   0.000208   0.000307   0.000095  -0.000053   0.000003
     7  C   -0.044765  -0.005974  -0.004994  -0.000425  -0.000457  -0.000033
     8  C    0.431679  -0.045109  -0.039233  -0.003834  -0.002548  -0.000010
     9  C   -0.041585   0.427682   0.421368  -0.051235  -0.051988  -0.007353
    10  C   -0.003205  -0.041105  -0.042322   0.428785   0.428408  -0.040122
    11  C    0.000024  -0.002906  -0.003540  -0.039392  -0.039375   0.414290
    12  O    0.000000  -0.000000   0.000000  -0.000000  -0.000000  -0.000000
    13  H    0.000000   0.000000  -0.000000   0.000000   0.000000   0.000000
    14  H    0.000027   0.000000  -0.000000   0.000000  -0.000000   0.000000
    15  H    0.000003  -0.000000   0.000000  -0.000000   0.000000  -0.000000
    16  H    0.000048  -0.000000   0.000000  -0.000000   0.000000  -0.000000
    17  H   -0.000046  -0.000000  -0.000000   0.000000  -0.000000   0.000000
    18  H    0.001578   0.000016  -0.000018   0.000002  -0.000001   0.000000
    19  H   -0.007940  -0.000045   0.000068   0.000034   0.000010   0.000000
    20  H    0.001743   0.000155  -0.000055   0.000005  -0.000020  -0.000000
    21  H   -0.000622  -0.000058   0.000019   0.000000   0.000000   0.000000
    22  H    0.005260   0.001155   0.001084  -0.000073   0.000178  -0.000026
    23  H   -0.001517   0.001237   0.000562   0.000197  -0.000078   0.000012
    24  H   -0.030484  -0.004321   0.006497   0.000935   0.001026   0.000157
    25  H    0.549833   0.006815  -0.004728   0.001123   0.000561  -0.000077
    26  H    0.006815   0.553207  -0.031688   0.007312  -0.005141   0.002333
    27  H   -0.004728  -0.031688   0.556563  -0.005056   0.007512   0.000380
    28  H    0.001123   0.007312  -0.005056   0.569232  -0.033883   0.007625
    29  H    0.000561  -0.005141   0.007512  -0.033883   0.568729  -0.005777
    30  H   -0.000077   0.002333   0.000380   0.007625  -0.005777   0.548989
    31  H    0.000153   0.000326   0.002285  -0.005816   0.007600  -0.031855
    32  H    0.000014  -0.000131  -0.000139  -0.004222  -0.004160  -0.024740
              31         32
     1  O   -0.000000   0.000000
     2  C    0.000000  -0.000000
     3  C    0.000000   0.000000
     4  C    0.000000  -0.000000
     5  C    0.000001   0.000000
     6  C   -0.000001  -0.000001
     7  C   -0.000032   0.000044
     8  C   -0.000295  -0.001045
     9  C   -0.006716   0.013913
    10  C   -0.041122  -0.054072
    11  C    0.414954   0.424494
    12  O    0.000000   0.000000
    13  H    0.000000  -0.000000
    14  H   -0.000000   0.000000
    15  H    0.000000   0.000000
    16  H    0.000000   0.000000
    17  H   -0.000000  -0.000000
    18  H   -0.000000   0.000000
    19  H   -0.000000  -0.000000
    20  H   -0.000000   0.000000
    21  H   -0.000000   0.000000
    22  H    0.000013   0.000001
    23  H   -0.000021   0.000000
    24  H   -0.000066   0.000004
    25  H    0.000153   0.000014
    26  H    0.000326  -0.000131
    27  H    0.002285  -0.000139
    28  H   -0.005816  -0.004222
    29  H    0.007600  -0.004160
    30  H   -0.031855  -0.024740
    31  H    0.549393  -0.024872
    32  H   -0.024872   0.533384
 Mulliken charges:
               1
     1  O   -0.411650
     2  C    0.353789
     3  C   -0.326939
     4  C   -0.282319
     5  C   -0.297635
     6  C   -0.275789
     7  C   -0.274218
     8  C   -0.299040
     9  C   -0.278450
    10  C   -0.235364
    11  C   -0.427550
    12  O   -0.333171
    13  H    0.335442
    14  H    0.169596
    15  H    0.169479
    16  H    0.155278
    17  H    0.155858
    18  H    0.141737
    19  H    0.144914
    20  H    0.151513
    21  H    0.146263
    22  H    0.144690
    23  H    0.148213
    24  H    0.141031
    25  H    0.141223
    26  H    0.136188
    27  H    0.135023
    28  H    0.128671
    29  H    0.129413
    30  H    0.136204
    31  H    0.136070
    32  H    0.141529
 Sum of Mulliken charges =  -0.00000
 Mulliken charges with hydrogens summed into heavy atoms:
               1
     1  O   -0.076208
     2  C    0.353789
     3  C    0.012137
     4  C    0.028818
     5  C   -0.010984
     6  C    0.021987
     7  C    0.018685
     8  C   -0.016787
     9  C   -0.007239
    10  C    0.022720
    11  C   -0.013747
    12  O   -0.333171
 Electronic spatial extent (au):  <R**2>=           5649.0310
 Charge=              0.0000 electrons
 Dipole moment (field-independent basis, Debye):
    X=              0.8483    Y=             -1.1292    Z=              0.7032  Tot=              1.5777
 Quadrupole moment (field-independent basis, Debye-Ang):
   XX=            -79.9810   YY=            -79.5690   ZZ=            -77.6537
   XY=              6.9876   XZ=             -3.9270   YZ=              1.9071
 Traceless Quadrupole moment (field-independent basis, Debye-Ang):
   XX=             -0.9131   YY=             -0.5011   ZZ=              1.4142
   XY=              6.9876   XZ=             -3.9270   YZ=              1.9071
 Octapole moment (field-independent basis, Debye-Ang**2):
  XXX=            -87.0010  YYY=             -0.7282  ZZZ=              0.1817  XYY=             -4.0054
  XXY=            -43.9832  XXZ=             10.9955  XZZ=            -10.4041  YZZ=             -1.9369
  YYZ=             -1.9863  XYZ=            -12.5589
 Hexadecapole moment (field-independent basis, Debye-Ang**3):
 XXXX=          -6354.2488 YYYY=           -561.2047 ZZZZ=           -188.7133 XXXY=            323.2065
 XXXZ=            -84.5668 YYYX=              7.8768 YYYZ=              2.8731 ZZZX=              3.1146
 ZZZY=             -4.2829 XXYY=          -1249.2259 XXZZ=          -1177.3551 YYZZ=           -128.2456
 XXYZ=             52.3549 YYXZ=              4.3495 ZZXY=              8.9319
 N-N= 6.763453848021D+02 E-N=-2.617546596187D+03  KE= 5.405774941232D+02
 Unable to Open any file for archive entry.
 1\1\GINC-NOTCH076\SP\RM062X\def2TZVP\C10H20O2\U6032257\05-Feb-2022\0\\
 # M062X/def2tzvp int=(grid=ultrafine) nmr=giao guess=read geom=check\\
 Ac1.xyz\\0,1\O,0,6.47088341,0.4928661822,0.5194088085\C,0,5.4247526422
 ,-0.3622969663,0.648755004\C,0,4.7395120232,-0.6044039983,-0.675321754
 8\C,0,3.5553791061,-1.5622940748,-0.5706280325\C,0,2.8710483477,-1.799
 0215382,-1.9185575892\C,0,1.6849419839,-2.7637558903,-1.8188211845\C,0
 ,0.9184947311,-2.9634302421,-3.1327020011\C,0,1.733014237,-3.62580381,
 -4.2487561751\C,0,0.9132362687,-3.8930864785,-5.5136896341\C,0,1.72118
 47003,-4.5488494158,-6.6370184546\C,0,0.8926334146,-4.8135758447,-7.89
 56946332\O,0,5.1129425274,-0.8489455678,1.7131838345\H,0,6.8477481523,
 0.5892211217,1.4102071184\H,0,5.4952457286,-0.9786584425,-1.3776142528
 \H,0,4.4306852504,0.370503185,-1.0735524123\H,0,3.9004958964,-2.515118
 89,-0.1531927215\H,0,2.8340334808,-1.1643874861,0.1521778389\H,0,2.523
 0949976,-0.8396677323,-2.3279503072\H,0,3.6080994695,-2.1847907434,-2.
 6344357959\H,0,2.0421732702,-3.7372640456,-1.4551038888\H,0,0.99121444
 44,-2.3905091567,-1.0541913398\H,0,0.029229598,-3.5759991855,-2.934230
 6388\H,0,0.5445062882,-1.9920106881,-3.4857732946\H,0,2.1498636038,-4.
 573244887,-3.8782155175\H,0,2.5938945901,-2.9966811988,-4.5089232759\H
 ,0,0.0551575184,-4.5326003971,-5.2629317679\H,0,0.4881758707,-2.947045
 5153,-5.8779398447\H,0,2.5768115742,-3.9075458497,-6.8877330865\H,0,2.
 1470210102,-5.4927978292,-6.271300516\H,0,0.0490501862,-5.4786086634,-
 7.67938654\H,0,0.481475689,-3.8817775787,-8.2999802156\H,0,1.492999988
 9,-5.2818183731,-8.6820877293\\Version=ES64L-G16RevC.01\State=1-A\HF=-
 543.5440282\RMSD=2.415e-09\Dipole=0.0819685,0.1814839,-0.5879023\Quadr
 upole=3.4163952,3.3013841,-6.7177793,1.4968416,0.4443011,1.4450492\PG=
 C01 [X(C10H20O2)]\\@
 The archive entry for this job was punched.


 REFRAIN FROM ILLUSIONS, INSIST ON WORK AND NOT WORDS,
 PATIENTLY SEEK DIVINE AND SCIENTIFIC TRUTH.
 LAST WORDS OF MARIA MENDELEEVA TO HER SON DMITRI, C. 1850
 Job cpu time:       0 days  0 hours 32 minutes 49.5 seconds.
 Elapsed time:       0 days  0 hours  1 minutes 13.6 seconds.
 File lengths (MBytes):  RWF=    140 Int=      0 D2E=      0 Chk=     24 Scr=      1
 Normal termination of Gaussian 16 at Sat Feb  5 08:54:00 2022.
