 Entering Gaussian System, Link 0=/uufs/chpc.utah.edu/sys/installdir/gaussian16/C01/AVX2/g16/g16
 Input=Ac1_clust-24.com
 Output=Ac1_clust-24.log
 Initial command:
 /uufs/chpc.utah.edu/sys/installdir/gaussian16/C01/AVX2/g16/l1.exe "/scratch/general/lustre/u6032257/3857480/notchpeak.peaks/Gau-240399.inp" -scrdir="/scratch/general/lustre/u6032257/3857480/notchpeak.peaks/"
 Entering Link 1 = /uufs/chpc.utah.edu/sys/installdir/gaussian16/C01/AVX2/g16/l1.exe PID=    240401.
  
 Copyright (c) 1988-2019, Gaussian, Inc.  All Rights Reserved.
  
 This is part of the Gaussian(R) 16 program.  It is based on
 the Gaussian(R) 09 system (copyright 2009, Gaussian, Inc.),
 the Gaussian(R) 03 system (copyright 2003, Gaussian, Inc.),
 the Gaussian(R) 98 system (copyright 1998, Gaussian, Inc.),
 the Gaussian(R) 94 system (copyright 1995, Gaussian, Inc.),
 the Gaussian 92(TM) system (copyright 1992, Gaussian, Inc.),
 the Gaussian 90(TM) system (copyright 1990, Gaussian, Inc.),
 the Gaussian 88(TM) system (copyright 1988, Gaussian, Inc.),
 the Gaussian 86(TM) system (copyright 1986, Carnegie Mellon
 University), and the Gaussian 82(TM) system (copyright 1983,
 Carnegie Mellon University). Gaussian is a federally registered
 trademark of Gaussian, Inc.
  
 This software contains proprietary and confidential information,
 including trade secrets, belonging to Gaussian, Inc.
  
 This software is provided under written license and may be
 used, copied, transmitted, or stored only in accord with that
 written license.
  
 The following legend is applicable only to US Government
 contracts under FAR:
  
                    RESTRICTED RIGHTS LEGEND
  
 Use, reproduction and disclosure by the US Government is
 subject to restrictions as set forth in subparagraphs (a)
 and (c) of the Commercial Computer Software - Restricted
 Rights clause in FAR 52.227-19.
  
 Gaussian, Inc.
 340 Quinnipiac St., Bldg. 40, Wallingford CT 06492
  
  
 ---------------------------------------------------------------
 Warning -- This program may not be used in any manner that
 competes with the business of Gaussian, Inc. or will provide
 assistance to any competitor of Gaussian, Inc.  The licensee
 of this program is prohibited from giving any competitor of
 Gaussian, Inc. access to this program.  By using this program,
 the user acknowledges that Gaussian, Inc. is engaged in the
 business of creating and licensing software in the field of
 computational chemistry and represents and warrants to the
 licensee that it is not a competitor of Gaussian, Inc. and that
 it will not use this program in any manner prohibited above.
 ---------------------------------------------------------------
  

 Cite this work as:
 Gaussian 16, Revision C.01,
 M. J. Frisch, G. W. Trucks, H. B. Schlegel, G. E. Scuseria, 
 M. A. Robb, J. R. Cheeseman, G. Scalmani, V. Barone, 
 G. A. Petersson, H. Nakatsuji, X. Li, M. Caricato, A. V. Marenich, 
 J. Bloino, B. G. Janesko, R. Gomperts, B. Mennucci, H. P. Hratchian, 
 J. V. Ortiz, A. F. Izmaylov, J. L. Sonnenberg, D. Williams-Young, 
 F. Ding, F. Lipparini, F. Egidi, J. Goings, B. Peng, A. Petrone, 
 T. Henderson, D. Ranasinghe, V. G. Zakrzewski, J. Gao, N. Rega, 
 G. Zheng, W. Liang, M. Hada, M. Ehara, K. Toyota, R. Fukuda, 
 J. Hasegawa, M. Ishida, T. Nakajima, Y. Honda, O. Kitao, H. Nakai, 
 T. Vreven, K. Throssell, J. A. Montgomery, Jr., J. E. Peralta, 
 F. Ogliaro, M. J. Bearpark, J. J. Heyd, E. N. Brothers, K. N. Kudin, 
 V. N. Staroverov, T. A. Keith, R. Kobayashi, J. Normand, 
 K. Raghavachari, A. P. Rendell, J. C. Burant, S. S. Iyengar, 
 J. Tomasi, M. Cossi, J. M. Millam, M. Klene, C. Adamo, R. Cammi, 
 J. W. Ochterski, R. L. Martin, K. Morokuma, O. Farkas, 
 J. B. Foresman, and D. J. Fox, Gaussian, Inc., Wallingford CT, 2019.
 
 ******************************************
 Gaussian 16:  ES64L-G16RevC.01  3-Jul-2019
                 3-Feb-2022 
 ******************************************
 %NProcShared=32
 Will use up to   32 processors via shared memory.
 %mem=16GB
 %chk=Ac1_clust-24.chk
 ----------------------------------------------------------------------
 # B3LYP/6-31G(d,p) empiricaldispersion=GD3BJ int=(grid=ultrafine) opt 
 freq=noraman
 ----------------------------------------------------------------------
 1/18=20,19=15,26=4,38=1/1,3;
 2/9=110,12=2,17=6,18=5,40=1/2;
 3/5=1,6=6,7=101,11=2,25=1,30=1,71=1,74=-5,75=-5,124=41/1,2,3;
 4//1;
 5/5=2,38=5/2;
 6/7=2,8=2,9=2,10=2,28=1/1;
 7//1,2,3,16;
 1/18=20,19=15,26=4/3(2);
 2/9=110/2;
 99//99;
 2/9=110/2;
 3/5=1,6=6,7=101,11=2,25=1,30=1,71=1,74=-5,75=-5,124=41/1,2,3;
 4/5=5,16=3,69=1/1;
 5/5=2,38=5/2;
 7//1,2,3,16;
 1/18=20,19=15,26=4/3(-5);
 2/9=110/2;
 6/7=2,8=2,9=2,10=2,19=2,28=1/1;
 99/9=1/99;
 -------
 Ac1.xyz
 -------
 Symbolic Z-matrix:
 Charge =  0 Multiplicity = 1
 O                     4.8796    0.5611   -0.1132 
 C                     5.4292   -0.6719   -0.0714 
 C                     4.6688   -1.6226    0.8496 
 C                     3.201    -1.8971    0.438 
 C                     3.0478   -2.629    -0.9109 
 C                     1.5777   -2.9312   -1.2599 
 C                     1.3902   -3.744    -2.5563 
 C                     1.8102   -2.9979   -3.8375 
 C                     1.5163   -3.8017   -5.1164 
 C                     1.9384   -3.0597   -6.3961 
 C                     1.6444   -3.8629   -7.6708 
 O                     6.4359   -0.98     -0.6919 
 H                     5.4434    1.048    -0.7148 
 H                     4.7029   -1.1889    1.8484 
 H                     5.2252   -2.5582    0.9087 
 H                     2.7307   -2.497     1.2194 
 H                     2.6399   -0.9598    0.4168 
 H                     3.4941   -2.0268   -1.7031 
 H                     3.6144   -3.5616   -0.8841 
 H                     1.1245   -3.4868   -0.437 
 H                     1.0163   -1.9978   -1.331 
 H                     1.9405   -4.6836   -2.4805 
 H                     0.3384   -4.0238   -2.6387 
 H                     2.876    -2.7684   -3.7988 
 H                     1.293    -2.0379   -3.8851 
 H                     2.0321   -4.7626   -5.0674 
 H                     0.4503   -4.0311   -5.1652 
 H                     1.4242   -2.0985   -6.4505 
 H                     3.0049   -2.8313   -6.3537 
 H                     2.1762   -4.8152   -7.6716 
 H                     0.5792   -4.0753   -7.7697 
 H                     1.9543   -3.3123   -8.5596 
 

 GradGradGradGradGradGradGradGradGradGradGradGradGradGradGradGradGradGrad
 Berny optimization.
 Initialization pass.
                           ----------------------------
                           !    Initial Parameters    !
                           ! (Angstroms and Degrees)  !
 --------------------------                            --------------------------
 ! Name  Definition              Value          Derivative Info.                !
 --------------------------------------------------------------------------------
 ! R1    R(1,2)                  1.3506         estimate D2E/DX2                !
 ! R2    R(1,13)                 0.9575         estimate D2E/DX2                !
 ! R3    R(2,3)                  1.5265         estimate D2E/DX2                !
 ! R4    R(2,12)                 1.222          estimate D2E/DX2                !
 ! R5    R(3,4)                  1.5489         estimate D2E/DX2                !
 ! R6    R(3,14)                 1.0894         estimate D2E/DX2                !
 ! R7    R(3,15)                 1.0901         estimate D2E/DX2                !
 ! R8    R(4,5)                  1.5423         estimate D2E/DX2                !
 ! R9    R(4,16)                 1.0916         estimate D2E/DX2                !
 ! R10   R(4,17)                 1.0926         estimate D2E/DX2                !
 ! R11   R(5,6)                  1.5409         estimate D2E/DX2                !
 ! R12   R(5,18)                 1.0906         estimate D2E/DX2                !
 ! R13   R(5,19)                 1.0916         estimate D2E/DX2                !
 ! R14   R(6,7)                  1.5416         estimate D2E/DX2                !
 ! R15   R(6,20)                 1.0914         estimate D2E/DX2                !
 ! R16   R(6,21)                 1.0915         estimate D2E/DX2                !
 ! R17   R(7,8)                  1.541          estimate D2E/DX2                !
 ! R18   R(7,22)                 1.0915         estimate D2E/DX2                !
 ! R19   R(7,23)                 1.0915         estimate D2E/DX2                !
 ! R20   R(8,9)                  1.5388         estimate D2E/DX2                !
 ! R21   R(8,24)                 1.0909         estimate D2E/DX2                !
 ! R22   R(8,25)                 1.0915         estimate D2E/DX2                !
 ! R23   R(9,10)                 1.5383         estimate D2E/DX2                !
 ! R24   R(9,26)                 1.0917         estimate D2E/DX2                !
 ! R25   R(9,27)                 1.0915         estimate D2E/DX2                !
 ! R26   R(10,11)                1.5351         estimate D2E/DX2                !
 ! R27   R(10,28)                1.0915         estimate D2E/DX2                !
 ! R28   R(10,29)                1.0915         estimate D2E/DX2                !
 ! R29   R(11,30)                1.0907         estimate D2E/DX2                !
 ! R30   R(11,31)                1.0907         estimate D2E/DX2                !
 ! R31   R(11,32)                1.0905         estimate D2E/DX2                !
 ! A1    A(2,1,13)             104.1265         estimate D2E/DX2                !
 ! A2    A(1,2,3)              112.6147         estimate D2E/DX2                !
 ! A3    A(1,2,12)             123.3449         estimate D2E/DX2                !
 ! A4    A(3,2,12)             124.0334         estimate D2E/DX2                !
 ! A5    A(2,3,4)              114.9658         estimate D2E/DX2                !
 ! A6    A(2,3,14)             106.8351         estimate D2E/DX2                !
 ! A7    A(2,3,15)             108.2381         estimate D2E/DX2                !
 ! A8    A(4,3,14)             110.1107         estimate D2E/DX2                !
 ! A9    A(4,3,15)             110.2408         estimate D2E/DX2                !
 ! A10   A(14,3,15)            106.0205         estimate D2E/DX2                !
 ! A11   A(3,4,5)              114.2449         estimate D2E/DX2                !
 ! A12   A(3,4,16)             108.387          estimate D2E/DX2                !
 ! A13   A(3,4,17)             109.8627         estimate D2E/DX2                !
 ! A14   A(5,4,16)             108.8123         estimate D2E/DX2                !
 ! A15   A(5,4,17)             109.8228         estimate D2E/DX2                !
 ! A16   A(16,4,17)            105.3118         estimate D2E/DX2                !
 ! A17   A(4,5,6)              112.7016         estimate D2E/DX2                !
 ! A18   A(4,5,18)             109.4278         estimate D2E/DX2                !
 ! A19   A(4,5,19)             109.4152         estimate D2E/DX2                !
 ! A20   A(6,5,18)             109.5237         estimate D2E/DX2                !
 ! A21   A(6,5,19)             109.4649         estimate D2E/DX2                !
 ! A22   A(18,5,19)            106.0919         estimate D2E/DX2                !
 ! A23   A(5,6,7)              114.1997         estimate D2E/DX2                !
 ! A24   A(5,6,20)             108.9792         estimate D2E/DX2                !
 ! A25   A(5,6,21)             109.7392         estimate D2E/DX2                !
 ! A26   A(7,6,20)             108.3695         estimate D2E/DX2                !
 ! A27   A(7,6,21)             109.4833         estimate D2E/DX2                !
 ! A28   A(20,6,21)            105.7149         estimate D2E/DX2                !
 ! A29   A(6,7,8)              114.2528         estimate D2E/DX2                !
 ! A30   A(6,7,22)             109.5207         estimate D2E/DX2                !
 ! A31   A(6,7,23)             108.4122         estimate D2E/DX2                !
 ! A32   A(8,7,22)             109.7012         estimate D2E/DX2                !
 ! A33   A(8,7,23)             108.9048         estimate D2E/DX2                !
 ! A34   A(22,7,23)            105.688          estimate D2E/DX2                !
 ! A35   A(7,8,9)              112.7072         estimate D2E/DX2                !
 ! A36   A(7,8,24)             109.7945         estimate D2E/DX2                !
 ! A37   A(7,8,25)             109.4484         estimate D2E/DX2                !
 ! A38   A(9,8,24)             109.0236         estimate D2E/DX2                !
 ! A39   A(9,8,25)             109.4309         estimate D2E/DX2                !
 ! A40   A(24,8,25)            106.2276         estimate D2E/DX2                !
 ! A41   A(8,9,10)             112.7686         estimate D2E/DX2                !
 ! A42   A(8,9,26)             109.4036         estimate D2E/DX2                !
 ! A43   A(8,9,27)             109.4791         estimate D2E/DX2                !
 ! A44   A(10,9,26)            109.4059         estimate D2E/DX2                !
 ! A45   A(10,9,27)            109.4004         estimate D2E/DX2                !
 ! A46   A(26,9,27)            106.1683         estimate D2E/DX2                !
 ! A47   A(9,10,11)            112.697          estimate D2E/DX2                !
 ! A48   A(9,10,28)            109.693          estimate D2E/DX2                !
 ! A49   A(9,10,29)            109.6775         estimate D2E/DX2                !
 ! A50   A(11,10,28)           109.2188         estimate D2E/DX2                !
 ! A51   A(11,10,29)           109.2008         estimate D2E/DX2                !
 ! A52   A(28,10,29)           106.1396         estimate D2E/DX2                !
 ! A53   A(10,11,30)           111.3497         estimate D2E/DX2                !
 ! A54   A(10,11,31)           111.3612         estimate D2E/DX2                !
 ! A55   A(10,11,32)           110.9891         estimate D2E/DX2                !
 ! A56   A(30,11,31)           107.8235         estimate D2E/DX2                !
 ! A57   A(30,11,32)           107.5583         estimate D2E/DX2                !
 ! A58   A(31,11,32)           107.576          estimate D2E/DX2                !
 ! D1    D(13,1,2,3)           179.9548         estimate D2E/DX2                !
 ! D2    D(13,1,2,12)            0.8829         estimate D2E/DX2                !
 ! D3    D(1,2,3,4)             61.8855         estimate D2E/DX2                !
 ! D4    D(1,2,3,14)           -60.6034         estimate D2E/DX2                !
 ! D5    D(1,2,3,15)          -174.388          estimate D2E/DX2                !
 ! D6    D(12,2,3,4)          -119.05           estimate D2E/DX2                !
 ! D7    D(12,2,3,14)          118.4611         estimate D2E/DX2                !
 ! D8    D(12,2,3,15)            4.6765         estimate D2E/DX2                !
 ! D9    D(2,3,4,5)             64.4914         estimate D2E/DX2                !
 ! D10   D(2,3,4,16)          -174.0158         estimate D2E/DX2                !
 ! D11   D(2,3,4,17)           -59.4357         estimate D2E/DX2                !
 ! D12   D(14,3,4,5)          -174.7989         estimate D2E/DX2                !
 ! D13   D(14,3,4,16)          -53.306          estimate D2E/DX2                !
 ! D14   D(14,3,4,17)           61.274          estimate D2E/DX2                !
 ! D15   D(15,3,4,5)           -58.1666         estimate D2E/DX2                !
 ! D16   D(15,3,4,16)           63.3262         estimate D2E/DX2                !
 ! D17   D(15,3,4,17)          177.9063         estimate D2E/DX2                !
 ! D18   D(3,4,5,6)            177.8242         estimate D2E/DX2                !
 ! D19   D(3,4,5,18)           -60.0565         estimate D2E/DX2                !
 ! D20   D(3,4,5,19)            55.789          estimate D2E/DX2                !
 ! D21   D(16,4,5,6)            56.5661         estimate D2E/DX2                !
 ! D22   D(16,4,5,18)          178.6853         estimate D2E/DX2                !
 ! D23   D(16,4,5,19)          -65.4691         estimate D2E/DX2                !
 ! D24   D(17,4,5,6)           -58.2273         estimate D2E/DX2                !
 ! D25   D(17,4,5,18)           63.8919         estimate D2E/DX2                !
 ! D26   D(17,4,5,19)          179.7375         estimate D2E/DX2                !
 ! D27   D(4,5,6,7)           -176.1882         estimate D2E/DX2                !
 ! D28   D(4,5,6,20)           -54.8606         estimate D2E/DX2                !
 ! D29   D(4,5,6,21)            60.4617         estimate D2E/DX2                !
 ! D30   D(18,5,6,7)            61.7466         estimate D2E/DX2                !
 ! D31   D(18,5,6,20)         -176.9258         estimate D2E/DX2                !
 ! D32   D(18,5,6,21)          -61.6035         estimate D2E/DX2                !
 ! D33   D(19,5,6,7)           -54.1811         estimate D2E/DX2                !
 ! D34   D(19,5,6,20)           67.1465         estimate D2E/DX2                !
 ! D35   D(19,5,6,21)         -177.5312         estimate D2E/DX2                !
 ! D36   D(5,6,7,8)            -66.2402         estimate D2E/DX2                !
 ! D37   D(5,6,7,22)            57.2656         estimate D2E/DX2                !
 ! D38   D(5,6,7,23)           172.1245         estimate D2E/DX2                !
 ! D39   D(20,6,7,8)           172.0957         estimate D2E/DX2                !
 ! D40   D(20,6,7,22)          -64.3985         estimate D2E/DX2                !
 ! D41   D(20,6,7,23)           50.4605         estimate D2E/DX2                !
 ! D42   D(21,6,7,8)            57.248          estimate D2E/DX2                !
 ! D43   D(21,6,7,22)         -179.2462         estimate D2E/DX2                !
 ! D44   D(21,6,7,23)          -64.3872         estimate D2E/DX2                !
 ! D45   D(6,7,8,9)           -175.948          estimate D2E/DX2                !
 ! D46   D(6,7,8,24)            62.3067         estimate D2E/DX2                !
 ! D47   D(6,7,8,25)           -53.9289         estimate D2E/DX2                !
 ! D48   D(22,7,8,9)            60.6435         estimate D2E/DX2                !
 ! D49   D(22,7,8,24)          -61.1018         estimate D2E/DX2                !
 ! D50   D(22,7,8,25)         -177.3373         estimate D2E/DX2                !
 ! D51   D(23,7,8,9)           -54.5843         estimate D2E/DX2                !
 ! D52   D(23,7,8,24)         -176.3296         estimate D2E/DX2                !
 ! D53   D(23,7,8,25)           67.4349         estimate D2E/DX2                !
 ! D54   D(7,8,9,10)          -179.8506         estimate D2E/DX2                !
 ! D55   D(7,8,9,26)           -57.8539         estimate D2E/DX2                !
 ! D56   D(7,8,9,27)            58.1057         estimate D2E/DX2                !
 ! D57   D(24,8,9,10)          -57.6701         estimate D2E/DX2                !
 ! D58   D(24,8,9,26)           64.3267         estimate D2E/DX2                !
 ! D59   D(24,8,9,27)         -179.7138         estimate D2E/DX2                !
 ! D60   D(25,8,9,10)           58.1203         estimate D2E/DX2                !
 ! D61   D(25,8,9,26)         -179.8829         estimate D2E/DX2                !
 ! D62   D(25,8,9,27)          -63.9234         estimate D2E/DX2                !
 ! D63   D(8,9,10,11)         -179.9956         estimate D2E/DX2                !
 ! D64   D(8,9,10,28)          -58.08           estimate D2E/DX2                !
 ! D65   D(8,9,10,29)           58.1229         estimate D2E/DX2                !
 ! D66   D(26,9,10,11)          58.0089         estimate D2E/DX2                !
 ! D67   D(26,9,10,28)         179.9245         estimate D2E/DX2                !
 ! D68   D(26,9,10,29)         -63.8726         estimate D2E/DX2                !
 ! D69   D(27,9,10,11)         -57.9075         estimate D2E/DX2                !
 ! D70   D(27,9,10,28)          64.0081         estimate D2E/DX2                !
 ! D71   D(27,9,10,29)        -179.7891         estimate D2E/DX2                !
 ! D72   D(9,10,11,30)         -60.1854         estimate D2E/DX2                !
 ! D73   D(9,10,11,31)          60.1965         estimate D2E/DX2                !
 ! D74   D(9,10,11,32)        -179.9793         estimate D2E/DX2                !
 ! D75   D(28,10,11,30)        177.6314         estimate D2E/DX2                !
 ! D76   D(28,10,11,31)        -61.9866         estimate D2E/DX2                !
 ! D77   D(28,10,11,32)         57.8375         estimate D2E/DX2                !
 ! D78   D(29,10,11,30)         61.9652         estimate D2E/DX2                !
 ! D79   D(29,10,11,31)       -177.6529         estimate D2E/DX2                !
 ! D80   D(29,10,11,32)        -57.8287         estimate D2E/DX2                !
 --------------------------------------------------------------------------------
 Trust Radius=3.00D-01 FncErr=1.00D-07 GrdErr=1.00D-06 EigMax=2.50D+02 EigMin=1.00D-04
 Number of steps in this run=    179 maximum allowed number of steps=    192.
 GradGradGradGradGradGradGradGradGradGradGradGradGradGradGradGradGradGrad

                          Input orientation:                          
 ---------------------------------------------------------------------
 Center     Atomic      Atomic             Coordinates (Angstroms)
 Number     Number       Type             X           Y           Z
 ---------------------------------------------------------------------
      1          8           0        4.879600    0.561100   -0.113200
      2          6           0        5.429200   -0.671900   -0.071400
      3          6           0        4.668800   -1.622600    0.849600
      4          6           0        3.201000   -1.897100    0.438000
      5          6           0        3.047800   -2.629000   -0.910900
      6          6           0        1.577700   -2.931200   -1.259900
      7          6           0        1.390200   -3.744000   -2.556300
      8          6           0        1.810200   -2.997900   -3.837500
      9          6           0        1.516300   -3.801700   -5.116400
     10          6           0        1.938400   -3.059700   -6.396100
     11          6           0        1.644400   -3.862900   -7.670800
     12          8           0        6.435900   -0.980000   -0.691900
     13          1           0        5.443400    1.048000   -0.714800
     14          1           0        4.702900   -1.188900    1.848400
     15          1           0        5.225200   -2.558200    0.908700
     16          1           0        2.730700   -2.497000    1.219400
     17          1           0        2.639900   -0.959800    0.416800
     18          1           0        3.494100   -2.026800   -1.703100
     19          1           0        3.614400   -3.561600   -0.884100
     20          1           0        1.124500   -3.486800   -0.437000
     21          1           0        1.016300   -1.997800   -1.331000
     22          1           0        1.940500   -4.683600   -2.480500
     23          1           0        0.338400   -4.023800   -2.638700
     24          1           0        2.876000   -2.768400   -3.798800
     25          1           0        1.293000   -2.037900   -3.885100
     26          1           0        2.032100   -4.762600   -5.067400
     27          1           0        0.450300   -4.031100   -5.165200
     28          1           0        1.424200   -2.098500   -6.450500
     29          1           0        3.004900   -2.831300   -6.353700
     30          1           0        2.176200   -4.815200   -7.671600
     31          1           0        0.579200   -4.075300   -7.769700
     32          1           0        1.954300   -3.312300   -8.559600
 ---------------------------------------------------------------------
                    Distance matrix (angstroms):
                    1          2          3          4          5
     1  O    0.000000
     2  C    1.350591   0.000000
     3  C    2.395823   1.526525   0.000000
     4  C    3.027254   2.593353   1.548936   0.000000
     5  C    3.764114   3.194694   2.596121   1.542297   0.000000
     6  C    4.941014   4.620717   3.964508   2.566579   1.540883
     7  C    6.056281   5.650314   5.181671   3.956750   2.588089
     8  C    5.996508   5.717600   5.659678   4.628821   3.198864
     9  C    7.441628   7.110447   7.090831   6.108770   4.626764
    10  C    7.825323   7.608489   7.875310   7.046327   5.612815
    11  C    9.335717   9.069624   9.314674   8.487639   7.013436
    12  O    2.265381   1.222044   2.431419   3.547157   3.774438
    13  H    0.957530   1.836361   3.190526   3.876973   4.392913
    14  H    2.634691   2.116703   1.089431   2.178642   3.525192
    15  H    3.300568   2.135495   1.090147   2.180825   2.838490
    16  H    3.968069   3.504149   2.158138   1.091626   2.157812
    17  H    2.758676   2.846299   2.177856   1.092618   2.171497
    18  H    3.338356   2.871030   2.838939   2.164957   1.090600
    19  H    4.380830   3.507755   2.806634   2.165504   1.091557
    20  H    5.530924   5.156333   4.206262   2.757648   2.158584
    21  H    4.791252   4.776849   4.270427   2.812902   2.168384
    22  H    6.461370   5.836825   5.282320   4.227421   2.812675
    23  H    6.929788   6.613812   6.056927   4.709927   3.503086
    24  H    5.355710   4.980728   5.112202   4.337656   2.896362
    25  H    5.817708   5.789509   5.829741   4.727524   3.503511
    26  H    7.809874   7.296172   7.198797   6.315603   4.781254
    27  H    8.138163   7.875308   7.731393   6.596678   5.178027
    28  H    7.692505   7.666037   8.002835   7.116812   5.796954
    29  H    7.346204   7.071600   7.491131   6.858453   5.446727
    30  H    9.661386   9.247269   9.434861   8.679351   7.158647
    31  H    9.930339   9.714394   9.850528   8.887335   7.431615
    32  H    9.741780   9.544432   9.937638   9.193142   7.756626
                    6          7          8          9         10
     6  C    0.000000
     7  C    1.541575   0.000000
     8  C    2.588924   1.540954   0.000000
     9  C    3.954002   2.563853   1.538849   0.000000
    10  C    5.150453   3.938636   2.562555   1.538299   0.000000
    11  C    6.478592   5.122193   3.933180   2.558342   1.535066
    12  O    5.266110   6.047708   5.946749   7.193098   7.555829
    13  H    5.574478   6.540857   6.270622   7.636477   7.838073
    14  H    4.739622   6.074858   6.630962   8.092563   8.894613
    15  H    4.259837   5.302789   5.863615   7.183597   8.025874
    16  H    2.768550   4.196172   5.164345   6.581745   7.677253
    17  H    2.797501   4.260615   4.789710   6.321011   7.163609
    18  H    2.164938   2.846598   2.886905   4.325804   5.050875
    19  H    2.164896   2.788653   3.506489   4.729909   5.782994
    20  H    1.091442   2.151321   3.503228   4.706321   6.029571
    21  H    1.091541   2.165728   2.813009   4.222950   5.256723
    22  H    2.166193   1.091524   2.167951   2.811701   4.238983
    23  H    2.151913   1.091495   2.157727   2.752412   4.196134
    24  H    2.856239   2.168687   1.090916   2.156980   2.776674
    25  H    2.787600   2.164702   1.091495   2.162626   2.786707
    26  H    4.249419   2.784817   2.162420   1.091687   2.161965
    27  H    4.210959   2.787866   2.163242   1.091495   2.161753
    28  H    5.259209   4.227720   2.790284   2.165455   1.091452
    29  H    5.290905   4.226171   2.790399   2.165298   1.091507
    30  H    6.709512   5.285032   4.258739   2.826959   2.182941
    31  H    6.684569   5.286494   4.258914   2.827192   2.183036
    32  H    7.319336   6.045179   4.734748   3.505279   2.178254
                   11         12         13         14         15
    11  C    0.000000
    12  O    8.942854   0.000000
    13  H    9.323909   2.257956   0.000000
    14  H   10.349873   3.082215   3.481674   0.000000
    15  H    9.387875   2.553122   3.960813   1.740924   0.000000
    16  H    9.059878   4.436537   4.864863   2.448742   2.514520
    17  H    8.650334   3.954648   3.629241   2.521494   3.079062
    18  H    6.511996   3.282149   3.772387   3.844012   3.178143
    19  H    7.073258   3.829159   4.962088   3.779033   2.610674
    20  H    7.262204   5.878775   6.268531   4.827872   4.414629
    21  H    6.638236   5.551255   5.408864   4.934969   4.800536
    22  H    5.263121   6.092977   6.945448   6.211534   5.176220
    23  H    5.201303   7.087613   7.448864   6.871651   6.213923
    24  H    4.207987   5.052137   5.537825   6.141926   5.265309
    25  H    4.217301   6.145331   6.066251   6.724674   6.222012
    26  H    2.781630   7.269561   8.021544   8.229994   7.125240
    27  H    2.780683   8.071371   8.398474   8.680627   7.865200
    28  H    2.156555   7.715546   7.678065   8.969336   8.295586
    29  H    2.156365   6.874231   7.265841   8.535521   7.599130
    30  H    1.090728   9.031612   9.666891  10.495936   9.381471
    31  H    1.090663   9.694177   9.984000  10.855600   9.959997
    32  H    1.090488   9.350137   9.629482  10.972242  10.045703
                   16         17         18         19         20
    16  H    0.000000
    17  H    1.736489   0.000000
    18  H    3.056939   2.522325   0.000000
    19  H    2.517739   3.067793   1.743802   0.000000
    20  H    2.510626   3.067758   3.057714   2.530829   0.000000
    21  H    3.113344   2.601601   2.505752   3.065178   1.740133
    22  H    4.369771   4.769716   3.174368   2.570859   2.504811
    23  H    4.789484   4.901130   3.849909   3.744920   2.398709
    24  H    5.027634   4.593263   2.307374   3.109643   3.858180
    25  H    5.322939   4.634952   3.099369   4.088589   3.743941
    26  H    6.718991   6.701280   4.576086   4.630991   4.887945
    27  H    6.951029   6.736910   5.026736   5.344135   4.806941
    28  H    7.790578   7.066426   5.179521   6.158120   6.178946
    29  H    7.585432   7.033876   4.744957   5.551698   6.242830
    30  H    9.204966   8.972254   6.718261   7.050538   7.430354
    31  H    9.376775   8.998422   7.035384   7.542401   7.376461
    32  H    9.843594   9.304841   7.143885   7.856932   8.166740
                   21         22         23         24         25
    21  H    0.000000
    22  H    3.064150   0.000000
    23  H    2.504856   1.739853   0.000000
    24  H    3.184705   2.506206   3.059620   0.000000
    25  H    2.569357   3.064618   2.531516   1.745556   0.000000
    26  H    4.757799   2.589726   3.051726   2.509651   3.060734
    27  H    4.376729   3.139119   2.528987   3.057038   2.514288
    28  H    5.136711   4.765523   4.406309   3.096450   2.569467
    29  H    5.465964   4.423307   4.725834   2.558923   3.107100
    30  H    7.034651   5.198114   5.416078   4.435954   4.778182
    31  H    6.779670   5.495344   5.136905   4.769835   4.444168
    32  H    7.406782   6.231863   6.178545   4.879608   4.890027
                   26         27         28         29         30
    26  H    0.000000
    27  H    1.745494   0.000000
    28  H    3.062668   2.517026   0.000000
    29  H    2.516114   3.062357   1.744987   0.000000
    30  H    2.608714   3.142544   3.071978   2.521798   0.000000
    31  H    3.144157   2.608062   2.522311   3.071907   1.762806
    32  H    3.782180   3.781619   2.490506   2.490204   1.759685
                   31         32
    31  H    0.000000
    32  H    1.759833   0.000000
 Stoichiometry    C10H20O2
 Framework group  C1[X(C10H20O2)]
 Deg. of freedom    90
 Full point group                 C1      NOp   1
 Largest Abelian subgroup         C1      NOp   1
 Largest concise Abelian subgroup C1      NOp   1
                         Standard orientation:                         
 ---------------------------------------------------------------------
 Center     Atomic      Atomic             Coordinates (Angstroms)
 Number     Number       Type             X           Y           Z
 ---------------------------------------------------------------------
      1          8           0       -3.668912   -1.295899    1.206287
      2          6           0       -3.500717   -1.092169   -0.118213
      3          6           0       -3.589925    0.382831   -0.501224
      4          6           0       -2.512939    1.291557    0.141832
      5          6           0       -1.069814    0.972787   -0.299140
      6          6           0       -0.033609    1.930839    0.319516
      7          6           0        1.410066    1.702031   -0.170283
      8          6           0        2.018224    0.353186    0.260183
      9          6           0        3.490513    0.203695   -0.161806
     10          6           0        4.097988   -1.143896    0.264030
     11          6           0        5.566636   -1.291233   -0.157622
     12          8           0       -3.315790   -1.996719   -0.918827
     13          1           0       -3.591783   -2.244837    1.308420
     14          1           0       -4.585186    0.722922   -0.217230
     15          1           0       -3.545553    0.456417   -1.587979
     16          1           0       -2.738770    2.328136   -0.115370
     17          1           0       -2.587180    1.241728    1.230785
     18          1           0       -0.825444   -0.054303   -0.025684
     19          1           0       -1.004276    1.019821   -1.387712
     20          1           0       -0.317034    2.958760    0.086504
     21          1           0       -0.065105    1.854973    1.407962
     22          1           0        1.444731    1.791029   -1.257620
     23          1           0        2.036031    2.510305    0.212106
     24          1           0        1.440288   -0.466445   -0.169109
     25          1           0        1.938554    0.247859    1.343659
     26          1           0        3.569958    0.311185   -1.245279
     27          1           0        4.076843    1.017749    0.268188
     28          1           0        4.022199   -1.255661    1.347096
     29          1           0        3.517086   -1.961435   -0.166748
     30          1           0        5.677173   -1.226676   -1.240813
     31          1           0        6.187908   -0.513586    0.288284
     32          1           0        5.968636   -2.254780    0.157237
 ---------------------------------------------------------------------
 Rotational constants (GHZ):           1.3750304           0.2692643           0.2386797
 Standard basis: 6-31G(d,p) (6D, 7F)
 There are   280 symmetry adapted cartesian basis functions of A   symmetry.
 There are   280 symmetry adapted basis functions of A   symmetry.
   280 basis functions,   476 primitive gaussians,   280 cartesian basis functions
    48 alpha electrons       48 beta electrons
       nuclear repulsion energy       692.8225679419 Hartrees.
 NAtoms=   32 NActive=   32 NUniq=   32 SFac= 1.00D+00 NAtFMM=   60 NAOKFM=F Big=F
 Integral buffers will be    131072 words long.
 Raffenetti 2 integral format.
 Two-electron integral symmetry is turned on.
 Nuclear repulsion after empirical dispersion term =      692.7765429285 Hartrees.
 One-electron integrals computed using PRISM.
 NBasis=   280 RedAO= T EigKep=  2.66D-03  NBF=   280
 NBsUse=   280 1.00D-06 EigRej= -1.00D+00 NBFU=   280
 ExpMin= 1.61D-01 ExpMax= 5.48D+03 ExpMxC= 8.25D+02 IAcc=3 IRadAn=         5 AccDes= 0.00D+00
 Harris functional with IExCor=  402 and IRadAn=       5 diagonalized for initial guess.
 HarFok:  IExCor=  402 AccDes= 0.00D+00 IRadAn=         5 IDoV= 1 UseB2=F ITyADJ=14
 ICtDFT=  3500011 ScaDFX=  1.000000  1.000000  1.000000  1.000000
 FoFCou: FMM=F IPFlag=           0 FMFlag=      100000 FMFlg1=           0
         NFxFlg=           0 DoJE=T BraDBF=F KetDBF=T FulRan=T
         wScrn=  0.000000 ICntrl=       500 IOpCl=  0 I1Cent=   200000004 NGrid=           0
         NMat0=    1 NMatS0=      1 NMatT0=    0 NMatD0=    1 NMtDS0=    0 NMtDT0=    0
 Petite list used in FoFCou.
 Requested convergence on RMS density matrix=1.00D-08 within 128 cycles.
 Requested convergence on MAX density matrix=1.00D-06.
 Requested convergence on             energy=1.00D-06.
 No special actions if energy rises.
 Integral accuracy reduced to 1.0D-05 until final iterations.
 Initial convergence to 1.0D-05 achieved.  Increase integral accuracy.
 SCF Done:  E(RB3LYP) =  -543.665758944     A.U. after   13 cycles
            NFock= 13  Conv=0.50D-08     -V/T= 2.0096

 **********************************************************************

            Population analysis using the SCF Density.

 **********************************************************************

 Orbital symmetries:
       Occupied  (A) (A) (A) (A) (A) (A) (A) (A) (A) (A) (A) (A)
                 (A) (A) (A) (A) (A) (A) (A) (A) (A) (A) (A) (A)
                 (A) (A) (A) (A) (A) (A) (A) (A) (A) (A) (A) (A)
                 (A) (A) (A) (A) (A) (A) (A) (A) (A) (A) (A) (A)
       Virtual   (A) (A) (A) (A) (A) (A) (A) (A) (A) (A) (A) (A)
                 (A) (A) (A) (A) (A) (A) (A) (A) (A) (A) (A) (A)
                 (A) (A) (A) (A) (A) (A) (A) (A) (A) (A) (A) (A)
                 (A) (A) (A) (A) (A) (A) (A) (A) (A) (A) (A) (A)
                 (A) (A) (A) (A) (A) (A) (A) (A) (A) (A) (A) (A)
                 (A) (A) (A) (A) (A) (A) (A) (A) (A) (A) (A) (A)
                 (A) (A) (A) (A) (A) (A) (A) (A) (A) (A) (A) (A)
                 (A) (A) (A) (A) (A) (A) (A) (A) (A) (A) (A) (A)
                 (A) (A) (A) (A) (A) (A) (A) (A) (A) (A) (A) (A)
                 (A) (A) (A) (A) (A) (A) (A) (A) (A) (A) (A) (A)
                 (A) (A) (A) (A) (A) (A) (A) (A) (A) (A) (A) (A)
                 (A) (A) (A) (A) (A) (A) (A) (A) (A) (A) (A) (A)
                 (A) (A) (A) (A) (A) (A) (A) (A) (A) (A) (A) (A)
                 (A) (A) (A) (A) (A) (A) (A) (A) (A) (A) (A) (A)
                 (A) (A) (A) (A) (A) (A) (A) (A) (A) (A) (A) (A)
                 (A) (A) (A) (A) (A) (A) (A) (A) (A) (A) (A) (A)
                 (A) (A) (A) (A) (A) (A) (A) (A) (A) (A) (A) (A)
                 (A) (A) (A) (A) (A) (A) (A) (A) (A) (A) (A) (A)
                 (A) (A) (A) (A) (A) (A) (A) (A) (A) (A) (A) (A)
                 (A) (A) (A) (A)
 The electronic state is 1-A.
 Alpha  occ. eigenvalues --  -19.19899 -19.13598 -10.31973 -10.19898 -10.19113
 Alpha  occ. eigenvalues --  -10.18029 -10.17833 -10.17595 -10.17515 -10.17376
 Alpha  occ. eigenvalues --  -10.17333 -10.16847  -1.10726  -1.01005  -0.81254
 Alpha  occ. eigenvalues --   -0.79507  -0.76784  -0.72874  -0.68664  -0.63953
 Alpha  occ. eigenvalues --   -0.61321  -0.58885  -0.57590  -0.56639  -0.48565
 Alpha  occ. eigenvalues --   -0.48345  -0.47127  -0.46075  -0.45643  -0.43840
 Alpha  occ. eigenvalues --   -0.42550  -0.41674  -0.40845  -0.39663  -0.39122
 Alpha  occ. eigenvalues --   -0.38220  -0.37149  -0.36375  -0.35045  -0.34133
 Alpha  occ. eigenvalues --   -0.33450  -0.32978  -0.32301  -0.31953  -0.31594
 Alpha  occ. eigenvalues --   -0.31067  -0.29878  -0.26820
 Alpha virt. eigenvalues --    0.00821   0.07642   0.09240   0.10007   0.11384
 Alpha virt. eigenvalues --    0.11858   0.12118   0.13280   0.13992   0.15086
 Alpha virt. eigenvalues --    0.15994   0.16694   0.17400   0.17982   0.18158
 Alpha virt. eigenvalues --    0.18937   0.19560   0.19976   0.20154   0.20674
 Alpha virt. eigenvalues --    0.20873   0.22139   0.22771   0.23600   0.25143
 Alpha virt. eigenvalues --    0.25441   0.25915   0.27057   0.29056   0.30034
 Alpha virt. eigenvalues --    0.32256   0.35578   0.48242   0.49363   0.49927
 Alpha virt. eigenvalues --    0.51591   0.52111   0.52669   0.54886   0.56124
 Alpha virt. eigenvalues --    0.56765   0.57286   0.58444   0.60099   0.61419
 Alpha virt. eigenvalues --    0.63564   0.63726   0.65906   0.67111   0.68024
 Alpha virt. eigenvalues --    0.68613   0.69228   0.70989   0.73174   0.73487
 Alpha virt. eigenvalues --    0.75819   0.77024   0.79185   0.79367   0.80614
 Alpha virt. eigenvalues --    0.81545   0.84155   0.84809   0.85327   0.86671
 Alpha virt. eigenvalues --    0.87953   0.88557   0.88756   0.90184   0.90580
 Alpha virt. eigenvalues --    0.91236   0.91953   0.92349   0.92936   0.93133
 Alpha virt. eigenvalues --    0.94021   0.94784   0.95494   0.96050   0.97062
 Alpha virt. eigenvalues --    0.97353   0.97838   1.00590   1.02859   1.03275
 Alpha virt. eigenvalues --    1.06167   1.10160   1.10602   1.13438   1.15732
 Alpha virt. eigenvalues --    1.21247   1.27573   1.29330   1.33635   1.34036
 Alpha virt. eigenvalues --    1.37273   1.38651   1.42024   1.45163   1.46886
 Alpha virt. eigenvalues --    1.48861   1.50593   1.53513   1.54780   1.57295
 Alpha virt. eigenvalues --    1.59051   1.60993   1.63974   1.67288   1.69025
 Alpha virt. eigenvalues --    1.69191   1.70050   1.70721   1.71996   1.74888
 Alpha virt. eigenvalues --    1.75730   1.78630   1.81249   1.82270   1.83397
 Alpha virt. eigenvalues --    1.83574   1.83977   1.86347   1.87549   1.88475
 Alpha virt. eigenvalues --    1.89492   1.91336   1.91982   1.93040   1.96277
 Alpha virt. eigenvalues --    1.98385   2.04712   2.05713   2.07416   2.07917
 Alpha virt. eigenvalues --    2.09213   2.10406   2.11686   2.12275   2.12938
 Alpha virt. eigenvalues --    2.14172   2.15896   2.17219   2.18078   2.18228
 Alpha virt. eigenvalues --    2.21621   2.23452   2.24321   2.25706   2.27641
 Alpha virt. eigenvalues --    2.28516   2.29513   2.31060   2.31298   2.32017
 Alpha virt. eigenvalues --    2.33413   2.34744   2.38219   2.39515   2.41272
 Alpha virt. eigenvalues --    2.43596   2.44530   2.46248   2.47482   2.48400
 Alpha virt. eigenvalues --    2.50937   2.52555   2.54968   2.55838   2.59288
 Alpha virt. eigenvalues --    2.60935   2.62609   2.64726   2.64958   2.68112
 Alpha virt. eigenvalues --    2.69768   2.70646   2.71937   2.73908   2.75011
 Alpha virt. eigenvalues --    2.78210   2.79895   2.80529   2.81903   2.85119
 Alpha virt. eigenvalues --    2.85457   2.87515   2.88402   2.89253   2.89674
 Alpha virt. eigenvalues --    2.90273   2.91452   2.91949   2.92362   2.92930
 Alpha virt. eigenvalues --    2.94035   2.95380   2.96971   3.02404   3.11352
 Alpha virt. eigenvalues --    3.19879   3.24401   3.27260   3.29905   3.31231
 Alpha virt. eigenvalues --    3.32160   3.33133   3.33794   3.37255   3.39324
 Alpha virt. eigenvalues --    3.41962   3.43250   3.46021   3.48594   3.49388
 Alpha virt. eigenvalues --    3.52724   3.55910   3.58533   3.59816   3.60770
 Alpha virt. eigenvalues --    3.91698   4.14269   4.24573   4.27940   4.34512
 Alpha virt. eigenvalues --    4.41536   4.50481   4.55879   4.61828   4.66183
 Alpha virt. eigenvalues --    4.72185   4.77747
          Condensed to atoms (all electrons):
               1          2          3          4          5          6
     1  O    8.122742   0.244843  -0.099648   0.003843  -0.000861  -0.000004
     2  C    0.244843   4.381476   0.348143  -0.029748  -0.001054   0.000100
     3  C   -0.099648   0.348143   5.101453   0.334481  -0.043281   0.003546
     4  C    0.003843  -0.029748   0.334481   4.918286   0.371257  -0.033102
     5  C   -0.000861  -0.001054  -0.043281   0.371257   4.909180   0.378138
     6  C   -0.000004   0.000100   0.003546  -0.033102   0.378138   4.909379
     7  C    0.000000   0.000001  -0.000129   0.003405  -0.038466   0.361128
     8  C    0.000000  -0.000003   0.000002   0.000159  -0.005134  -0.037834
     9  C   -0.000000   0.000000  -0.000000  -0.000001   0.000170   0.003492
    10  C   -0.000000   0.000000   0.000000  -0.000000   0.000001  -0.000123
    11  C   -0.000000  -0.000000  -0.000000   0.000000   0.000000   0.000001
    12  O   -0.083512   0.570542  -0.072614  -0.000075   0.000870   0.000006
    13  H    0.268437  -0.009372   0.010835  -0.000297  -0.000068   0.000000
    14  H    0.001840  -0.025864   0.354446  -0.022455   0.004508  -0.000111
    15  H    0.003371  -0.032691   0.376754  -0.031707  -0.005846   0.000068
    16  H    0.000012   0.003670  -0.030640   0.379446  -0.042083  -0.004063
    17  H    0.005073  -0.008456  -0.035092   0.383696  -0.038735  -0.003296
    18  H    0.000376   0.006135  -0.005061  -0.037690   0.384205  -0.037678
    19  H    0.000020  -0.000858  -0.002610  -0.039881   0.383497  -0.039851
    20  H   -0.000000   0.000002   0.000042  -0.004957  -0.041488   0.376458
    21  H   -0.000002  -0.000011   0.000055  -0.003551  -0.040085   0.381296
    22  H   -0.000000   0.000000  -0.000001   0.000057  -0.007794  -0.037552
    23  H   -0.000000   0.000000   0.000002  -0.000132   0.004609  -0.031634
    24  H   -0.000000  -0.000009   0.000010  -0.000090   0.002317  -0.003793
    25  H    0.000000   0.000000   0.000000  -0.000025  -0.000846  -0.003299
    26  H    0.000000  -0.000000   0.000000  -0.000000  -0.000018   0.000092
    27  H    0.000000  -0.000000   0.000000   0.000000   0.000001   0.000017
    28  H    0.000000  -0.000000   0.000000  -0.000000   0.000000   0.000002
    29  H    0.000000   0.000000  -0.000000   0.000000  -0.000002   0.000002
    30  H    0.000000  -0.000000   0.000000   0.000000   0.000000   0.000000
    31  H   -0.000000   0.000000  -0.000000   0.000000  -0.000000   0.000000
    32  H   -0.000000  -0.000000   0.000000  -0.000000  -0.000000  -0.000000
               7          8          9         10         11         12
     1  O    0.000000   0.000000  -0.000000  -0.000000  -0.000000  -0.083512
     2  C    0.000001  -0.000003   0.000000   0.000000  -0.000000   0.570542
     3  C   -0.000129   0.000002  -0.000000   0.000000  -0.000000  -0.072614
     4  C    0.003405   0.000159  -0.000001  -0.000000   0.000000  -0.000075
     5  C   -0.038466  -0.005134   0.000170   0.000001   0.000000   0.000870
     6  C    0.361128  -0.037834   0.003492  -0.000123   0.000001   0.000006
     7  C    4.915822   0.374706  -0.034191   0.003447  -0.000130   0.000000
     8  C    0.374706   4.900237   0.373923  -0.035202   0.003699  -0.000000
     9  C   -0.034191   0.373923   4.889502   0.379896  -0.041544  -0.000000
    10  C    0.003447  -0.035202   0.379896   4.872986   0.366077  -0.000000
    11  C   -0.000130   0.003699  -0.041544   0.366077   4.921054  -0.000000
    12  O    0.000000  -0.000000  -0.000000  -0.000000  -0.000000   8.039570
    13  H   -0.000000  -0.000000   0.000000  -0.000000  -0.000000   0.011412
    14  H    0.000001   0.000000  -0.000000  -0.000000   0.000000   0.002049
    15  H   -0.000001   0.000000  -0.000000   0.000000  -0.000000   0.001626
    16  H   -0.000016   0.000003   0.000000   0.000000  -0.000000  -0.000084
    17  H    0.000068  -0.000017  -0.000000   0.000000  -0.000000   0.000007
    18  H   -0.003700   0.002597  -0.000099   0.000005  -0.000000   0.000006
    19  H   -0.003211  -0.000804  -0.000026  -0.000000  -0.000000   0.000021
    20  H   -0.031223   0.004478  -0.000134   0.000001  -0.000000  -0.000000
    21  H   -0.037375  -0.007490   0.000045  -0.000001   0.000000   0.000000
    22  H    0.381209  -0.039238  -0.003721   0.000021   0.000001  -0.000000
    23  H    0.376854  -0.040443  -0.004722   0.000068   0.000001   0.000000
    24  H   -0.038757   0.384414  -0.037971  -0.003709   0.000052  -0.000001
    25  H   -0.040759   0.382450  -0.038863  -0.003872   0.000044   0.000000
    26  H   -0.003505  -0.038878   0.383159  -0.039760  -0.003242  -0.000000
    27  H   -0.004010  -0.038943   0.382575  -0.039898  -0.003207   0.000000
    28  H    0.000051  -0.003912  -0.039191   0.386191  -0.038581   0.000000
    29  H    0.000048  -0.004011  -0.038851   0.386583  -0.038315   0.000000
    30  H    0.000001   0.000056  -0.004932  -0.034509   0.387483   0.000000
    31  H    0.000001   0.000051  -0.004948  -0.034601   0.387269   0.000000
    32  H    0.000001  -0.000148   0.004079  -0.026841   0.378409  -0.000000
              13         14         15         16         17         18
     1  O    0.268437   0.001840   0.003371   0.000012   0.005073   0.000376
     2  C   -0.009372  -0.025864  -0.032691   0.003670  -0.008456   0.006135
     3  C    0.010835   0.354446   0.376754  -0.030640  -0.035092  -0.005061
     4  C   -0.000297  -0.022455  -0.031707   0.379446   0.383696  -0.037690
     5  C   -0.000068   0.004508  -0.005846  -0.042083  -0.038735   0.384205
     6  C    0.000000  -0.000111   0.000068  -0.004063  -0.003296  -0.037678
     7  C   -0.000000   0.000001  -0.000001  -0.000016   0.000068  -0.003700
     8  C   -0.000000   0.000000   0.000000   0.000003  -0.000017   0.002597
     9  C    0.000000  -0.000000  -0.000000   0.000000  -0.000000  -0.000099
    10  C   -0.000000  -0.000000   0.000000   0.000000   0.000000   0.000005
    11  C   -0.000000   0.000000  -0.000000  -0.000000  -0.000000  -0.000000
    12  O    0.011412   0.002049   0.001626  -0.000084   0.000007   0.000006
    13  H    0.401166  -0.000485  -0.000324   0.000016  -0.000192   0.000058
    14  H   -0.000485   0.602327  -0.032549  -0.005584  -0.002823   0.000004
    15  H   -0.000324  -0.032549   0.587577  -0.003695   0.005165  -0.000295
    16  H    0.000016  -0.005584  -0.003695   0.635774  -0.037639   0.005995
    17  H   -0.000192  -0.002823   0.005165  -0.037639   0.615116  -0.005411
    18  H    0.000058   0.000004  -0.000295   0.005995  -0.005411   0.624513
    19  H    0.000000  -0.000010   0.004567  -0.005645   0.005792  -0.040673
    20  H    0.000000  -0.000001   0.000002   0.005828  -0.000526   0.005989
    21  H    0.000000   0.000003   0.000005  -0.000536   0.004567  -0.005995
    22  H    0.000000   0.000000  -0.000001   0.000004   0.000008  -0.000167
    23  H    0.000000  -0.000000   0.000000  -0.000006   0.000003  -0.000028
    24  H    0.000000  -0.000000   0.000000  -0.000001   0.000010   0.002140
    25  H    0.000000  -0.000000  -0.000000   0.000001  -0.000000   0.000515
    26  H    0.000000  -0.000000  -0.000000   0.000000  -0.000000   0.000012
    27  H   -0.000000  -0.000000   0.000000  -0.000000   0.000000  -0.000001
    28  H    0.000000  -0.000000   0.000000  -0.000000  -0.000000   0.000001
    29  H   -0.000000   0.000000  -0.000000  -0.000000   0.000000  -0.000004
    30  H    0.000000   0.000000   0.000000  -0.000000   0.000000   0.000000
    31  H   -0.000000   0.000000  -0.000000  -0.000000  -0.000000  -0.000000
    32  H   -0.000000  -0.000000   0.000000   0.000000   0.000000   0.000000
              19         20         21         22         23         24
     1  O    0.000020  -0.000000  -0.000002  -0.000000  -0.000000  -0.000000
     2  C   -0.000858   0.000002  -0.000011   0.000000   0.000000  -0.000009
     3  C   -0.002610   0.000042   0.000055  -0.000001   0.000002   0.000010
     4  C   -0.039881  -0.004957  -0.003551   0.000057  -0.000132  -0.000090
     5  C    0.383497  -0.041488  -0.040085  -0.007794   0.004609   0.002317
     6  C   -0.039851   0.376458   0.381296  -0.037552  -0.031634  -0.003793
     7  C   -0.003211  -0.031223  -0.037375   0.381209   0.376854  -0.038757
     8  C   -0.000804   0.004478  -0.007490  -0.039238  -0.040443   0.384414
     9  C   -0.000026  -0.000134   0.000045  -0.003721  -0.004722  -0.037971
    10  C   -0.000000   0.000001  -0.000001   0.000021   0.000068  -0.003709
    11  C   -0.000000  -0.000000   0.000000   0.000001   0.000001   0.000052
    12  O    0.000021  -0.000000   0.000000  -0.000000   0.000000  -0.000001
    13  H    0.000000   0.000000   0.000000   0.000000   0.000000   0.000000
    14  H   -0.000010  -0.000001   0.000003   0.000000  -0.000000  -0.000000
    15  H    0.004567   0.000002   0.000005  -0.000001   0.000000   0.000000
    16  H   -0.005645   0.005828  -0.000536   0.000004  -0.000006  -0.000001
    17  H    0.005792  -0.000526   0.004567   0.000008   0.000003   0.000010
    18  H   -0.040673   0.005989  -0.005995  -0.000167  -0.000028   0.002140
    19  H    0.637201  -0.005325   0.006031   0.005472   0.000046   0.000492
    20  H   -0.005325   0.652174  -0.040621  -0.003000  -0.004628  -0.000045
    21  H    0.006031  -0.040621   0.644416   0.006036  -0.003111  -0.000184
    22  H    0.005472  -0.003000   0.006036   0.645032  -0.040627  -0.006230
    23  H    0.000046  -0.004628  -0.003111  -0.040627   0.650534   0.006095
    24  H    0.000492  -0.000045  -0.000184  -0.006230   0.006095   0.636746
    25  H    0.000079   0.000050   0.005596   0.006115  -0.005355  -0.042259
    26  H   -0.000000   0.000004   0.000008   0.004712  -0.000568  -0.006051
    27  H    0.000001  -0.000006   0.000004  -0.000512   0.005460   0.006040
    28  H   -0.000000   0.000000  -0.000002   0.000005   0.000003  -0.000589
    29  H    0.000000  -0.000000   0.000000   0.000003   0.000007   0.005140
    30  H   -0.000000   0.000000  -0.000000  -0.000001   0.000001   0.000000
    31  H    0.000000   0.000000   0.000000   0.000000  -0.000002   0.000007
    32  H    0.000000   0.000000  -0.000000   0.000000   0.000000   0.000002
              25         26         27         28         29         30
     1  O    0.000000   0.000000   0.000000   0.000000   0.000000   0.000000
     2  C    0.000000  -0.000000  -0.000000  -0.000000   0.000000  -0.000000
     3  C    0.000000   0.000000   0.000000   0.000000  -0.000000   0.000000
     4  C   -0.000025  -0.000000   0.000000  -0.000000   0.000000   0.000000
     5  C   -0.000846  -0.000018   0.000001   0.000000  -0.000002   0.000000
     6  C   -0.003299   0.000092   0.000017   0.000002   0.000002   0.000000
     7  C   -0.040759  -0.003505  -0.004010   0.000051   0.000048   0.000001
     8  C    0.382450  -0.038878  -0.038943  -0.003912  -0.004011   0.000056
     9  C   -0.038863   0.383159   0.382575  -0.039191  -0.038851  -0.004932
    10  C   -0.003872  -0.039760  -0.039898   0.386191   0.386583  -0.034509
    11  C    0.000044  -0.003242  -0.003207  -0.038581  -0.038315   0.387483
    12  O    0.000000  -0.000000   0.000000   0.000000   0.000000   0.000000
    13  H    0.000000   0.000000  -0.000000   0.000000  -0.000000   0.000000
    14  H   -0.000000  -0.000000  -0.000000  -0.000000   0.000000   0.000000
    15  H   -0.000000  -0.000000   0.000000   0.000000  -0.000000   0.000000
    16  H    0.000001   0.000000  -0.000000  -0.000000  -0.000000  -0.000000
    17  H   -0.000000  -0.000000   0.000000  -0.000000   0.000000   0.000000
    18  H    0.000515   0.000012  -0.000001   0.000001  -0.000004   0.000000
    19  H    0.000079  -0.000000   0.000001  -0.000000   0.000000  -0.000000
    20  H    0.000050   0.000004  -0.000006   0.000000  -0.000000   0.000000
    21  H    0.005596   0.000008   0.000004  -0.000002   0.000000  -0.000000
    22  H    0.006115   0.004712  -0.000512   0.000005   0.000003  -0.000001
    23  H   -0.005355  -0.000568   0.005460   0.000003   0.000007   0.000001
    24  H   -0.042259  -0.006051   0.006040  -0.000589   0.005140   0.000000
    25  H    0.648051   0.006117  -0.006024   0.005005  -0.000555   0.000007
    26  H    0.006117   0.646113  -0.042241   0.006118  -0.006030   0.004796
    27  H   -0.006024  -0.042241   0.648157  -0.006014   0.006116  -0.000482
    28  H    0.005005   0.006118  -0.006014   0.643264  -0.041269   0.005501
    29  H   -0.000555  -0.006030   0.006116  -0.041269   0.640103  -0.005025
    30  H    0.000007   0.004796  -0.000482   0.005501  -0.005025   0.611089
    31  H    0.000001  -0.000483   0.004815  -0.005040   0.005489  -0.033836
    32  H    0.000002  -0.000020  -0.000022  -0.003092  -0.003108  -0.032518
              31         32
     1  O   -0.000000  -0.000000
     2  C    0.000000  -0.000000
     3  C   -0.000000   0.000000
     4  C    0.000000  -0.000000
     5  C   -0.000000  -0.000000
     6  C    0.000000  -0.000000
     7  C    0.000001   0.000001
     8  C    0.000051  -0.000148
     9  C   -0.004948   0.004079
    10  C   -0.034601  -0.026841
    11  C    0.387269   0.378409
    12  O    0.000000  -0.000000
    13  H   -0.000000  -0.000000
    14  H    0.000000  -0.000000
    15  H   -0.000000   0.000000
    16  H   -0.000000   0.000000
    17  H   -0.000000   0.000000
    18  H   -0.000000   0.000000
    19  H    0.000000   0.000000
    20  H    0.000000   0.000000
    21  H    0.000000  -0.000000
    22  H    0.000000   0.000000
    23  H   -0.000002   0.000000
    24  H    0.000007   0.000002
    25  H    0.000001   0.000002
    26  H   -0.000483  -0.000020
    27  H    0.004815  -0.000022
    28  H   -0.005040  -0.003092
    29  H    0.005489  -0.003108
    30  H   -0.033836  -0.032518
    31  H    0.612308  -0.032613
    32  H   -0.032613   0.617184
 Mulliken charges:
               1
     1  O   -0.466529
     2  C    0.553155
     3  C   -0.240691
     4  C   -0.190920
     5  C   -0.172990
     6  C   -0.181382
     7  C   -0.181269
     8  C   -0.174719
     9  C   -0.167646
    10  C   -0.176760
    11  C   -0.319072
    12  O   -0.469824
    13  H    0.318811
    14  H    0.124705
    15  H    0.127973
    16  H    0.099246
    17  H    0.112683
    18  H    0.104250
    19  H    0.095672
    20  H    0.086925
    21  H    0.090900
    22  H    0.090168
    23  H    0.087571
    24  H    0.096224
    25  H    0.087823
    26  H    0.089663
    27  H    0.088173
    28  H    0.091547
    29  H    0.093677
    30  H    0.102371
    31  H    0.101582
    32  H    0.098686
 Sum of Mulliken charges =  -0.00000
 Mulliken charges with hydrogens summed into heavy atoms:
               1
     1  O   -0.147717
     2  C    0.553155
     3  C    0.011987
     4  C    0.021008
     5  C    0.026932
     6  C   -0.003557
     7  C   -0.003531
     8  C    0.009328
     9  C    0.010190
    10  C    0.008464
    11  C   -0.016434
    12  O   -0.469824
 Electronic spatial extent (au):  <R**2>=           4611.9179
 Charge=              0.0000 electrons
 Dipole moment (field-independent basis, Debye):
    X=              0.0317    Y=              1.1691    Z=              1.2438  Tot=              1.7073
 Quadrupole moment (field-independent basis, Debye-Ang):
   XX=            -75.7247   YY=            -76.2280   ZZ=            -77.4460
   XY=             -3.1093   XZ=             -3.4066   YZ=             -5.8355
 Traceless Quadrupole moment (field-independent basis, Debye-Ang):
   XX=              0.7416   YY=              0.2382   ZZ=             -0.9798
   XY=             -3.1093   XZ=             -3.4066   YZ=             -5.8355
 Octapole moment (field-independent basis, Debye-Ang**2):
  XXX=            -50.1022  YYY=            -15.5018  ZZZ=              2.7382  XYY=            -12.1681
  XXY=              5.4683  XXZ=             12.6767  XZZ=             -3.8195  YZZ=             -3.4118
  YYZ=             16.5676  XYZ=             20.4529
 Hexadecapole moment (field-independent basis, Debye-Ang**3):
 XXXX=          -4927.2742 YYYY=           -879.9078 ZZZZ=           -246.1878 XXXY=             38.9310
 XXXZ=            -20.7070 YYYX=             55.7758 YYYZ=            -42.8781 ZZZX=            -13.5086
 ZZZY=            -11.3892 XXYY=           -957.1944 XXZZ=           -882.6481 YYZZ=           -187.5603
 XXYZ=            -64.9445 YYXZ=            -54.3807 ZZXY=             13.3717
 N-N= 6.927765429285D+02 E-N=-2.648823943103D+03  KE= 5.384944221787D+02
 Calling FoFJK, ICntrl=      2127 FMM=F ISym2X=0 I1Cent= 0 IOpClX= 0 NMat=1 NMatS=1 NMatT=0.
 ***** Axes restored to original set *****
 -------------------------------------------------------------------
 Center     Atomic                   Forces (Hartrees/Bohr)
 Number     Number              X              Y              Z
 -------------------------------------------------------------------
      1        8          -0.005864562   -0.007682106    0.005924125
      2        6           0.008907029   -0.022878706    0.000319284
      3        6          -0.003004129    0.002258166   -0.004586767
      4        6           0.002905178    0.000050204   -0.004390757
      5        6          -0.005274229    0.004751064    0.004687580
      6        6           0.006627186   -0.004260586   -0.002976410
      7        6           0.001617932    0.009487554   -0.000153191
      8        6          -0.003013744   -0.010389712    0.001142277
      9        6           0.004878905    0.010373867    0.000473128
     10        6          -0.003825640   -0.008873849   -0.000997709
     11        6           0.001783989    0.004113711    0.002664751
     12        8          -0.013974241    0.009804887    0.005777889
     13        1           0.007311148    0.011112301   -0.009573011
     14        1          -0.002895242    0.003450024    0.004116370
     15        1           0.002334824   -0.000537262   -0.004029390
     16        1           0.000352957   -0.002694226    0.003012757
     17        1           0.000496697    0.003064028   -0.001356579
     18        1           0.002085027    0.002506299   -0.002579007
     19        1           0.001949457   -0.003785266    0.000459851
     20        1          -0.000916928   -0.002245647    0.003867755
     21        1          -0.001357669    0.004315459   -0.001024291
     22        1           0.003334126   -0.003198663    0.000143993
     23        1          -0.004124896   -0.000446280   -0.000919589
     24        1           0.003963215    0.000729049   -0.000073950
     25        1          -0.002663316    0.003789104    0.000061145
     26        1           0.002352625   -0.003698621    0.000077147
     27        1          -0.004507656   -0.000642837   -0.000256354
     28        1          -0.002270841    0.003476555    0.000795859
     29        1           0.003921291    0.000564638    0.001180645
     30        1           0.001291045   -0.002854130    0.000585864
     31        1          -0.003124744   -0.000854418    0.000292005
     32        1           0.000705204    0.001195401   -0.002665420
 -------------------------------------------------------------------
 Cartesian Forces:  Max     0.022878706 RMS     0.004939366

 GradGradGradGradGradGradGradGradGradGradGradGradGradGradGradGradGradGrad
 Berny optimization.
 FormGI is forming the generalized inverse of G from B-inverse, IUseBI=4.
 Internal  Forces:  Max     0.016917819 RMS     0.002888334
 Search for a local minimum.
 Step number   1 out of a maximum of  179
 All quantities printed in internal units (Hartrees-Bohrs-Radians)
 Mixed Optimization -- RFO/linear search
 Second derivative matrix not updated -- first step.
 ITU=  0
     Eigenvalues ---    0.00230   0.00230   0.00230   0.00230   0.00230
     Eigenvalues ---    0.00252   0.00259   0.00302   0.00415   0.00893
     Eigenvalues ---    0.02345   0.03228   0.03245   0.03251   0.03400
     Eigenvalues ---    0.03413   0.03417   0.03442   0.03703   0.04679
     Eigenvalues ---    0.04687   0.04688   0.04722   0.04733   0.04741
     Eigenvalues ---    0.04759   0.05163   0.05410   0.05465   0.08297
     Eigenvalues ---    0.08299   0.08318   0.08320   0.08557   0.08566
     Eigenvalues ---    0.08580   0.09761   0.12192   0.12193   0.12203
     Eigenvalues ---    0.12205   0.12382   0.12389   0.12401   0.13068
     Eigenvalues ---    0.16000   0.16000   0.16000   0.16000   0.21889
     Eigenvalues ---    0.21891   0.21893   0.21894   0.21895   0.21909
     Eigenvalues ---    0.21910   0.21959   0.24998   0.25000   0.27742
     Eigenvalues ---    0.28316   0.28380   0.28435   0.28441   0.28621
     Eigenvalues ---    0.28670   0.28961   0.29747   0.34512   0.34618
     Eigenvalues ---    0.34625   0.34633   0.34635   0.34637   0.34639
     Eigenvalues ---    0.34640   0.34640   0.34640   0.34645   0.34647
     Eigenvalues ---    0.34707   0.34729   0.34736   0.34743   0.34756
     Eigenvalues ---    0.34796   0.34878   0.54896   0.56008   0.94483
 RFO step:  Lambda=-4.74664672D-03 EMin= 2.30000000D-03
 Linear search not attempted -- first point.
 Iteration  1 RMS(Cart)=  0.08636721 RMS(Int)=  0.00148853
 Iteration  2 RMS(Cart)=  0.00323432 RMS(Int)=  0.00017541
 Iteration  3 RMS(Cart)=  0.00000532 RMS(Int)=  0.00017538
 Iteration  4 RMS(Cart)=  0.00000000 RMS(Int)=  0.00017538
 Variable       Old X    -DE/DX   Delta X   Delta X   Delta X     New X
                                 (Linear)    (Quad)   (Total)
    R1        2.55225   0.00266   0.00000   0.00480   0.00480   2.55704
    R2        1.80947   0.01597   0.00000   0.02827   0.02827   1.83774
    R3        2.88471  -0.00929   0.00000  -0.03073  -0.03073   2.85398
    R4        2.30933  -0.01692   0.00000  -0.01782  -0.01782   2.29151
    R5        2.92706  -0.00815   0.00000  -0.02888  -0.02888   2.89819
    R6        2.05873   0.00506   0.00000   0.01430   0.01430   2.07303
    R7        2.06008   0.00143   0.00000   0.00407   0.00407   2.06415
    R8        2.91452  -0.00645   0.00000  -0.02240  -0.02240   2.89212
    R9        2.06287   0.00349   0.00000   0.00993   0.00993   2.07281
   R10        2.06475   0.00240   0.00000   0.00686   0.00686   2.07161
   R11        2.91185  -0.00507   0.00000  -0.01755  -0.01755   2.89430
   R12        2.06094   0.00411   0.00000   0.01167   0.01167   2.07261
   R13        2.06274   0.00426   0.00000   0.01213   0.01213   2.07487
   R14        2.91315  -0.00348   0.00000  -0.01205  -0.01205   2.90110
   R15        2.06253   0.00444   0.00000   0.01264   0.01264   2.07517
   R16        2.06271   0.00445   0.00000   0.01269   0.01269   2.07540
   R17        2.91198  -0.00435   0.00000  -0.01504  -0.01504   2.89694
   R18        2.06268   0.00444   0.00000   0.01266   0.01266   2.07534
   R19        2.06263   0.00416   0.00000   0.01184   0.01184   2.07447
   R20        2.90800  -0.00348   0.00000  -0.01196  -0.01196   2.89604
   R21        2.06153   0.00402   0.00000   0.01143   0.01143   2.07297
   R22        2.06263   0.00459   0.00000   0.01308   0.01308   2.07570
   R23        2.90696  -0.00352   0.00000  -0.01207  -0.01207   2.89490
   R24        2.06299   0.00437   0.00000   0.01245   0.01245   2.07544
   R25        2.06263   0.00455   0.00000   0.01295   0.01295   2.07558
   R26        2.90085  -0.00169   0.00000  -0.00575  -0.00575   2.89510
   R27        2.06254   0.00409   0.00000   0.01165   0.01165   2.07420
   R28        2.06265   0.00400   0.00000   0.01138   0.01138   2.07403
   R29        2.06118   0.00312   0.00000   0.00886   0.00886   2.07004
   R30        2.06105   0.00319   0.00000   0.00906   0.00906   2.07012
   R31        2.06072   0.00298   0.00000   0.00845   0.00845   2.06917
    A1        1.81735   0.00666   0.00000   0.04042   0.04042   1.85777
    A2        1.96550  -0.00176   0.00000  -0.00659  -0.00725   1.95825
    A3        2.15277  -0.00625   0.00000  -0.02422  -0.02485   2.12792
    A4        2.16479   0.00803   0.00000   0.03180   0.03111   2.19590
    A5        2.00653  -0.00544   0.00000  -0.03303  -0.03333   1.97321
    A6        1.86462   0.00352   0.00000   0.01947   0.01936   1.88399
    A7        1.88911  -0.00109   0.00000  -0.02409  -0.02423   1.86489
    A8        1.92180  -0.00102   0.00000  -0.00825  -0.00826   1.91354
    A9        1.92406   0.00327   0.00000   0.01490   0.01423   1.93829
   A10        1.85041   0.00125   0.00000   0.03652   0.03656   1.88697
   A11        1.99395  -0.00378   0.00000  -0.02292  -0.02309   1.97086
   A12        1.89171   0.00026   0.00000  -0.00036  -0.00019   1.89152
   A13        1.91747   0.00047   0.00000  -0.00967  -0.00993   1.90754
   A14        1.89913   0.00202   0.00000   0.01711   0.01708   1.91622
   A15        1.91677   0.00089   0.00000  -0.00278  -0.00320   1.91357
   A16        1.83804   0.00049   0.00000   0.02279   0.02275   1.86079
   A17        1.96701  -0.00091   0.00000  -0.00497  -0.00498   1.96204
   A18        1.90988  -0.00014   0.00000  -0.00235  -0.00234   1.90753
   A19        1.90966   0.00026   0.00000  -0.00066  -0.00067   1.90899
   A20        1.91155   0.00073   0.00000   0.00585   0.00584   1.91739
   A21        1.91052   0.00014   0.00000  -0.00028  -0.00029   1.91023
   A22        1.85165  -0.00002   0.00000   0.00289   0.00289   1.85454
   A23        1.99316  -0.00060   0.00000  -0.00485  -0.00489   1.98827
   A24        1.90205  -0.00032   0.00000  -0.00063  -0.00061   1.90143
   A25        1.91531  -0.00031   0.00000  -0.00944  -0.00951   1.90580
   A26        1.89140   0.00092   0.00000   0.01155   0.01156   1.90296
   A27        1.91084   0.00002   0.00000  -0.00436  -0.00446   1.90639
   A28        1.84507   0.00038   0.00000   0.00917   0.00918   1.85425
   A29        1.99409   0.00032   0.00000  -0.00052  -0.00055   1.99354
   A30        1.91150  -0.00027   0.00000  -0.00531  -0.00536   1.90614
   A31        1.89215   0.00035   0.00000   0.00706   0.00706   1.89921
   A32        1.91465  -0.00055   0.00000  -0.00911  -0.00914   1.90551
   A33        1.90075  -0.00037   0.00000  -0.00023  -0.00023   1.90052
   A34        1.84460   0.00056   0.00000   0.00917   0.00918   1.85379
   A35        1.96711   0.00108   0.00000   0.00460   0.00459   1.97171
   A36        1.91628  -0.00008   0.00000   0.00168   0.00167   1.91795
   A37        1.91024  -0.00069   0.00000  -0.00558  -0.00558   1.90466
   A38        1.90282  -0.00052   0.00000  -0.00163  -0.00164   1.90118
   A39        1.90993  -0.00019   0.00000  -0.00151  -0.00150   1.90843
   A40        1.85402   0.00034   0.00000   0.00234   0.00234   1.85636
   A41        1.96818   0.00185   0.00000   0.00836   0.00837   1.97655
   A42        1.90945  -0.00050   0.00000  -0.00179  -0.00178   1.90767
   A43        1.91077  -0.00059   0.00000  -0.00226  -0.00226   1.90851
   A44        1.90949  -0.00070   0.00000  -0.00369  -0.00369   1.90580
   A45        1.90940  -0.00060   0.00000  -0.00270  -0.00271   1.90669
   A46        1.85299   0.00046   0.00000   0.00168   0.00167   1.85466
   A47        1.96693   0.00123   0.00000   0.00541   0.00543   1.97236
   A48        1.91450  -0.00102   0.00000  -0.00895  -0.00897   1.90553
   A49        1.91423  -0.00101   0.00000  -0.00863  -0.00866   1.90558
   A50        1.90623   0.00018   0.00000   0.00478   0.00480   1.91102
   A51        1.90591   0.00020   0.00000   0.00517   0.00519   1.91110
   A52        1.85249   0.00037   0.00000   0.00211   0.00203   1.85452
   A53        1.94342  -0.00068   0.00000  -0.00531  -0.00533   1.93809
   A54        1.94362  -0.00065   0.00000  -0.00516  -0.00518   1.93844
   A55        1.93713   0.00096   0.00000   0.00826   0.00827   1.94540
   A56        1.88188   0.00018   0.00000  -0.00340  -0.00345   1.87842
   A57        1.87725   0.00011   0.00000   0.00299   0.00300   1.88024
   A58        1.87756   0.00010   0.00000   0.00284   0.00284   1.88040
    D1        3.14080   0.00051   0.00000   0.03318   0.03224  -3.11014
    D2        0.01541  -0.00050   0.00000  -0.03289  -0.03195  -0.01654
    D3        1.08011  -0.00126   0.00000  -0.05545  -0.05611   1.02399
    D4       -1.05773   0.00099   0.00000  -0.03772  -0.03799  -1.09572
    D5       -3.04364  -0.00168   0.00000  -0.07806  -0.07799  -3.12164
    D6       -2.07781  -0.00039   0.00000   0.01053   0.01045  -2.06737
    D7        2.06754   0.00186   0.00000   0.02826   0.02857   2.09611
    D8        0.08162  -0.00081   0.00000  -0.01208  -0.01143   0.07019
    D9        1.12559  -0.00163   0.00000  -0.04864  -0.04871   1.07688
   D10       -3.03715  -0.00137   0.00000  -0.04221  -0.04230  -3.07945
   D11       -1.03735  -0.00039   0.00000  -0.02045  -0.02068  -1.05803
   D12       -3.05082  -0.00162   0.00000  -0.05264  -0.05254  -3.10335
   D13       -0.93037  -0.00136   0.00000  -0.04621  -0.04613  -0.97649
   D14        1.06943  -0.00037   0.00000  -0.02445  -0.02450   1.04493
   D15       -1.01520   0.00125   0.00000  -0.00412  -0.00398  -1.01918
   D16        1.10525   0.00151   0.00000   0.00231   0.00243   1.10768
   D17        3.10505   0.00249   0.00000   0.02406   0.02405   3.12910
   D18        3.10362   0.00017   0.00000   0.01720   0.01712   3.12074
   D19       -1.04818   0.00037   0.00000   0.01962   0.01955  -1.02864
   D20        0.97370   0.00041   0.00000   0.02140   0.02132   0.99502
   D21        0.98726   0.00089   0.00000   0.02051   0.02058   1.00785
   D22        3.11865   0.00109   0.00000   0.02293   0.02301  -3.14153
   D23       -1.14265   0.00114   0.00000   0.02471   0.02478  -1.11787
   D24       -1.01626  -0.00130   0.00000  -0.01467  -0.01467  -1.03093
   D25        1.11512  -0.00109   0.00000  -0.01225  -0.01224   1.10288
   D26        3.13701  -0.00105   0.00000  -0.01047  -0.01047   3.12654
   D27       -3.07506  -0.00047   0.00000  -0.01355  -0.01354  -3.08860
   D28       -0.95750   0.00007   0.00000  -0.00242  -0.00242  -0.95992
   D29        1.05526   0.00018   0.00000   0.00301   0.00298   1.05823
   D30        1.07768  -0.00018   0.00000  -0.01134  -0.01132   1.06636
   D31       -3.08794   0.00036   0.00000  -0.00021  -0.00020  -3.08814
   D32       -1.07518   0.00047   0.00000   0.00521   0.00520  -1.06999
   D33       -0.94564  -0.00065   0.00000  -0.01797  -0.01795  -0.96359
   D34        1.17193  -0.00010   0.00000  -0.00684  -0.00684   1.16509
   D35       -3.09850   0.00000   0.00000  -0.00141  -0.00144  -3.09994
   D36       -1.15611   0.00055   0.00000   0.02750   0.02749  -1.12862
   D37        0.99947  -0.00015   0.00000   0.01105   0.01104   1.01052
   D38        3.00414   0.00056   0.00000   0.02296   0.02294   3.02708
   D39        3.00364   0.00068   0.00000   0.02309   0.02309   3.02673
   D40       -1.12397  -0.00001   0.00000   0.00663   0.00664  -1.11732
   D41        0.88070   0.00069   0.00000   0.01854   0.01854   0.89924
   D42        0.99917  -0.00028   0.00000   0.00824   0.00824   1.00741
   D43       -3.12844  -0.00097   0.00000  -0.00821  -0.00820  -3.13664
   D44       -1.12377  -0.00027   0.00000   0.00370   0.00370  -1.12007
   D45       -3.07087  -0.00034   0.00000  -0.01028  -0.01026  -3.08114
   D46        1.08746  -0.00036   0.00000  -0.01252  -0.01251   1.07495
   D47       -0.94124  -0.00033   0.00000  -0.01308  -0.01307  -0.95431
   D48        1.05843   0.00021   0.00000   0.00415   0.00414   1.06257
   D49       -1.06643   0.00019   0.00000   0.00191   0.00189  -1.06454
   D50       -3.09512   0.00021   0.00000   0.00134   0.00133  -3.09379
   D51       -0.95268   0.00005   0.00000  -0.00170  -0.00170  -0.95437
   D52       -3.07753   0.00003   0.00000  -0.00394  -0.00394  -3.08147
   D53        1.17696   0.00006   0.00000  -0.00450  -0.00450   1.17246
   D54       -3.13899  -0.00014   0.00000  -0.00132  -0.00132  -3.14031
   D55       -1.00974  -0.00015   0.00000  -0.00166  -0.00166  -1.01140
   D56        1.01414  -0.00021   0.00000  -0.00193  -0.00193   1.01221
   D57       -1.00653   0.00012   0.00000   0.00273   0.00273  -1.00380
   D58        1.12271   0.00011   0.00000   0.00240   0.00240   1.12511
   D59       -3.13660   0.00005   0.00000   0.00213   0.00213  -3.13447
   D60        1.01439   0.00013   0.00000   0.00378   0.00378   1.01817
   D61       -3.13955   0.00013   0.00000   0.00344   0.00344  -3.13611
   D62       -1.11567   0.00006   0.00000   0.00317   0.00317  -1.11250
   D63       -3.14152   0.00002   0.00000   0.00037   0.00037  -3.14114
   D64       -1.01369   0.00037   0.00000   0.00379   0.00377  -1.00992
   D65        1.01444  -0.00035   0.00000  -0.00377  -0.00374   1.01069
   D66        1.01245  -0.00009   0.00000  -0.00036  -0.00036   1.01209
   D67        3.14028   0.00026   0.00000   0.00305   0.00303  -3.13988
   D68       -1.11479  -0.00046   0.00000  -0.00450  -0.00448  -1.11926
   D69       -1.01068   0.00010   0.00000   0.00122   0.00122  -1.00946
   D70        1.11715   0.00044   0.00000   0.00464   0.00461   1.12176
   D71       -3.13791  -0.00028   0.00000  -0.00292  -0.00290  -3.14081
   D72       -1.05043   0.00033   0.00000   0.00544   0.00543  -1.04500
   D73        1.05063  -0.00035   0.00000  -0.00603  -0.00601   1.04461
   D74       -3.14123  -0.00001   0.00000  -0.00034  -0.00034  -3.14157
   D75        3.10025   0.00067   0.00000   0.00980   0.00979   3.11004
   D76       -1.08187  -0.00001   0.00000  -0.00167  -0.00165  -1.08353
   D77        1.00945   0.00033   0.00000   0.00402   0.00402   1.01347
   D78        1.08150   0.00002   0.00000   0.00177   0.00175   1.08325
   D79       -3.10063  -0.00066   0.00000  -0.00971  -0.00969  -3.11032
   D80       -1.00930  -0.00032   0.00000  -0.00402  -0.00402  -1.01332
         Item               Value     Threshold  Converged?
 Maximum Force            0.016918     0.000450     NO 
 RMS     Force            0.002888     0.000300     NO 
 Maximum Displacement     0.519998     0.001800     NO 
 RMS     Displacement     0.087380     0.001200     NO 
 Predicted change in Energy=-2.485364D-03
 GradGradGradGradGradGradGradGradGradGradGradGradGradGradGradGradGradGrad

                          Input orientation:                          
 ---------------------------------------------------------------------
 Center     Atomic      Atomic             Coordinates (Angstroms)
 Number     Number       Type             X           Y           Z
 ---------------------------------------------------------------------
      1          8           0        4.751259    0.448998   -0.313601
      2          6           0        5.361390   -0.752056   -0.186449
      3          6           0        4.661669   -1.644823    0.810670
      4          6           0        3.196700   -1.917713    0.448044
      5          6           0        3.039120   -2.643503   -0.890109
      6          6           0        1.573927   -2.936076   -1.226865
      7          6           0        1.380445   -3.728895   -2.527185
      8          6           0        1.827104   -2.983965   -3.790375
      9          6           0        1.543857   -3.766011   -5.077537
     10          6           0        1.989416   -3.028036   -6.343882
     11          6           0        1.703153   -3.814318   -7.627201
     12          8           0        6.325817   -1.055370   -0.856015
     13          1           0        5.248386    0.940046   -0.989971
     14          1           0        4.714077   -1.160087    1.793367
     15          1           0        5.233550   -2.574172    0.859460
     16          1           0        2.747584   -2.516023    1.250209
     17          1           0        2.647855   -0.969179    0.419603
     18          1           0        3.490678   -2.038634   -1.685815
     19          1           0        3.602932   -3.585253   -0.862350
     20          1           0        1.121891   -3.494490   -0.396364
     21          1           0        1.023071   -1.988453   -1.295660
     22          1           0        1.927207   -4.678682   -2.456146
     23          1           0        0.319482   -3.992655   -2.626534
     24          1           0        2.900833   -2.766244   -3.735241
     25          1           0        1.316306   -2.012567   -3.834961
     26          1           0        2.050278   -4.739392   -5.029798
     27          1           0        0.468858   -3.981452   -5.143369
     28          1           0        1.484504   -2.054557   -6.390438
     29          1           0        3.063816   -2.814006   -6.277361
     30          1           0        2.222046   -4.779025   -7.621463
     31          1           0        0.631624   -4.014666   -7.735456
     32          1           0        2.031165   -3.264539   -8.515507
 ---------------------------------------------------------------------
                    Distance matrix (angstroms):
                    1          2          3          4          5
     1  O    0.000000
     2  C    1.353129   0.000000
     3  C    2.378255   1.510261   0.000000
     4  C    2.932248   2.539137   1.533655   0.000000
     5  C    3.581528   3.076629   2.553953   1.530443   0.000000
     6  C    4.731618   4.494138   3.918294   2.544754   1.531598
     7  C    5.806645   5.494409   5.123579   3.928250   2.570855
     8  C    5.694197   5.519137   5.567556   4.580053   3.161715
     9  C    7.123821   6.897842   6.992222   6.056413   4.585890
[...]
 Alpha virt. eigenvalues --    4.07235   4.11929   4.16838   4.18052   4.20396
 Alpha virt. eigenvalues --    4.22818   4.26152   4.28471   4.30327   4.32017
 Alpha virt. eigenvalues --    4.35646   4.37098   4.37880   4.45855   4.48434
 Alpha virt. eigenvalues --    4.49431   4.51330   4.53913   4.54266   4.55013
 Alpha virt. eigenvalues --    4.56246   4.56586   4.60373   4.61569   4.62318
 Alpha virt. eigenvalues --    4.63846   4.65435   4.66184   4.67212   4.71650
 Alpha virt. eigenvalues --    4.76652   4.78728   4.80327   4.84596   4.97907
 Alpha virt. eigenvalues --    4.99334   5.10722   5.17193   5.20303   5.20558
 Alpha virt. eigenvalues --    5.22779   5.39577   5.40278   5.51103   5.59493
 Alpha virt. eigenvalues --    5.73561   5.85004   5.86986   6.15823   6.19294
 Alpha virt. eigenvalues --    6.33370   6.33991   6.46188   6.47586   6.64049
 Alpha virt. eigenvalues --    6.69170   6.74002   6.81193   6.88512   7.07119
 Alpha virt. eigenvalues --    7.07676   7.28170  22.40240  22.46765  22.49243
 Alpha virt. eigenvalues --   22.56170  22.57690  22.58885  22.60326  22.61809
 Alpha virt. eigenvalues --   22.63956  23.27521  43.94799  44.02024
          Condensed to atoms (all electrons):
               1          2          3          4          5          6
     1  O    7.979579   0.331322  -0.112306   0.003864   0.002465  -0.001478
     2  C    0.331322   4.530290   0.270549  -0.038911   0.019962   0.000196
     3  C   -0.112306   0.270549   5.283984   0.206462  -0.062214   0.010911
     4  C    0.003864  -0.038911   0.206462   5.239156   0.198456  -0.027113
     5  C    0.002465   0.019962  -0.062214   0.198456   5.383734   0.167870
     6  C   -0.001478   0.000196   0.010911  -0.027113   0.167870   5.230165
     7  C    0.000142   0.000060  -0.001154   0.006632  -0.045098   0.243987
     8  C   -0.000040  -0.000083   0.000066   0.000580   0.016166  -0.044894
     9  C    0.000002   0.000007  -0.000011  -0.000076   0.001061   0.006707
    10  C   -0.000000  -0.000000   0.000000   0.000000  -0.000035  -0.000798
    11  C    0.000000   0.000000  -0.000000  -0.000000   0.000010   0.000029
    12  O   -0.094029   0.672741  -0.095462   0.005709   0.000922   0.000419
    13  H    0.286490  -0.021552   0.016415  -0.002264   0.000257  -0.000038
    14  H    0.003900  -0.019196   0.402483  -0.050807   0.010831  -0.000430
    15  H    0.004773  -0.057630   0.435365  -0.028709  -0.006529   0.000426
    16  H   -0.000102   0.007594  -0.038496   0.423175  -0.037992  -0.007184
    17  H    0.003881  -0.011728  -0.022200   0.436993  -0.062235  -0.001409
    18  H    0.000343   0.006256  -0.010514  -0.038569   0.434471  -0.047034
    19  H    0.000433  -0.004317   0.006154  -0.046130   0.414678  -0.047373
    20  H    0.000007  -0.000072   0.000043  -0.006999  -0.042518   0.438205
    21  H    0.000118   0.000140  -0.000352  -0.003059  -0.062113   0.437368
    22  H   -0.000002   0.000032  -0.000019  -0.000197  -0.012608  -0.031967
    23  H   -0.000000  -0.000004   0.000034  -0.000375   0.011410  -0.053579
    24  H    0.000003   0.000156   0.000064   0.000735   0.003866  -0.009397
    25  H    0.000004   0.000005   0.000006  -0.000096  -0.004253   0.008169
    26  H   -0.000000  -0.000001   0.000001  -0.000004   0.000047   0.000386
    27  H    0.000000   0.000000  -0.000000   0.000008  -0.000131   0.000127
    28  H   -0.000000  -0.000000   0.000000  -0.000000   0.000038  -0.000056
    29  H    0.000000   0.000000  -0.000000   0.000002  -0.000079   0.000085
    30  H   -0.000000  -0.000000   0.000000   0.000000   0.000001  -0.000001
    31  H   -0.000000  -0.000000  -0.000000   0.000000  -0.000001   0.000003
    32  H    0.000000   0.000000   0.000000  -0.000000   0.000000  -0.000001
               7          8          9         10         11         12
     1  O    0.000142  -0.000040   0.000002  -0.000000   0.000000  -0.094029
     2  C    0.000060  -0.000083   0.000007  -0.000000   0.000000   0.672741
     3  C   -0.001154   0.000066  -0.000011   0.000000  -0.000000  -0.095462
     4  C    0.006632   0.000580  -0.000076   0.000000  -0.000000   0.005709
     5  C   -0.045098   0.016166   0.001061  -0.000035   0.000010   0.000922
     6  C    0.243987  -0.044894   0.006707  -0.000798   0.000029   0.000419
     7  C    5.203154   0.191936  -0.027916   0.010090  -0.000833  -0.000032
     8  C    0.191936   5.307521   0.212207  -0.042925   0.011642  -0.000014
     9  C   -0.027916   0.212207   5.246299   0.238662  -0.053930  -0.000001
    10  C    0.010090  -0.042925   0.238662   5.129271   0.270800   0.000000
    11  C   -0.000833   0.011642  -0.053930   0.270800   5.031997  -0.000000
    12  O   -0.000032  -0.000014  -0.000001   0.000000  -0.000000   7.821403
    13  H   -0.000000  -0.000010   0.000000  -0.000000  -0.000000   0.006991
    14  H    0.000024  -0.000000  -0.000000   0.000000  -0.000000   0.002743
    15  H   -0.000068   0.000031  -0.000001   0.000000  -0.000000   0.007549
    16  H    0.000120  -0.000136   0.000010  -0.000000   0.000000  -0.000340
    17  H   -0.000337   0.000082  -0.000014   0.000001  -0.000000   0.000082
    18  H   -0.006260   0.000336   0.001318  -0.000032   0.000003  -0.001428
    19  H    0.006978  -0.003499  -0.000259   0.000019  -0.000001  -0.000231
    20  H   -0.049964   0.010337  -0.000342   0.000020  -0.000000  -0.000001
    21  H   -0.032103  -0.011579  -0.000245   0.000017  -0.000002  -0.000013
    22  H    0.440538  -0.065452  -0.002738  -0.000449  -0.000013   0.000000
    23  H    0.438631  -0.042869  -0.004780   0.000004  -0.000012  -0.000000
    24  H   -0.043276   0.431068  -0.039113  -0.003575   0.000078   0.000053
    25  H   -0.051033   0.425484  -0.044186  -0.004619  -0.000160   0.000000
    26  H   -0.004863  -0.037626   0.419833  -0.041725  -0.003726   0.000000
    27  H   -0.006255  -0.046343   0.429071  -0.041318  -0.002756  -0.000000
    28  H   -0.000394  -0.002364  -0.052264   0.427820  -0.039619  -0.000000
    29  H   -0.000448  -0.003680  -0.051042   0.429909  -0.039202  -0.000000
    30  H   -0.000029  -0.000322  -0.006551  -0.041291   0.415186  -0.000000
    31  H   -0.000035   0.000059  -0.007550  -0.039903   0.413844   0.000000
    32  H    0.000045  -0.001050   0.013922  -0.054085   0.424498  -0.000000
              13         14         15         16         17         18
     1  O    0.286490   0.003900   0.004773  -0.000102   0.003881   0.000343
     2  C   -0.021552  -0.019196  -0.057630   0.007594  -0.011728   0.006256
     3  C    0.016415   0.402483   0.435365  -0.038496  -0.022200  -0.010514
     4  C   -0.002264  -0.050807  -0.028709   0.423175   0.436993  -0.038569
     5  C    0.000257   0.010831  -0.006529  -0.037992  -0.062235   0.434471
     6  C   -0.000038  -0.000430   0.000426  -0.007184  -0.001409  -0.047034
     7  C   -0.000000   0.000024  -0.000068   0.000120  -0.000337  -0.006260
     8  C   -0.000010  -0.000000   0.000031  -0.000136   0.000082   0.000336
     9  C    0.000000  -0.000000  -0.000001   0.000010  -0.000014   0.001318
    10  C   -0.000000   0.000000   0.000000  -0.000000   0.000001  -0.000032
    11  C   -0.000000  -0.000000  -0.000000   0.000000  -0.000000   0.000003
    12  O    0.006991   0.002743   0.007549  -0.000340   0.000082  -0.001428
    13  H    0.379499  -0.000789  -0.000728   0.000061  -0.000218  -0.000257
    14  H   -0.000789   0.508984  -0.015003  -0.005649  -0.002809  -0.000332
    15  H   -0.000728  -0.015003   0.494253  -0.004459   0.004561   0.000915
    16  H    0.000061  -0.005649  -0.004459   0.532056  -0.020997   0.005183
    17  H   -0.000218  -0.002809   0.004561  -0.020997   0.503569  -0.000917
    18  H   -0.000257  -0.000332   0.000915   0.005183  -0.000917   0.515956
    19  H    0.000018   0.000097  -0.000060  -0.003277   0.005777  -0.022827
    20  H   -0.000001  -0.000020   0.000083   0.002023   0.000657   0.004969
    21  H    0.000013  -0.000002  -0.000049   0.000905   0.000901  -0.001169
    22  H    0.000000  -0.000001  -0.000004   0.000133  -0.000039   0.001678
    23  H    0.000000  -0.000000  -0.000001  -0.000059   0.000023  -0.000591
    24  H    0.000010   0.000002  -0.000008  -0.000038   0.000025  -0.007854
    25  H    0.000000  -0.000000  -0.000000   0.000016  -0.000023   0.001674
    26  H    0.000000  -0.000000   0.000000   0.000000   0.000000   0.000098
    27  H   -0.000000   0.000000  -0.000000  -0.000000   0.000000  -0.000061
    28  H    0.000000  -0.000000   0.000000  -0.000000   0.000000   0.000016
    29  H    0.000000  -0.000000  -0.000000   0.000000  -0.000000   0.000026
    30  H   -0.000000   0.000000   0.000000  -0.000000   0.000000  -0.000000
    31  H    0.000000   0.000000  -0.000000   0.000000  -0.000000   0.000000
    32  H   -0.000000  -0.000000   0.000000  -0.000000   0.000000  -0.000000
              19         20         21         22         23         24
     1  O    0.000433   0.000007   0.000118  -0.000002  -0.000000   0.000003
     2  C   -0.004317  -0.000072   0.000140   0.000032  -0.000004   0.000156
     3  C    0.006154   0.000043  -0.000352  -0.000019   0.000034   0.000064
     4  C   -0.046130  -0.006999  -0.003059  -0.000197  -0.000375   0.000735
     5  C    0.414678  -0.042518  -0.062113  -0.012608   0.011410   0.003866
     6  C   -0.047373   0.438205   0.437368  -0.031967  -0.053579  -0.009397
     7  C    0.006978  -0.049964  -0.032103   0.440538   0.438631  -0.043276
     8  C   -0.003499   0.010337  -0.011579  -0.065452  -0.042869   0.431068
     9  C   -0.000259  -0.000342  -0.000245  -0.002738  -0.004780  -0.039113
    10  C    0.000019   0.000020   0.000017  -0.000449   0.000004  -0.003575
    11  C   -0.000001  -0.000000  -0.000002  -0.000013  -0.000012   0.000078
    12  O   -0.000231  -0.000001  -0.000013   0.000000  -0.000000   0.000053
    13  H    0.000018  -0.000001   0.000013   0.000000   0.000000   0.000010
    14  H    0.000097  -0.000020  -0.000002  -0.000001  -0.000000   0.000002
    15  H   -0.000060   0.000083  -0.000049  -0.000004  -0.000001  -0.000008
    16  H   -0.003277   0.002023   0.000905   0.000133  -0.000059  -0.000038
    17  H    0.005777   0.000657   0.000901  -0.000039   0.000023   0.000025
    18  H   -0.022827   0.004969  -0.001169   0.001678  -0.000591  -0.007854
    19  H    0.539008  -0.002241   0.006234   0.000911   0.000381   0.001213
    20  H   -0.002241   0.532941  -0.021334  -0.001936  -0.007472  -0.000630
    21  H    0.006234  -0.021334   0.528678   0.005799  -0.001945   0.001790
    22  H    0.000911  -0.001936   0.005799   0.531813  -0.021579  -0.001445
    23  H    0.000381  -0.007472  -0.001945  -0.021579   0.533335   0.005110
    24  H    0.001213  -0.000630   0.001790  -0.001445   0.005110   0.542716
    25  H    0.000054   0.000385   0.000713   0.006382  -0.001904  -0.030260
    26  H   -0.000026   0.000018  -0.000058   0.000517   0.001118  -0.004863
    27  H    0.000019  -0.000060   0.000167   0.001242   0.001096   0.006784
    28  H   -0.000001   0.000000  -0.000020  -0.000078   0.000182   0.000508
    29  H    0.000004   0.000000   0.000005   0.000194  -0.000073   0.001013
    30  H   -0.000000  -0.000000  -0.000000  -0.000021   0.000014   0.000152
    31  H    0.000000   0.000000  -0.000000   0.000012  -0.000026  -0.000081
    32  H    0.000000   0.000000   0.000000   0.000000   0.000001   0.000014
              25         26         27         28         29         30
     1  O    0.000004  -0.000000   0.000000  -0.000000   0.000000  -0.000000
     2  C    0.000005  -0.000001   0.000000  -0.000000   0.000000  -0.000000
     3  C    0.000006   0.000001  -0.000000   0.000000  -0.000000   0.000000
     4  C   -0.000096  -0.000004   0.000008  -0.000000   0.000002   0.000000
     5  C   -0.004253   0.000047  -0.000131   0.000038  -0.000079   0.000001
     6  C    0.008169   0.000386   0.000127  -0.000056   0.000085  -0.000001
     7  C   -0.051033  -0.004863  -0.006255  -0.000394  -0.000448  -0.000029
     8  C    0.425484  -0.037626  -0.046343  -0.002364  -0.003680  -0.000322
     9  C   -0.044186   0.419833   0.429071  -0.052264  -0.051042  -0.006551
    10  C   -0.004619  -0.041725  -0.041318   0.427820   0.429909  -0.041291
    11  C   -0.000160  -0.003726  -0.002756  -0.039619  -0.039202   0.415186
    12  O    0.000000   0.000000  -0.000000  -0.000000  -0.000000  -0.000000
    13  H    0.000000   0.000000  -0.000000   0.000000   0.000000  -0.000000
    14  H   -0.000000  -0.000000   0.000000  -0.000000  -0.000000   0.000000
    15  H   -0.000000   0.000000  -0.000000   0.000000  -0.000000   0.000000
    16  H    0.000016   0.000000  -0.000000  -0.000000   0.000000  -0.000000
    17  H   -0.000023   0.000000   0.000000   0.000000  -0.000000   0.000000
    18  H    0.001674   0.000098  -0.000061   0.000016   0.000026  -0.000000
    19  H    0.000054  -0.000026   0.000019  -0.000001   0.000004  -0.000000
    20  H    0.000385   0.000018  -0.000060   0.000000   0.000000  -0.000000
    21  H    0.000713  -0.000058   0.000167  -0.000020   0.000005  -0.000000
    22  H    0.006382   0.000517   0.001242  -0.000078   0.000194  -0.000021
    23  H   -0.001904   0.001118   0.001096   0.000182  -0.000073   0.000014
    24  H   -0.030260  -0.004863   0.006784   0.000508   0.001013   0.000152
    25  H    0.549396   0.006529  -0.004433   0.001043   0.000917  -0.000066
    26  H    0.006529   0.555389  -0.031885   0.007501  -0.004936   0.002278
    27  H   -0.004433  -0.031885   0.554726  -0.005186   0.007239   0.000313
    28  H    0.001043   0.007501  -0.005186   0.570568  -0.033643   0.007617
    29  H    0.000917  -0.004936   0.007239  -0.033643   0.564820  -0.005765
    30  H   -0.000066   0.002278   0.000313   0.007617  -0.005765   0.548531
    31  H    0.000159   0.000390   0.002360  -0.005818   0.007589  -0.031930
    32  H    0.000004  -0.000138  -0.000133  -0.004144  -0.004222  -0.024709
              31         32
     1  O   -0.000000   0.000000
     2  C   -0.000000   0.000000
     3  C   -0.000000   0.000000
     4  C    0.000000  -0.000000
     5  C   -0.000001   0.000000
     6  C    0.000003  -0.000001
     7  C   -0.000035   0.000045
     8  C    0.000059  -0.001050
     9  C   -0.007550   0.013922
    10  C   -0.039903  -0.054085
    11  C    0.413844   0.424498
    12  O    0.000000  -0.000000
    13  H    0.000000  -0.000000
    14  H    0.000000  -0.000000
    15  H   -0.000000   0.000000
    16  H    0.000000  -0.000000
    17  H   -0.000000   0.000000
    18  H    0.000000  -0.000000
    19  H    0.000000   0.000000
    20  H    0.000000   0.000000
    21  H   -0.000000   0.000000
    22  H    0.000012   0.000000
    23  H   -0.000026   0.000001
    24  H   -0.000081   0.000014
    25  H    0.000159   0.000004
    26  H    0.000390  -0.000138
    27  H    0.002360  -0.000133
    28  H   -0.005818  -0.004144
    29  H    0.007589  -0.004222
    30  H   -0.031930  -0.024709
    31  H    0.550405  -0.024908
    32  H   -0.024908   0.533431
 Mulliken charges:
               1
     1  O   -0.409370
     2  C    0.314186
     3  C   -0.289809
     4  C   -0.278464
     5  C   -0.330440
     6  C   -0.272300
     7  C   -0.272237
     8  C   -0.304627
     9  C   -0.278081
    10  C   -0.235857
    11  C   -0.427833
    12  O   -0.327062
    13  H    0.336101
    14  H    0.165976
    15  H    0.165292
    16  H    0.147455
    17  H    0.166373
    18  H    0.164599
    19  H    0.148266
    20  H    0.143901
    21  H    0.151196
    22  H    0.149297
    23  H    0.143931
    24  H    0.145178
    25  H    0.140093
    26  H    0.135747
    27  H    0.135411
    28  H    0.128294
    29  H    0.131286
    30  H    0.136596
    31  H    0.135430
    32  H    0.141474
 Sum of Mulliken charges =  -0.00000
 Mulliken charges with hydrogens summed into heavy atoms:
               1
     1  O   -0.073269
     2  C    0.314186
     3  C    0.041458
     4  C    0.035363
     5  C   -0.017575
     6  C    0.022797
     7  C    0.020991
     8  C   -0.019356
     9  C   -0.006923
    10  C    0.023724
    11  C   -0.014334
    12  O   -0.327062
 Electronic spatial extent (au):  <R**2>=           4421.8560
 Charge=             -0.0000 electrons
 Dipole moment (field-independent basis, Debye):
    X=              0.0968    Y=              1.4409    Z=              1.2123  Tot=              1.8856
 Quadrupole moment (field-independent basis, Debye-Ang):
   XX=            -77.7005   YY=            -78.2202   ZZ=            -78.7939
   XY=             -4.8211   XZ=             -2.8338   YZ=             -6.0254
 Traceless Quadrupole moment (field-independent basis, Debye-Ang):
   XX=              0.5377   YY=              0.0180   ZZ=             -0.5557
   XY=             -4.8211   XZ=             -2.8338   YZ=             -6.0254
 Octapole moment (field-independent basis, Debye-Ang**2):
  XXX=            -48.6654  YYY=            -13.3207  ZZZ=              2.8327  XYY=             -6.9615
  XXY=             13.0604  XXZ=             12.1744  XZZ=             -2.5806  YZZ=             -3.0761
  YYZ=             17.5459  XYZ=             20.0411
 Hexadecapole moment (field-independent basis, Debye-Ang**3):
 XXXX=          -4796.3224 YYYY=           -915.7055 ZZZZ=           -255.1242 XXXY=             -4.6765
 XXXZ=             -8.4184 YYYX=             37.0789 YYYZ=            -48.2128 ZZZX=            -11.0702
 ZZZY=            -13.2714 XXYY=           -959.5511 XXZZ=           -861.1036 YYZZ=           -194.9367
 XXYZ=            -55.3173 YYXZ=            -49.8589 ZZXY=             10.0697
 N-N= 7.001740447904D+02 E-N=-2.665207149910D+03  KE= 5.405773495494D+02
 Unable to Open any file for archive entry.
 1\1\GINC-NOTCH075\SP\RM062X\def2TZVP\C10H20O2\U6032257\03-Feb-2022\0\\
 # M062X/def2tzvp int=(grid=ultrafine) nmr=giao guess=read geom=check\\
 Ac1.xyz\\0,1\O,0,4.7041441614,0.4033778145,-0.4067436988\C,0,5.3640138
 306,-0.7661524949,-0.1969722192\C,0,4.6601839045,-1.6316093418,0.82254
 13633\C,0,3.1943905636,-1.9201974553,0.4583020025\C,0,3.0377156715,-2.
 6410718272,-0.8830966658\C,0,1.5760517601,-2.9464968232,-1.2242985789\
 C,0,1.3838140163,-3.7324144046,-2.5278388076\C,0,1.8322712785,-2.98673
 13334,-3.7890940678\C,0,1.5421758782,-3.7585679883,-5.078857288\C,0,1.
 9943639156,-3.0232647295,-6.3436042909\C,0,1.6994255102,-3.8014830937,
 -7.6274215163\O,0,6.3889811587,-1.0408202237,-0.7800635182\H,0,5.22321
 05965,0.8837614989,-1.0733949948\H,0,4.7060523553,-1.1145595476,1.7883
 698202\H,0,5.2365738197,-2.5558882158,0.9057031531\H,0,2.7531478511,-2
 .5280778739,1.2574136878\H,0,2.6386084387,-0.9764354992,0.4362267511\H
 ,0,3.4823021302,-2.0260614984,-1.6748148124\H,0,3.6126078201,-3.577459
 9485,-0.8649429895\H,0,1.1303390156,-3.513816424,-0.3964095207\H,0,1.0
 154196174,-2.0030539095,-1.283301281\H,0,1.9260646655,-4.6859456788,-2
 .4595551766\H,0,0.3224391276,-3.9939452274,-2.6306437556\H,0,2.9074947
 746,-2.7738512067,-3.7362419927\H,0,1.3299378238,-2.0095232346,-3.8288
 614132\H,0,2.0362668385,-4.7394334018,-5.0340918656\H,0,0.4647057119,-
 3.9658441808,-5.145039332\H,0,1.5017631232,-2.0425632362,-6.3862021966
 \H,0,3.0712598205,-2.8189293332,-6.2761761595\H,0,2.2064625537,-4.7728
 725803,-7.6244798984\H,0,0.6256013463,-3.9912575778,-7.7354271103\H,0,
 2.0322109206,-3.254611023,-8.5152836274\\Version=ES64L-G16RevC.01\Stat
 e=1-A\HF=-543.5432854\RMSD=2.104e-09\Dipole=-0.6857023,0.1192855,0.256
 7081\Quadrupole=-6.8180662,3.1868129,3.6312532,0.4172303,-0.9190338,-1
 .2598532\PG=C01 [X(C10H20O2)]\\@
 The archive entry for this job was punched.


 ALL SCIENCE IS EITHER PHYSICS, OR STAMP COLLECTING.
   --ERNEST RUTHERFORD, 1871-1937.
 Job cpu time:       0 days  0 hours 35 minutes  7.5 seconds.
 Elapsed time:       0 days  0 hours  1 minutes 16.6 seconds.
 File lengths (MBytes):  RWF=    140 Int=      0 D2E=      0 Chk=     24 Scr=      1
 Normal termination of Gaussian 16 at Thu Feb  3 08:41:17 2022.
