 Entering Gaussian System, Link 0=/uufs/chpc.utah.edu/sys/installdir/gaussian16/C01/AVX2/g16/g16
 Input=Ac1_clust-7.com
 Output=Ac1_clust-7.log
 Initial command:
 /uufs/chpc.utah.edu/sys/installdir/gaussian16/C01/AVX2/g16/l1.exe "/scratch/general/lustre/u6032257/3867915/notchpeak.peaks/Gau-200646.inp" -scrdir="/scratch/general/lustre/u6032257/3867915/notchpeak.peaks/"
 Entering Link 1 = /uufs/chpc.utah.edu/sys/installdir/gaussian16/C01/AVX2/g16/l1.exe PID=    200648.
  
 Copyright (c) 1988-2019, Gaussian, Inc.  All Rights Reserved.
  
 This is part of the Gaussian(R) 16 program.  It is based on
 the Gaussian(R) 09 system (copyright 2009, Gaussian, Inc.),
 the Gaussian(R) 03 system (copyright 2003, Gaussian, Inc.),
 the Gaussian(R) 98 system (copyright 1998, Gaussian, Inc.),
 the Gaussian(R) 94 system (copyright 1995, Gaussian, Inc.),
 the Gaussian 92(TM) system (copyright 1992, Gaussian, Inc.),
 the Gaussian 90(TM) system (copyright 1990, Gaussian, Inc.),
 the Gaussian 88(TM) system (copyright 1988, Gaussian, Inc.),
 the Gaussian 86(TM) system (copyright 1986, Carnegie Mellon
 University), and the Gaussian 82(TM) system (copyright 1983,
 Carnegie Mellon University). Gaussian is a federally registered
 trademark of Gaussian, Inc.
  
 This software contains proprietary and confidential information,
 including trade secrets, belonging to Gaussian, Inc.
  
 This software is provided under written license and may be
 used, copied, transmitted, or stored only in accord with that
 written license.
  
 The following legend is applicable only to US Government
 contracts under FAR:
  
                    RESTRICTED RIGHTS LEGEND
  
 Use, reproduction and disclosure by the US Government is
 subject to restrictions as set forth in subparagraphs (a)
 and (c) of the Commercial Computer Software - Restricted
 Rights clause in FAR 52.227-19.
  
 Gaussian, Inc.
 340 Quinnipiac St., Bldg. 40, Wallingford CT 06492
  
  
 ---------------------------------------------------------------
 Warning -- This program may not be used in any manner that
 competes with the business of Gaussian, Inc. or will provide
 assistance to any competitor of Gaussian, Inc.  The licensee
 of this program is prohibited from giving any competitor of
 Gaussian, Inc. access to this program.  By using this program,
 the user acknowledges that Gaussian, Inc. is engaged in the
 business of creating and licensing software in the field of
 computational chemistry and represents and warrants to the
 licensee that it is not a competitor of Gaussian, Inc. and that
 it will not use this program in any manner prohibited above.
 ---------------------------------------------------------------
  

 Cite this work as:
 Gaussian 16, Revision C.01,
 M. J. Frisch, G. W. Trucks, H. B. Schlegel, G. E. Scuseria, 
 M. A. Robb, J. R. Cheeseman, G. Scalmani, V. Barone, 
 G. A. Petersson, H. Nakatsuji, X. Li, M. Caricato, A. V. Marenich, 
 J. Bloino, B. G. Janesko, R. Gomperts, B. Mennucci, H. P. Hratchian, 
 J. V. Ortiz, A. F. Izmaylov, J. L. Sonnenberg, D. Williams-Young, 
 F. Ding, F. Lipparini, F. Egidi, J. Goings, B. Peng, A. Petrone, 
 T. Henderson, D. Ranasinghe, V. G. Zakrzewski, J. Gao, N. Rega, 
 G. Zheng, W. Liang, M. Hada, M. Ehara, K. Toyota, R. Fukuda, 
 J. Hasegawa, M. Ishida, T. Nakajima, Y. Honda, O. Kitao, H. Nakai, 
 T. Vreven, K. Throssell, J. A. Montgomery, Jr., J. E. Peralta, 
 F. Ogliaro, M. J. Bearpark, J. J. Heyd, E. N. Brothers, K. N. Kudin, 
 V. N. Staroverov, T. A. Keith, R. Kobayashi, J. Normand, 
 K. Raghavachari, A. P. Rendell, J. C. Burant, S. S. Iyengar, 
 J. Tomasi, M. Cossi, J. M. Millam, M. Klene, C. Adamo, R. Cammi, 
 J. W. Ochterski, R. L. Martin, K. Morokuma, O. Farkas, 
 J. B. Foresman, and D. J. Fox, Gaussian, Inc., Wallingford CT, 2019.
 
 ******************************************
 Gaussian 16:  ES64L-G16RevC.01  3-Jul-2019
                 5-Feb-2022 
 ******************************************
 %NProcShared=32
 Will use up to   32 processors via shared memory.
 %mem=16GB
 %chk=Ac1_clust-7.chk
 ----------------------------------------------------------------------
 # B3LYP/6-31G(d,p) empiricaldispersion=GD3BJ int=(grid=ultrafine) opt 
 freq=noraman
 ----------------------------------------------------------------------
 1/18=20,19=15,26=4,38=1/1,3;
 2/9=110,12=2,17=6,18=5,40=1/2;
 3/5=1,6=6,7=101,11=2,25=1,30=1,71=1,74=-5,75=-5,124=41/1,2,3;
 4//1;
 5/5=2,38=5/2;
 6/7=2,8=2,9=2,10=2,28=1/1;
 7//1,2,3,16;
 1/18=20,19=15,26=4/3(2);
 2/9=110/2;
 99//99;
 2/9=110/2;
 3/5=1,6=6,7=101,11=2,25=1,30=1,71=1,74=-5,75=-5,124=41/1,2,3;
 4/5=5,16=3,69=1/1;
 5/5=2,38=5/2;
 7//1,2,3,16;
 1/18=20,19=15,26=4/3(-5);
 2/9=110/2;
 6/7=2,8=2,9=2,10=2,19=2,28=1/1;
 99/9=1/99;
 -------
 Ac1.xyz
 -------
 Symbolic Z-matrix:
 Charge =  0 Multiplicity = 1
 O                     5.6833    0.3134   -0.075 
 C                     5.0248   -0.7421   -0.5984 
 C                     4.2061   -1.4803    0.4619 
 C                     3.2713   -2.5937   -0.0733 
 C                     2.0623   -2.0648   -0.8741 
 C                     1.0964   -3.165    -1.3619 
 C                     1.7093   -4.2192   -2.3123 
 C                     2.4003   -3.6636   -3.5761 
 C                     1.4629   -2.8794   -4.5172 
 C                     2.1587   -2.3201   -5.773 
 C                     2.6461   -3.3974   -6.7552 
 O                     5.1047   -1.0609   -1.7767 
 H                     6.1564    0.6843   -0.8205 
 H                     3.6354   -0.7514    1.0371 
 H                     4.9307   -1.9212    1.1457 
 H                     3.8493   -3.291    -0.6835 
 H                     2.903    -3.1803    0.7701 
 H                     1.5037   -1.3629   -0.253 
 H                     2.4058   -1.4817   -1.7299 
 H                     0.674    -3.6768   -0.4957 
 H                     0.2452   -2.6922   -1.8539 
 H                     2.4278   -4.8253   -1.7588 
 H                     0.9261   -4.916    -2.6154 
 H                     3.2449   -3.0342   -3.289 
 H                     2.8371   -4.5026   -4.1186 
 H                     0.6236   -3.5107   -4.8135 
 H                     1.0274   -2.0415   -3.9715 
 H                     1.4634   -1.661    -6.2953 
 H                     2.9981   -1.6883   -5.4765 
 H                     1.8302   -4.0517   -7.0644 
 H                     3.0622   -2.9425   -7.6546 
 H                     3.4271   -4.0191   -6.3172 
 

 GradGradGradGradGradGradGradGradGradGradGradGradGradGradGradGradGradGrad
 Berny optimization.
 Initialization pass.
                           ----------------------------
                           !    Initial Parameters    !
                           ! (Angstroms and Degrees)  !
 --------------------------                            --------------------------
 ! Name  Definition              Value          Derivative Info.                !
 --------------------------------------------------------------------------------
 ! R1    R(1,2)                  1.3497         estimate D2E/DX2                !
 ! R2    R(1,13)                 0.9577         estimate D2E/DX2                !
 ! R3    R(2,3)                  1.5295         estimate D2E/DX2                !
 ! R4    R(2,12)                 1.2233         estimate D2E/DX2                !
 ! R5    R(3,4)                  1.5492         estimate D2E/DX2                !
 ! R6    R(3,14)                 1.0899         estimate D2E/DX2                !
 ! R7    R(3,15)                 1.0895         estimate D2E/DX2                !
 ! R8    R(4,5)                  1.5436         estimate D2E/DX2                !
 ! R9    R(4,16)                 1.0921         estimate D2E/DX2                !
 ! R10   R(4,17)                 1.0914         estimate D2E/DX2                !
 ! R11   R(5,6)                  1.5432         estimate D2E/DX2                !
 ! R12   R(5,18)                 1.0911         estimate D2E/DX2                !
 ! R13   R(5,19)                 1.0911         estimate D2E/DX2                !
 ! R14   R(6,7)                  1.546          estimate D2E/DX2                !
 ! R15   R(6,20)                 1.0912         estimate D2E/DX2                !
 ! R16   R(6,21)                 1.0909         estimate D2E/DX2                !
 ! R17   R(7,8)                  1.5438         estimate D2E/DX2                !
 ! R18   R(7,22)                 1.0909         estimate D2E/DX2                !
 ! R19   R(7,23)                 1.0912         estimate D2E/DX2                !
 ! R20   R(8,9)                  1.5425         estimate D2E/DX2                !
 ! R21   R(8,24)                 1.0918         estimate D2E/DX2                !
 ! R22   R(8,25)                 1.0904         estimate D2E/DX2                !
 ! R23   R(9,10)                 1.5408         estimate D2E/DX2                !
 ! R24   R(9,26)                 1.0912         estimate D2E/DX2                !
 ! R25   R(9,27)                 1.0907         estimate D2E/DX2                !
 ! R26   R(10,11)                1.5372         estimate D2E/DX2                !
 ! R27   R(10,28)                1.0912         estimate D2E/DX2                !
 ! R28   R(10,29)                1.0916         estimate D2E/DX2                !
 ! R29   R(11,30)                1.0906         estimate D2E/DX2                !
 ! R30   R(11,31)                1.0904         estimate D2E/DX2                !
 ! R31   R(11,32)                1.0901         estimate D2E/DX2                !
 ! A1    A(2,1,13)             104.0057         estimate D2E/DX2                !
 ! A2    A(1,2,3)              111.7008         estimate D2E/DX2                !
 ! A3    A(1,2,12)             123.0572         estimate D2E/DX2                !
 ! A4    A(3,2,12)             125.2339         estimate D2E/DX2                !
 ! A5    A(2,3,4)              115.491          estimate D2E/DX2                !
 ! A6    A(2,3,14)             108.8662         estimate D2E/DX2                !
 ! A7    A(2,3,15)             105.9266         estimate D2E/DX2                !
 ! A8    A(4,3,14)             110.305          estimate D2E/DX2                !
 ! A9    A(4,3,15)             109.1049         estimate D2E/DX2                !
 ! A10   A(14,3,15)            106.718          estimate D2E/DX2                !
 ! A11   A(3,4,5)              113.9279         estimate D2E/DX2                !
 ! A12   A(3,4,16)             109.4243         estimate D2E/DX2                !
 ! A13   A(3,4,17)             108.8416         estimate D2E/DX2                !
 ! A14   A(5,4,16)             110.0867         estimate D2E/DX2                !
 ! A15   A(5,4,17)             108.7094         estimate D2E/DX2                !
 ! A16   A(16,4,17)            105.4986         estimate D2E/DX2                !
 ! A17   A(4,5,6)              114.2016         estimate D2E/DX2                !
 ! A18   A(4,5,18)             109.0319         estimate D2E/DX2                !
 ! A19   A(4,5,19)             110.0878         estimate D2E/DX2                !
 ! A20   A(6,5,18)             108.5502         estimate D2E/DX2                !
 ! A21   A(6,5,19)             109.2775         estimate D2E/DX2                !
 ! A22   A(18,5,19)            105.3008         estimate D2E/DX2                !
 ! A23   A(5,6,7)              115.6151         estimate D2E/DX2                !
 ! A24   A(5,6,20)             109.012          estimate D2E/DX2                !
 ! A25   A(5,6,21)             108.7807         estimate D2E/DX2                !
 ! A26   A(7,6,20)             108.7614         estimate D2E/DX2                !
 ! A27   A(7,6,21)             109.1227         estimate D2E/DX2                !
 ! A28   A(20,6,21)            105.0251         estimate D2E/DX2                !
 ! A29   A(6,7,8)              115.8028         estimate D2E/DX2                !
 ! A30   A(6,7,22)             109.151          estimate D2E/DX2                !
 ! A31   A(6,7,23)             108.7611         estimate D2E/DX2                !
 ! A32   A(8,7,22)             108.6943         estimate D2E/DX2                !
 ! A33   A(8,7,23)             108.885          estimate D2E/DX2                !
 ! A34   A(22,7,23)            105.0035         estimate D2E/DX2                !
 ! A35   A(7,8,9)              114.2302         estimate D2E/DX2                !
 ! A36   A(7,8,24)             109.7836         estimate D2E/DX2                !
 ! A37   A(7,8,25)             108.039          estimate D2E/DX2                !
 ! A38   A(9,8,24)             109.7238         estimate D2E/DX2                !
 ! A39   A(9,8,25)             109.3336         estimate D2E/DX2                !
 ! A40   A(24,8,25)            105.3381         estimate D2E/DX2                !
 ! A41   A(8,9,10)             114.04           estimate D2E/DX2                !
 ! A42   A(8,9,26)             109.8134         estimate D2E/DX2                !
 ! A43   A(8,9,27)             109.1456         estimate D2E/DX2                !
 ! A44   A(10,9,26)            109.6353         estimate D2E/DX2                !
 ! A45   A(10,9,27)            108.0138         estimate D2E/DX2                !
 ! A46   A(26,9,27)            105.8545         estimate D2E/DX2                !
 ! A47   A(9,10,11)            114.1782         estimate D2E/DX2                !
 ! A48   A(9,10,28)            108.7619         estimate D2E/DX2                !
 ! A49   A(9,10,29)            109.631          estimate D2E/DX2                !
 ! A50   A(11,10,28)           108.634          estimate D2E/DX2                !
 ! A51   A(11,10,29)           109.5943         estimate D2E/DX2                !
 ! A52   A(28,10,29)           105.6874         estimate D2E/DX2                !
 ! A53   A(10,11,30)           111.3712         estimate D2E/DX2                !
 ! A54   A(10,11,31)           110.8339         estimate D2E/DX2                !
 ! A55   A(10,11,32)           111.7238         estimate D2E/DX2                !
 ! A56   A(30,11,31)           107.5729         estimate D2E/DX2                !
 ! A57   A(30,11,32)           107.9235         estimate D2E/DX2                !
 ! A58   A(31,11,32)           107.2141         estimate D2E/DX2                !
 ! D1    D(13,1,2,3)           179.5969         estimate D2E/DX2                !
 ! D2    D(13,1,2,12)            0.589          estimate D2E/DX2                !
 ! D3    D(1,2,3,4)            172.39           estimate D2E/DX2                !
 ! D4    D(1,2,3,14)            47.6959         estimate D2E/DX2                !
 ! D5    D(1,2,3,15)           -66.7378         estimate D2E/DX2                !
 ! D6    D(12,2,3,4)            -8.6281         estimate D2E/DX2                !
 ! D7    D(12,2,3,14)         -133.3221         estimate D2E/DX2                !
 ! D8    D(12,2,3,15)          112.2441         estimate D2E/DX2                !
 ! D9    D(2,3,4,5)            -70.1384         estimate D2E/DX2                !
 ! D10   D(2,3,4,16)            53.5642         estimate D2E/DX2                !
 ! D11   D(2,3,4,17)           168.3809         estimate D2E/DX2                !
 ! D12   D(14,3,4,5)            53.8057         estimate D2E/DX2                !
 ! D13   D(14,3,4,16)          177.5083         estimate D2E/DX2                !
 ! D14   D(14,3,4,17)          -67.675          estimate D2E/DX2                !
 ! D15   D(15,3,4,5)           170.7269         estimate D2E/DX2                !
 ! D16   D(15,3,4,16)          -65.5705         estimate D2E/DX2                !
 ! D17   D(15,3,4,17)           49.2462         estimate D2E/DX2                !
 ! D18   D(3,4,5,6)           -177.6693         estimate D2E/DX2                !
 ! D19   D(3,4,5,18)           -56.0685         estimate D2E/DX2                !
 ! D20   D(3,4,5,19)            58.9795         estimate D2E/DX2                !
 ! D21   D(16,4,5,6)            58.9872         estimate D2E/DX2                !
 ! D22   D(16,4,5,18)         -179.4119         estimate D2E/DX2                !
 ! D23   D(16,4,5,19)          -64.364          estimate D2E/DX2                !
 ! D24   D(17,4,5,6)           -56.1153         estimate D2E/DX2                !
 ! D25   D(17,4,5,18)           65.4855         estimate D2E/DX2                !
 ! D26   D(17,4,5,19)         -179.4665         estimate D2E/DX2                !
 ! D27   D(4,5,6,7)            -60.7039         estimate D2E/DX2                !
 ! D28   D(4,5,6,20)            62.1474         estimate D2E/DX2                !
 ! D29   D(4,5,6,21)           176.1507         estimate D2E/DX2                !
 ! D30   D(18,5,6,7)           177.4303         estimate D2E/DX2                !
 ! D31   D(18,5,6,20)          -59.7184         estimate D2E/DX2                !
 ! D32   D(18,5,6,21)           54.2849         estimate D2E/DX2                !
 ! D33   D(19,5,6,7)            63.084          estimate D2E/DX2                !
 ! D34   D(19,5,6,20)         -174.0646         estimate D2E/DX2                !
 ! D35   D(19,5,6,21)          -60.0613         estimate D2E/DX2                !
 ! D36   D(5,6,7,8)            -54.9558         estimate D2E/DX2                !
 ! D37   D(5,6,7,22)            68.0535         estimate D2E/DX2                !
 ! D38   D(5,6,7,23)          -177.906          estimate D2E/DX2                !
 ! D39   D(20,6,7,8)          -177.9396         estimate D2E/DX2                !
 ! D40   D(20,6,7,22)          -54.9303         estimate D2E/DX2                !
 ! D41   D(20,6,7,23)           59.1102         estimate D2E/DX2                !
 ! D42   D(21,6,7,8)            68.0092         estimate D2E/DX2                !
 ! D43   D(21,6,7,22)         -168.9816         estimate D2E/DX2                !
 ! D44   D(21,6,7,23)          -54.9411         estimate D2E/DX2                !
 ! D45   D(6,7,8,9)            -61.5462         estimate D2E/DX2                !
 ! D46   D(6,7,8,24)            62.1775         estimate D2E/DX2                !
 ! D47   D(6,7,8,25)           176.5572         estimate D2E/DX2                !
 ! D48   D(22,7,8,9)           175.2047         estimate D2E/DX2                !
 ! D49   D(22,7,8,24)          -61.0717         estimate D2E/DX2                !
 ! D50   D(22,7,8,25)           53.3081         estimate D2E/DX2                !
 ! D51   D(23,7,8,9)            61.3388         estimate D2E/DX2                !
 ! D52   D(23,7,8,24)         -174.9375         estimate D2E/DX2                !
 ! D53   D(23,7,8,25)          -60.5578         estimate D2E/DX2                !
 ! D54   D(7,8,9,10)           179.6711         estimate D2E/DX2                !
 ! D55   D(7,8,9,26)           -56.8375         estimate D2E/DX2                !
 ! D56   D(7,8,9,27)            58.7869         estimate D2E/DX2                !
 ! D57   D(24,8,9,10)           55.9154         estimate D2E/DX2                !
 ! D58   D(24,8,9,26)          179.4067         estimate D2E/DX2                !
 ! D59   D(24,8,9,27)          -64.9689         estimate D2E/DX2                !
 ! D60   D(25,8,9,10)          -59.1456         estimate D2E/DX2                !
 ! D61   D(25,8,9,26)           64.3457         estimate D2E/DX2                !
 ! D62   D(25,8,9,27)          179.9701         estimate D2E/DX2                !
 ! D63   D(8,9,10,11)           66.9653         estimate D2E/DX2                !
 ! D64   D(8,9,10,28)         -171.5408         estimate D2E/DX2                !
 ! D65   D(8,9,10,29)          -56.4314         estimate D2E/DX2                !
 ! D66   D(26,9,10,11)         -56.6224         estimate D2E/DX2                !
 ! D67   D(26,9,10,28)          64.8716         estimate D2E/DX2                !
 ! D68   D(26,9,10,29)         179.981          estimate D2E/DX2                !
 ! D69   D(27,9,10,11)        -171.5222         estimate D2E/DX2                !
 ! D70   D(27,9,10,28)         -50.0283         estimate D2E/DX2                !
 ! D71   D(27,9,10,29)          65.0811         estimate D2E/DX2                !
 ! D72   D(9,10,11,30)          56.1024         estimate D2E/DX2                !
 ! D73   D(9,10,11,31)         175.8253         estimate D2E/DX2                !
 ! D74   D(9,10,11,32)         -64.6713         estimate D2E/DX2                !
 ! D75   D(28,10,11,30)        -65.4621         estimate D2E/DX2                !
 ! D76   D(28,10,11,31)         54.2609         estimate D2E/DX2                !
 ! D77   D(28,10,11,32)        173.7642         estimate D2E/DX2                !
 ! D78   D(29,10,11,30)        179.5188         estimate D2E/DX2                !
 ! D79   D(29,10,11,31)        -60.7582         estimate D2E/DX2                !
 ! D80   D(29,10,11,32)         58.7452         estimate D2E/DX2                !
 --------------------------------------------------------------------------------
 Trust Radius=3.00D-01 FncErr=1.00D-07 GrdErr=1.00D-06 EigMax=2.50D+02 EigMin=1.00D-04
 Number of steps in this run=    179 maximum allowed number of steps=    192.
 GradGradGradGradGradGradGradGradGradGradGradGradGradGradGradGradGradGrad

                          Input orientation:                          
 ---------------------------------------------------------------------
 Center     Atomic      Atomic             Coordinates (Angstroms)
 Number     Number       Type             X           Y           Z
 ---------------------------------------------------------------------
      1          8           0        5.683300    0.313400   -0.075000
      2          6           0        5.024800   -0.742100   -0.598400
      3          6           0        4.206100   -1.480300    0.461900
      4          6           0        3.271300   -2.593700   -0.073300
      5          6           0        2.062300   -2.064800   -0.874100
      6          6           0        1.096400   -3.165000   -1.361900
      7          6           0        1.709300   -4.219200   -2.312300
      8          6           0        2.400300   -3.663600   -3.576100
      9          6           0        1.462900   -2.879400   -4.517200
     10          6           0        2.158700   -2.320100   -5.773000
     11          6           0        2.646100   -3.397400   -6.755200
     12          8           0        5.104700   -1.060900   -1.776700
     13          1           0        6.156400    0.684300   -0.820500
     14          1           0        3.635400   -0.751400    1.037100
     15          1           0        4.930700   -1.921200    1.145700
     16          1           0        3.849300   -3.291000   -0.683500
     17          1           0        2.903000   -3.180300    0.770100
     18          1           0        1.503700   -1.362900   -0.253000
     19          1           0        2.405800   -1.481700   -1.729900
     20          1           0        0.674000   -3.676800   -0.495700
     21          1           0        0.245200   -2.692200   -1.853900
     22          1           0        2.427800   -4.825300   -1.758800
     23          1           0        0.926100   -4.916000   -2.615400
     24          1           0        3.244900   -3.034200   -3.289000
     25          1           0        2.837100   -4.502600   -4.118600
     26          1           0        0.623600   -3.510700   -4.813500
     27          1           0        1.027400   -2.041500   -3.971500
     28          1           0        1.463400   -1.661000   -6.295300
     29          1           0        2.998100   -1.688300   -5.476500
     30          1           0        1.830200   -4.051700   -7.064400
     31          1           0        3.062200   -2.942500   -7.654600
     32          1           0        3.427100   -4.019100   -6.317200
 ---------------------------------------------------------------------
                    Distance matrix (angstroms):
                    1          2          3          4          5
     1  O    0.000000
     2  C    1.349685   0.000000
     3  C    2.384899   1.529524   0.000000
     4  C    3.777430   2.603635   1.549177   0.000000
     5  C    4.405228   3.256064   2.592762   1.543599   0.000000
     6  C    5.898731   4.678216   3.979283   2.591730   1.543163
     7  C    6.429825   5.101002   4.629446   3.177297   2.614281
     8  C    6.233163   4.928474   4.932865   3.764696   3.157722
     9  C    6.909333   5.710707   5.854406   4.806265   3.780877
    10  C    7.198981   6.122181   6.615972   5.813718   4.906495
    11  C    8.223119   7.114423   7.628591   6.759038   6.058381
    12  O    2.262578   1.223278   2.448409   2.934690   3.328468
    13  H    0.957685   1.834248   3.183349   4.430281   4.931742
    14  H    2.562120   2.146015   1.089885   2.181657   2.802204
    15  H    2.655175   2.107372   1.089505   2.166062   3.511115
    16  H    4.089686   2.808190   2.172069   1.092088   2.175607
    17  H    4.544249   3.509935   2.164037   1.091361   2.157431
    18  H    4.506742   3.592052   2.797826   2.161382   1.091083
    19  H    4.086941   2.947280   2.836383   2.174847   1.091051
    20  H    6.418082   5.249045   4.268178   2.845610   2.160812
    21  H    6.463053   5.312603   4.745562   3.512481   2.157659
    22  H    6.311870   4.976290   4.391228   2.921034   2.921754
    23  H    7.512071   6.187816   5.659701   4.165971   3.528798
    24  H    5.242329   3.957410   4.172261   3.245838   2.858325
    25  H    6.902566   5.596356   5.655921   4.494094   4.131581
    26  H    7.916924   6.693488   6.692285   5.506424   4.436142
    27  H    6.511964   5.389383   5.483987   4.531664   3.265800
    28  H    7.771611   6.781048   7.294848   6.546122   5.469108
    29  H    6.355573   5.366439   6.063590   5.485340   4.711641
    30  H    9.096823   7.935243   8.300734   7.285466   6.505494
    31  H    8.655714   7.647452   8.326110   7.592200   6.909800
    32  H    7.926289   6.782039   7.280697   6.406428   5.942163
                    6          7          8          9         10
     6  C    0.000000
     7  C    1.546041   0.000000
     8  C    2.617525   1.543814   0.000000
     9  C    3.189327   2.591787   1.542517   0.000000
    10  C    4.615208   3.973032   2.586452   1.540775   0.000000
    11  C    5.616339   4.614359   3.199681   2.583976   1.537157
    12  O    4.545961   4.668026   4.162411   4.907137   5.122003
    13  H    6.380739   6.785756   6.372272   6.956615   7.038130
    14  H    4.245843   5.191722   5.593567   6.332329   7.142753
    15  H    4.747310   5.255091   5.633318   6.709115   7.464015
    16  H    2.838056   2.845021   3.256619   4.534487   5.450118
    17  H    2.794541   3.464884   4.401788   5.488166   6.641241
    18  H    2.154789   3.527242   4.140061   4.526018   5.640537
    19  H    2.164128   2.884130   2.858176   3.257555   4.136500
    20  H    1.091175   2.160111   3.531168   4.175006   5.647554
    21  H    1.090938   2.164590   2.924730   2.934451   4.377132
    22  H    2.164891   1.090854   2.157054   3.510887   4.739435
    23  H    2.160154   1.091239   2.159795   2.837734   4.269477
    24  H    2.889096   2.171689   1.091751   2.169784   2.803574
    25  H    3.524004   2.148248   1.090423   2.163813   2.821449
    26  H    3.500941   2.817218   2.170530   1.091219   2.166726
    27  H    2.842011   2.821402   2.161574   1.090654   2.145428
    28  H    5.170604   4.740163   3.504602   2.155490   1.091170
    29  H    4.767288   4.251896   2.805476   2.166983   1.091639
    30  H    5.817491   4.756588   3.555822   2.827972   2.184963
    31  H    6.596359   5.656896   4.194313   3.522076   2.178098
    32  H    5.542260   4.362350   2.948615   2.897757   2.188971
                   11         12         13         14         15
    11  C    0.000000
    12  O    6.024069   0.000000
    13  H    8.012687   2.250803   0.000000
    14  H    8.288544   3.189373   3.444903   0.000000
    15  H    8.356003   3.051363   3.486677   1.748722   0.000000
    16  H    6.190683   2.782887   4.598314   3.075026   2.528191
    17  H    7.532813   3.978131   5.296202   2.550932   2.416190
    18  H    6.908174   3.921743   5.114753   2.565626   3.743313
    19  H    5.383427   2.731909   4.425558   3.114730   3.851929
    20  H    6.568758   5.302358   7.012945   4.435914   4.888335
    21  H    5.503124   5.126582   6.885561   4.859840   5.616578
    22  H    5.201016   4.619180   6.718523   5.086454   4.809826
    23  H    4.733127   5.746818   7.870265   6.166438   6.257118
    24  H    3.536244   3.104806   5.328937   4.907016   4.873116
    25  H    2.865241   4.740443   6.985639   6.425732   6.225724
    26  H    2.805983   5.941711   8.009616   7.135418   7.522612
    27  H    3.493943   4.733191   6.607982   5.792417   6.437077
    28  H    2.150668   5.834118   7.582751   7.701237   8.213303
    29  H    2.163331   4.303477   6.105934   6.611423   6.902370
    30  H    1.090599   6.901232   8.951647   8.932247   9.030940
    31  H    1.090410   6.500918   8.332627   8.981933   9.054260
    32  H    1.090099   5.672868   7.732061   8.050278   7.896637
                   16         17         18         19         20
    16  H    0.000000
    17  H    1.738014   0.000000
    18  H    3.066715   2.511517   0.000000
    19  H    2.540120   3.063078   1.734685   0.000000
    20  H    3.204160   2.610977   2.470109   3.056280   0.000000
    21  H    3.836396   3.766632   2.431819   2.479693   1.731477
    22  H    2.351810   3.054042   3.887108   3.343797   2.447507
    23  H    3.862378   4.287470   4.305703   3.842921   2.468258
    24  H    2.686983   4.076093   3.878443   2.354812   3.850323
    25  H    3.780534   5.064801   5.155437   3.875273   4.299576
    26  H    5.245027   6.039985   5.117204   4.098984   4.321288
    27  H    4.509469   5.224702   3.809803   2.690378   3.857497
    28  H    6.312030   7.368894   6.049783   4.665098   6.190474
    29  H    5.125040   6.423015   5.442800   3.798752   5.844993
    30  H    6.735823   7.955478   7.330172   5.949211   6.680207
    31  H    7.024045   8.429559   7.727078   6.137334   7.582384
    32  H    5.696223   7.155983   6.894156   5.340859   6.448767
                   21         22         23         24         25
    21  H    0.000000
    22  H    3.053343   0.000000
    23  H    2.447201   1.731211   0.000000
    24  H    3.342854   2.493432   3.061330   0.000000
    25  H    3.889005   2.416675   2.466258   1.735147   0.000000
    26  H    3.093923   3.783451   2.626408   3.069587   2.523160
    27  H    2.349357   3.821872   3.179940   2.523602   3.058376
    28  H    4.719472   5.614507   4.942204   3.754632   3.834027
    29  H    4.659346   4.897684   4.785094   2.580216   3.128913
    30  H    5.613357   5.394903   4.621473   4.158164   3.145615
    31  H    6.453391   6.221564   5.818175   4.370383   3.871418
    32  H    5.639698   4.735775   4.556616   3.189549   2.327169
                   26         27         28         29         30
    26  H    0.000000
    27  H    1.740852   0.000000
    28  H    2.514435   2.394770   0.000000
    29  H    3.065772   2.504682   1.739679   0.000000
    30  H    2.610578   3.775106   2.538012   3.077511   0.000000
    31  H    3.787013   4.303189   2.458882   2.514209   1.759683
    32  H    3.221676   3.895096   3.068751   2.514646   1.763366
                   31         32
    31  H    0.000000
    32  H    1.755237   0.000000
 Stoichiometry    C10H20O2
 Framework group  C1[X(C10H20O2)]
 Deg. of freedom    90
 Full point group                 C1      NOp   1
 Largest Abelian subgroup         C1      NOp   1
 Largest concise Abelian subgroup C1      NOp   1
                         Standard orientation:                         
 ---------------------------------------------------------------------
 Center     Atomic      Atomic             Coordinates (Angstroms)
 Number     Number       Type             X           Y           Z
 ---------------------------------------------------------------------
      1          8           0       -3.951110   -1.757640    0.307911
      2          6           0       -2.843848   -1.093889   -0.085863
      3          6           0       -3.093210    0.411736   -0.187627
      4          6           0       -1.837424    1.279044   -0.453578
      5          6           0       -0.864403    1.355170    0.742303
      6          6           0        0.360527    2.263083    0.504411
      7          6           0        1.280717    1.850579   -0.667482
      8          6           0        1.820553    0.404963   -0.621269
      9          6           0        2.698131    0.095951    0.609067
     10          6           0        3.227949   -1.350141    0.654889
     11          6           0        4.236187   -1.686733   -0.455521
     12          8           0       -1.786739   -1.653128   -0.343118
     13          1           0       -3.676638   -2.674932    0.327938
     14          1           0       -3.599708    0.747032    0.717296
     15          1           0       -3.797759    0.543299   -1.008188
     16          1           0       -1.317061    0.903375   -1.337179
     17          1           0       -2.155822    2.290744   -0.710779
     18          1           0       -1.403695    1.721973    1.616993
     19          1           0       -0.523967    0.354480    1.012699
     20          1           0        0.018115    3.285780    0.338556
     21          1           0        0.948634    2.307076    1.422201
     22          1           0        0.748273    1.995055   -1.608541
     23          1           0        2.124315    2.541396   -0.711261
     24          1           0        0.989490   -0.301495   -0.667861
     25          1           0        2.398229    0.231045   -1.529599
     26          1           0        3.535245    0.794680    0.651191
     27          1           0        2.117681    0.271375    1.515615
     28          1           0        3.704919   -1.518692    1.621710
     29          1           0        2.390439   -2.049073    0.613086
     30          1           0        5.082674   -0.999154   -0.445505
     31          1           0        4.630031   -2.695625   -0.328957
     32          1           0        3.778323   -1.640767   -1.443734
 ---------------------------------------------------------------------
 Rotational constants (GHZ):           1.1606340           0.3968215           0.3188510
 Standard basis: 6-31G(d,p) (6D, 7F)
 There are   280 symmetry adapted cartesian basis functions of A   symmetry.
 There are   280 symmetry adapted basis functions of A   symmetry.
   280 basis functions,   476 primitive gaussians,   280 cartesian basis functions
    48 alpha electrons       48 beta electrons
       nuclear repulsion energy       725.7049277538 Hartrees.
 NAtoms=   32 NActive=   32 NUniq=   32 SFac= 1.00D+00 NAtFMM=   60 NAOKFM=F Big=F
 Integral buffers will be    131072 words long.
 Raffenetti 2 integral format.
 Two-electron integral symmetry is turned on.
 Nuclear repulsion after empirical dispersion term =      725.6559791722 Hartrees.
 One-electron integrals computed using PRISM.
 NBasis=   280 RedAO= T EigKep=  3.35D-03  NBF=   280
 NBsUse=   280 1.00D-06 EigRej= -1.00D+00 NBFU=   280
 ExpMin= 1.61D-01 ExpMax= 5.48D+03 ExpMxC= 8.25D+02 IAcc=3 IRadAn=         5 AccDes= 0.00D+00
 Harris functional with IExCor=  402 and IRadAn=       5 diagonalized for initial guess.
 HarFok:  IExCor=  402 AccDes= 0.00D+00 IRadAn=         5 IDoV= 1 UseB2=F ITyADJ=14
 ICtDFT=  3500011 ScaDFX=  1.000000  1.000000  1.000000  1.000000
 FoFCou: FMM=F IPFlag=           0 FMFlag=      100000 FMFlg1=           0
         NFxFlg=           0 DoJE=T BraDBF=F KetDBF=T FulRan=T
         wScrn=  0.000000 ICntrl=       500 IOpCl=  0 I1Cent=   200000004 NGrid=           0
         NMat0=    1 NMatS0=      1 NMatT0=    0 NMatD0=    1 NMtDS0=    0 NMtDT0=    0
 Petite list used in FoFCou.
 Requested convergence on RMS density matrix=1.00D-08 within 128 cycles.
 Requested convergence on MAX density matrix=1.00D-06.
 Requested convergence on             energy=1.00D-06.
 No special actions if energy rises.
 Integral accuracy reduced to 1.0D-05 until final iterations.
 Initial convergence to 1.0D-05 achieved.  Increase integral accuracy.
 SCF Done:  E(RB3LYP) =  -543.666676318     A.U. after   13 cycles
            NFock= 13  Conv=0.79D-08     -V/T= 2.0097

 **********************************************************************

            Population analysis using the SCF Density.

 **********************************************************************

 Orbital symmetries:
       Occupied  (A) (A) (A) (A) (A) (A) (A) (A) (A) (A) (A) (A)
                 (A) (A) (A) (A) (A) (A) (A) (A) (A) (A) (A) (A)
                 (A) (A) (A) (A) (A) (A) (A) (A) (A) (A) (A) (A)
                 (A) (A) (A) (A) (A) (A) (A) (A) (A) (A) (A) (A)
       Virtual   (A) (A) (A) (A) (A) (A) (A) (A) (A) (A) (A) (A)
                 (A) (A) (A) (A) (A) (A) (A) (A) (A) (A) (A) (A)
                 (A) (A) (A) (A) (A) (A) (A) (A) (A) (A) (A) (A)
                 (A) (A) (A) (A) (A) (A) (A) (A) (A) (A) (A) (A)
                 (A) (A) (A) (A) (A) (A) (A) (A) (A) (A) (A) (A)
                 (A) (A) (A) (A) (A) (A) (A) (A) (A) (A) (A) (A)
                 (A) (A) (A) (A) (A) (A) (A) (A) (A) (A) (A) (A)
                 (A) (A) (A) (A) (A) (A) (A) (A) (A) (A) (A) (A)
                 (A) (A) (A) (A) (A) (A) (A) (A) (A) (A) (A) (A)
                 (A) (A) (A) (A) (A) (A) (A) (A) (A) (A) (A) (A)
                 (A) (A) (A) (A) (A) (A) (A) (A) (A) (A) (A) (A)
                 (A) (A) (A) (A) (A) (A) (A) (A) (A) (A) (A) (A)
                 (A) (A) (A) (A) (A) (A) (A) (A) (A) (A) (A) (A)
                 (A) (A) (A) (A) (A) (A) (A) (A) (A) (A) (A) (A)
                 (A) (A) (A) (A) (A) (A) (A) (A) (A) (A) (A) (A)
                 (A) (A) (A) (A) (A) (A) (A) (A) (A) (A) (A) (A)
                 (A) (A) (A) (A) (A) (A) (A) (A) (A) (A) (A) (A)
                 (A) (A) (A) (A) (A) (A) (A) (A) (A) (A) (A) (A)
                 (A) (A) (A) (A) (A) (A) (A) (A) (A) (A) (A) (A)
                 (A) (A) (A) (A)
 The electronic state is 1-A.
 Alpha  occ. eigenvalues --  -19.20110 -19.14168 -10.32437 -10.20243 -10.18498
 Alpha  occ. eigenvalues --  -10.17405 -10.17271 -10.17018 -10.16956 -10.16718
 Alpha  occ. eigenvalues --  -10.16502 -10.16323  -1.11065  -1.01388  -0.80750
 Alpha  occ. eigenvalues --   -0.78820  -0.76131  -0.72188  -0.68147  -0.65097
 Alpha  occ. eigenvalues --   -0.61483  -0.58406  -0.56511  -0.53997  -0.49608
 Alpha  occ. eigenvalues --   -0.48456  -0.47097  -0.46175  -0.44502  -0.43712
 Alpha  occ. eigenvalues --   -0.42996  -0.40852  -0.40462  -0.40211  -0.38217
 Alpha  occ. eigenvalues --   -0.37872  -0.36970  -0.35588  -0.34681  -0.34137
 Alpha  occ. eigenvalues --   -0.32682  -0.32323  -0.31876  -0.31730  -0.30610
 Alpha  occ. eigenvalues --   -0.29976  -0.29306  -0.27512
 Alpha virt. eigenvalues --    0.00729   0.08096   0.08420   0.10276   0.11570
 Alpha virt. eigenvalues --    0.11819   0.12833   0.14291   0.14641   0.16360
 Alpha virt. eigenvalues --    0.16738   0.17172   0.17512   0.18129   0.18585
 Alpha virt. eigenvalues --    0.18981   0.19554   0.21112   0.21566   0.22386
 Alpha virt. eigenvalues --    0.22851   0.23429   0.23797   0.24377   0.24894
 Alpha virt. eigenvalues --    0.26130   0.26436   0.26601   0.28905   0.30362
 Alpha virt. eigenvalues --    0.31764   0.36510   0.49082   0.50390   0.51190
 Alpha virt. eigenvalues --    0.51754   0.52827   0.53550   0.54252   0.54794
 Alpha virt. eigenvalues --    0.56834   0.57544   0.59484   0.60524   0.63314
 Alpha virt. eigenvalues --    0.64161   0.64956   0.65900   0.66848   0.67649
 Alpha virt. eigenvalues --    0.68677   0.69970   0.70716   0.71100   0.72650
 Alpha virt. eigenvalues --    0.75692   0.76300   0.79384   0.81009   0.82217
 Alpha virt. eigenvalues --    0.83501   0.84818   0.85324   0.86060   0.86839
 Alpha virt. eigenvalues --    0.88264   0.88415   0.89028   0.89832   0.90362
 Alpha virt. eigenvalues --    0.91144   0.92287   0.93293   0.93408   0.94466
 Alpha virt. eigenvalues --    0.95065   0.96048   0.96166   0.97614   0.98809
 Alpha virt. eigenvalues --    1.00456   1.00801   1.01748   1.01924   1.04469
 Alpha virt. eigenvalues --    1.05270   1.09463   1.12256   1.14334   1.16137
 Alpha virt. eigenvalues --    1.20748   1.28339   1.29220   1.29496   1.34269
 Alpha virt. eigenvalues --    1.37302   1.38140   1.39578   1.43100   1.49495
 Alpha virt. eigenvalues --    1.51638   1.52634   1.54495   1.55524   1.59147
 Alpha virt. eigenvalues --    1.60958   1.62949   1.64529   1.65015   1.66809
 Alpha virt. eigenvalues --    1.68052   1.71142   1.72514   1.73949   1.76106
 Alpha virt. eigenvalues --    1.76740   1.77787   1.79154   1.81186   1.81535
 Alpha virt. eigenvalues --    1.85285   1.86538   1.87118   1.87857   1.89375
 Alpha virt. eigenvalues --    1.89709   1.90591   1.91674   1.94401   1.96244
 Alpha virt. eigenvalues --    1.99724   2.01858   2.03037   2.04042   2.06693
 Alpha virt. eigenvalues --    2.09467   2.12112   2.13058   2.14275   2.15836
 Alpha virt. eigenvalues --    2.16391   2.17391   2.19207   2.20223   2.20765
 Alpha virt. eigenvalues --    2.22279   2.24419   2.24861   2.26941   2.27300
 Alpha virt. eigenvalues --    2.27853   2.27962   2.28752   2.30572   2.31500
 Alpha virt. eigenvalues --    2.35085   2.35582   2.35956   2.38887   2.40061
 Alpha virt. eigenvalues --    2.42659   2.44084   2.47412   2.49413   2.52382
 Alpha virt. eigenvalues --    2.53107   2.54544   2.55620   2.57227   2.57494
 Alpha virt. eigenvalues --    2.59586   2.61728   2.63530   2.64796   2.65861
 Alpha virt. eigenvalues --    2.68809   2.69890   2.71904   2.73961   2.74867
 Alpha virt. eigenvalues --    2.75768   2.77135   2.78863   2.81925   2.82648
 Alpha virt. eigenvalues --    2.83540   2.85165   2.85689   2.89851   2.90403
 Alpha virt. eigenvalues --    2.90750   2.90916   2.91879   2.92366   2.92830
 Alpha virt. eigenvalues --    2.93792   2.94844   2.97171   3.01682   3.14993
 Alpha virt. eigenvalues --    3.20964   3.27037   3.29082   3.31576   3.33437
 Alpha virt. eigenvalues --    3.34070   3.35454   3.36306   3.37573   3.40502
 Alpha virt. eigenvalues --    3.42937   3.45337   3.45900   3.47755   3.51128
 Alpha virt. eigenvalues --    3.53285   3.55987   3.57593   3.59484   3.61698
 Alpha virt. eigenvalues --    3.92839   4.15950   4.24974   4.26902   4.34817
 Alpha virt. eigenvalues --    4.43921   4.53611   4.63298   4.63735   4.65675
 Alpha virt. eigenvalues --    4.70545   4.75784
          Condensed to atoms (all electrons):
               1          2          3          4          5          6
     1  O    8.112529   0.256893  -0.094370   0.002567  -0.000029  -0.000000
     2  C    0.256893   4.380728   0.325682  -0.033422  -0.003066   0.000082
     3  C   -0.094370   0.325682   5.142410   0.340364  -0.035806   0.003525
     4  C    0.002567  -0.033422   0.340364   4.906000   0.379786  -0.039026
     5  C   -0.000029  -0.003066  -0.035806   0.379786   4.913255   0.370764
     6  C   -0.000000   0.000082   0.003525  -0.039026   0.370764   4.911061
     7  C    0.000000  -0.000020   0.000132  -0.003889  -0.045076   0.374807
     8  C   -0.000000  -0.000030   0.000069  -0.002083  -0.001555  -0.044524
     9  C    0.000000  -0.000002  -0.000001   0.000140  -0.002225  -0.003876
    10  C   -0.000000   0.000000  -0.000000  -0.000001   0.000006   0.000081
    11  C   -0.000000  -0.000000   0.000000   0.000000  -0.000001   0.000001
    12  O   -0.079877   0.563949  -0.084962   0.005209  -0.003849   0.000057
    13  H    0.267969  -0.009323   0.011180  -0.000318   0.000009  -0.000000
    14  H    0.002843  -0.025770   0.365128  -0.035628  -0.005175  -0.000025
    15  H    0.001764  -0.026264   0.364548  -0.027601   0.003759  -0.000126
    16  H    0.000093  -0.006179  -0.034997   0.384534  -0.034610  -0.005117
    17  H   -0.000048   0.004622  -0.029762   0.372298  -0.040906  -0.002534
    18  H   -0.000004  -0.000448  -0.004111  -0.042800   0.374423  -0.031298
    19  H   -0.000074   0.004290  -0.005283  -0.039014   0.384948  -0.033560
    20  H   -0.000000   0.000000   0.000013  -0.006742  -0.039495   0.376754
    21  H   -0.000000  -0.000000  -0.000145   0.004744  -0.033864   0.378962
    22  H   -0.000000  -0.000004  -0.000063   0.003495  -0.007213  -0.039022
    23  H   -0.000000   0.000000  -0.000002   0.000043   0.005175  -0.034396
    24  H    0.000005   0.000192  -0.000269  -0.000192   0.003153  -0.007841
    25  H    0.000000   0.000000   0.000001   0.000023   0.000004   0.005096
    26  H   -0.000000   0.000000  -0.000000  -0.000004   0.000131  -0.000967
    27  H   -0.000000  -0.000002   0.000001   0.000004   0.000234   0.003029
    28  H    0.000000  -0.000000   0.000000   0.000000   0.000000   0.000000
    29  H   -0.000000   0.000001   0.000000  -0.000002   0.000003  -0.000019
    30  H   -0.000000   0.000000   0.000000  -0.000000  -0.000000   0.000000
    31  H    0.000000   0.000000  -0.000000  -0.000000   0.000000   0.000000
    32  H    0.000000   0.000000   0.000000  -0.000000   0.000000  -0.000000
               7          8          9         10         11         12
     1  O    0.000000  -0.000000   0.000000  -0.000000  -0.000000  -0.079877
     2  C   -0.000020  -0.000030  -0.000002   0.000000  -0.000000   0.563949
     3  C    0.000132   0.000069  -0.000001  -0.000000   0.000000  -0.084962
     4  C   -0.003889  -0.002083   0.000140  -0.000001   0.000000   0.005209
     5  C   -0.045076  -0.001555  -0.002225   0.000006  -0.000001  -0.003849
     6  C    0.374807  -0.044524  -0.003876   0.000081   0.000001   0.000057
     7  C    4.916846   0.368777  -0.039094   0.003797   0.000084   0.000013
     8  C    0.368777   4.923815   0.381314  -0.038853  -0.004985  -0.000947
     9  C   -0.039094   0.381314   4.892995   0.378738  -0.045769   0.000015
    10  C    0.003797  -0.038853   0.378738   4.872091   0.375903  -0.000004
    11  C    0.000084  -0.004985  -0.045769   0.375903   4.915398   0.000000
    12  O    0.000013  -0.000947   0.000015  -0.000004   0.000000   8.042800
    13  H   -0.000000   0.000000  -0.000000  -0.000000   0.000000   0.011225
    14  H    0.000004  -0.000001   0.000000   0.000000   0.000000   0.001870
    15  H    0.000005  -0.000001   0.000000   0.000000  -0.000000   0.000567
    16  H    0.003072   0.000197  -0.000003   0.000000   0.000000   0.004444
    17  H   -0.000903   0.000114  -0.000003  -0.000000   0.000000   0.000239
    18  H    0.005064   0.000018   0.000018   0.000001  -0.000000   0.000097
    19  H   -0.007562   0.003184   0.000282  -0.000048   0.000002   0.005749
    20  H   -0.034523   0.004955   0.000066  -0.000001   0.000000  -0.000001
    21  H   -0.037673  -0.006628   0.003166  -0.000117   0.000000   0.000000
    22  H    0.377152  -0.034069   0.004678  -0.000153  -0.000000  -0.000005
    23  H    0.376834  -0.038582  -0.006730   0.000057  -0.000016  -0.000000
    24  H   -0.035373   0.381740  -0.038875  -0.003119  -0.000594   0.004778
    25  H   -0.032225   0.377940  -0.040759  -0.004658   0.002712   0.000001
    26  H   -0.002635  -0.041734   0.380077  -0.038662  -0.007254  -0.000000
    27  H   -0.005728  -0.040000   0.379541  -0.033163   0.005076  -0.000007
    28  H   -0.000159   0.004604  -0.033083   0.379827  -0.040457   0.000000
    29  H    0.000087  -0.007161  -0.037413   0.386862  -0.039250   0.000018
    30  H   -0.000019  -0.000596  -0.004760  -0.035917   0.386300  -0.000000
    31  H    0.000000   0.000142   0.004330  -0.028293   0.380614   0.000000
    32  H   -0.000132   0.002155  -0.004549  -0.034661   0.388764  -0.000000
              13         14         15         16         17         18
     1  O    0.267969   0.002843   0.001764   0.000093  -0.000048  -0.000004
     2  C   -0.009323  -0.025770  -0.026264  -0.006179   0.004622  -0.000448
     3  C    0.011180   0.365128   0.364548  -0.034997  -0.029762  -0.004111
     4  C   -0.000318  -0.035628  -0.027601   0.384534   0.372298  -0.042800
     5  C    0.000009  -0.005175   0.003759  -0.034610  -0.040906   0.374423
     6  C   -0.000000  -0.000025  -0.000126  -0.005117  -0.002534  -0.031298
     7  C   -0.000000   0.000004   0.000005   0.003072  -0.000903   0.005064
     8  C    0.000000  -0.000001  -0.000001   0.000197   0.000114   0.000018
     9  C   -0.000000   0.000000   0.000000  -0.000003  -0.000003   0.000018
    10  C   -0.000000   0.000000   0.000000   0.000000  -0.000000   0.000001
    11  C    0.000000   0.000000  -0.000000   0.000000   0.000000  -0.000000
    12  O    0.011225   0.001870   0.000567   0.004444   0.000239   0.000097
    13  H    0.400538  -0.000387  -0.000375  -0.000010   0.000004  -0.000001
    14  H   -0.000387   0.585846  -0.027428   0.005206  -0.002204   0.005413
    15  H   -0.000375  -0.027428   0.581362  -0.001630  -0.004066   0.000031
    16  H   -0.000010   0.005206  -0.001630   0.606039  -0.040118   0.005953
    17  H    0.000004  -0.002204  -0.004066  -0.040118   0.647148  -0.005823
    18  H   -0.000001   0.005413   0.000031   0.005953  -0.005823   0.659956
    19  H    0.000007  -0.000506   0.000077  -0.005859   0.005972  -0.039749
    20  H    0.000000  -0.000001  -0.000001  -0.000340   0.005071  -0.004453
    21  H    0.000000  -0.000006   0.000002   0.000009  -0.000043  -0.003547
    22  H    0.000000  -0.000001   0.000006   0.001341   0.000386  -0.000047
    23  H    0.000000   0.000000  -0.000000  -0.000086  -0.000030  -0.000158
    24  H   -0.000002   0.000002   0.000001   0.001362  -0.000006  -0.000043
    25  H   -0.000000   0.000000  -0.000000  -0.000052  -0.000001  -0.000002
    26  H    0.000000  -0.000000  -0.000000   0.000001   0.000000  -0.000000
    27  H    0.000000   0.000000  -0.000000  -0.000003   0.000001  -0.000064
    28  H   -0.000000  -0.000000  -0.000000  -0.000000  -0.000000  -0.000000
    29  H    0.000000  -0.000000  -0.000000  -0.000001   0.000000  -0.000000
    30  H   -0.000000  -0.000000  -0.000000  -0.000000  -0.000000   0.000000
    31  H    0.000000   0.000000   0.000000   0.000000   0.000000   0.000000
    32  H   -0.000000   0.000000  -0.000000   0.000000  -0.000000   0.000000
              19         20         21         22         23         24
     1  O   -0.000074  -0.000000  -0.000000  -0.000000  -0.000000   0.000005
     2  C    0.004290   0.000000  -0.000000  -0.000004   0.000000   0.000192
     3  C   -0.005283   0.000013  -0.000145  -0.000063  -0.000002  -0.000269
     4  C   -0.039014  -0.006742   0.004744   0.003495   0.000043  -0.000192
     5  C    0.384948  -0.039495  -0.033864  -0.007213   0.005175   0.003153
     6  C   -0.033560   0.376754   0.378962  -0.039022  -0.034396  -0.007841
     7  C   -0.007562  -0.034523  -0.037673   0.377152   0.376834  -0.035373
     8  C    0.003184   0.004955  -0.006628  -0.034069  -0.038582   0.381740
     9  C    0.000282   0.000066   0.003166   0.004678  -0.006730  -0.038875
    10  C   -0.000048  -0.000001  -0.000117  -0.000153   0.000057  -0.003119
    11  C    0.000002   0.000000   0.000000  -0.000000  -0.000016  -0.000594
    12  O    0.005749  -0.000001   0.000000  -0.000005  -0.000000   0.004778
    13  H    0.000007   0.000000   0.000000   0.000000   0.000000  -0.000002
    14  H   -0.000506  -0.000001  -0.000006  -0.000001   0.000000   0.000002
    15  H    0.000077  -0.000001   0.000002   0.000006  -0.000000   0.000001
    16  H   -0.005859  -0.000340   0.000009   0.001341  -0.000086   0.001362
    17  H    0.005972   0.005071  -0.000043   0.000386  -0.000030  -0.000006
    18  H   -0.039749  -0.004453  -0.003547  -0.000047  -0.000158  -0.000043
    19  H    0.606952   0.005859  -0.004228  -0.000019   0.000001   0.000793
    20  H    0.005859   0.656419  -0.039489  -0.004947  -0.002591  -0.000025
    21  H   -0.004228  -0.039489   0.644126   0.006076  -0.005005  -0.000023
    22  H   -0.000019  -0.004947   0.006076   0.653023  -0.039578  -0.003898
    23  H    0.000001  -0.002591  -0.005005  -0.039578   0.653452   0.005795
    24  H    0.000793  -0.000025  -0.000023  -0.003898   0.005795   0.609527
    25  H   -0.000064  -0.000156  -0.000020  -0.003648  -0.004285  -0.038759
    26  H   -0.000028  -0.000024   0.000446  -0.000011   0.005056   0.005819
    27  H    0.001425  -0.000063   0.001640   0.000001  -0.000332  -0.005940
    28  H   -0.000005  -0.000000   0.000007   0.000003   0.000002   0.000036
    29  H    0.000068  -0.000000   0.000007   0.000000   0.000009   0.005080
    30  H    0.000000  -0.000000   0.000000   0.000000   0.000002   0.000067
    31  H   -0.000000  -0.000000  -0.000000  -0.000000  -0.000000  -0.000019
    32  H   -0.000001  -0.000000  -0.000000   0.000008   0.000009   0.000361
              25         26         27         28         29         30
     1  O    0.000000  -0.000000  -0.000000   0.000000  -0.000000  -0.000000
     2  C    0.000000   0.000000  -0.000002  -0.000000   0.000001   0.000000
     3  C    0.000001  -0.000000   0.000001   0.000000   0.000000   0.000000
     4  C    0.000023  -0.000004   0.000004   0.000000  -0.000002  -0.000000
     5  C    0.000004   0.000131   0.000234   0.000000   0.000003  -0.000000
     6  C    0.005096  -0.000967   0.003029   0.000000  -0.000019   0.000000
     7  C   -0.032225  -0.002635  -0.005728  -0.000159   0.000087  -0.000019
     8  C    0.377940  -0.041734  -0.040000   0.004604  -0.007161  -0.000596
     9  C   -0.040759   0.380077   0.379541  -0.033083  -0.037413  -0.004760
    10  C   -0.004658  -0.038662  -0.033163   0.379827   0.386862  -0.035917
    11  C    0.002712  -0.007254   0.005076  -0.040457  -0.039250   0.386300
    12  O    0.000001  -0.000000  -0.000007   0.000000   0.000018  -0.000000
    13  H   -0.000000   0.000000   0.000000  -0.000000   0.000000  -0.000000
    14  H    0.000000  -0.000000   0.000000  -0.000000  -0.000000  -0.000000
    15  H   -0.000000  -0.000000  -0.000000  -0.000000  -0.000000  -0.000000
    16  H   -0.000052   0.000001  -0.000003  -0.000000  -0.000001  -0.000000
    17  H   -0.000001   0.000000   0.000001  -0.000000   0.000000  -0.000000
    18  H   -0.000002  -0.000000  -0.000064  -0.000000  -0.000000   0.000000
    19  H   -0.000064  -0.000028   0.001425  -0.000005   0.000068   0.000000
    20  H   -0.000156  -0.000024  -0.000063  -0.000000  -0.000000  -0.000000
    21  H   -0.000020   0.000446   0.001640   0.000007   0.000007   0.000000
    22  H   -0.003648  -0.000011   0.000001   0.000003   0.000000   0.000000
    23  H   -0.004285   0.005056  -0.000332   0.000002   0.000009   0.000002
    24  H   -0.038759   0.005819  -0.005940   0.000036   0.005080   0.000067
    25  H    0.648875  -0.005791   0.006260  -0.000007  -0.000273   0.000377
    26  H   -0.005791   0.655068  -0.041547  -0.002972   0.006057   0.005478
    27  H    0.006260  -0.041547   0.648341  -0.004508  -0.003221   0.000033
    28  H   -0.000007  -0.002972  -0.004508   0.653333  -0.039902  -0.004397
    29  H   -0.000273   0.006057  -0.003221  -0.039902   0.632125   0.005470
    30  H    0.000377   0.005478   0.000033  -0.004397   0.005470   0.615891
    31  H   -0.000135   0.000006  -0.000186  -0.004199  -0.002516  -0.032854
    32  H    0.002178  -0.000155  -0.000014   0.005564  -0.005293  -0.034181
              31         32
     1  O    0.000000   0.000000
     2  C    0.000000   0.000000
     3  C   -0.000000   0.000000
     4  C   -0.000000  -0.000000
     5  C    0.000000   0.000000
     6  C    0.000000  -0.000000
     7  C    0.000000  -0.000132
     8  C    0.000142   0.002155
     9  C    0.004330  -0.004549
    10  C   -0.028293  -0.034661
    11  C    0.380614   0.388764
    12  O    0.000000  -0.000000
    13  H    0.000000  -0.000000
    14  H    0.000000   0.000000
    15  H    0.000000  -0.000000
    16  H    0.000000   0.000000
    17  H    0.000000  -0.000000
    18  H    0.000000   0.000000
    19  H   -0.000000  -0.000001
    20  H   -0.000000  -0.000000
    21  H   -0.000000  -0.000000
    22  H   -0.000000   0.000008
    23  H   -0.000000   0.000009
    24  H   -0.000019   0.000361
    25  H   -0.000135   0.002178
    26  H    0.000006  -0.000155
    27  H   -0.000186  -0.000014
    28  H   -0.004199   0.005564
    29  H   -0.002516  -0.005293
    30  H   -0.032854  -0.034181
    31  H    0.617691  -0.032167
    32  H   -0.032167   0.605646
 Mulliken charges:
               1
     1  O   -0.470259
     2  C    0.568091
     3  C   -0.263281
     4  C   -0.168487
     5  C   -0.182780
     6  C   -0.181887
     7  C   -0.181660
     8  C   -0.187272
     9  C   -0.168221
    10  C   -0.179714
    11  C   -0.316528
    12  O   -0.471379
    13  H    0.319485
    14  H    0.130822
    15  H    0.135373
    16  H    0.116754
    17  H    0.090592
    18  H    0.081574
    19  H    0.116393
    20  H    0.083713
    21  H    0.091602
    22  H    0.086509
    23  H    0.085356
    24  H    0.116266
    25  H    0.087368
    26  H    0.083645
    27  H    0.089190
    28  H    0.086312
    29  H    0.099263
    30  H    0.099108
    31  H    0.097586
    32  H    0.106469
 Sum of Mulliken charges =  -0.00000
 Mulliken charges with hydrogens summed into heavy atoms:
               1
     1  O   -0.150774
     2  C    0.568091
     3  C    0.002913
     4  C    0.038859
     5  C    0.015187
     6  C   -0.006573
     7  C   -0.009796
     8  C    0.016362
     9  C    0.004613
    10  C    0.005862
    11  C   -0.013366
    12  O   -0.471379
 Electronic spatial extent (au):  <R**2>=           3544.6163
 Charge=             -0.0000 electrons
 Dipole moment (field-independent basis, Debye):
    X=             -1.4153    Y=              0.3974    Z=              0.3004  Tot=              1.5004
 Quadrupole moment (field-independent basis, Debye-Ang):
   XX=            -72.8939   YY=            -73.1327   ZZ=            -75.8291
   XY=              2.0652   XZ=              0.5585   YZ=             -1.5540
 Traceless Quadrupole moment (field-independent basis, Debye-Ang):
   XX=              1.0580   YY=              0.8192   ZZ=             -1.8772
   XY=              2.0652   XZ=              0.5585   YZ=             -1.5540
 Octapole moment (field-independent basis, Debye-Ang**2):
  XXX=            -32.4064  YYY=            -33.4594  ZZZ=             -0.5936  XYY=            -29.3898
  XXY=            -12.4249  XXZ=             -3.0843  XZZ=            -11.4538  YZZ=             -4.8241
  YYZ=              4.2401  XYZ=              2.2896
 Hexadecapole moment (field-independent basis, Debye-Ang**3):
 XXXX=          -3371.8214 YYYY=          -1027.1608 ZZZZ=           -277.2431 XXXY=             78.4107
 XXXZ=             28.2087 YYYX=            119.8548 YYYZ=            -14.7413 ZZZX=             -0.2481
 ZZZY=             -0.0868 XXYY=           -652.6222 XXZZ=           -592.1209 YYZZ=           -230.6931
 XXYZ=             -7.7992 YYXZ=            -10.2367 ZZXY=             14.6954
 N-N= 7.256559791722D+02 E-N=-2.714851964185D+03  KE= 5.384484700471D+02
 Calling FoFJK, ICntrl=      2127 FMM=F ISym2X=0 I1Cent= 0 IOpClX= 0 NMat=1 NMatS=1 NMatT=0.
 ***** Axes restored to original set *****
 -------------------------------------------------------------------
 Center     Atomic                   Forces (Hartrees/Bohr)
 Number     Number              X              Y              Z
 -------------------------------------------------------------------
      1        8          -0.006618123   -0.005973113    0.006255431
      2        6          -0.013693197   -0.017521095   -0.009167658
      3        6          -0.002882983   -0.006414256   -0.009800944
      4        6           0.000710148    0.008757425   -0.006950596
      5        6           0.002405416   -0.005560759   -0.001519310
      6        6           0.005702533    0.000141829   -0.002761462
      7        6           0.001833491    0.006453780   -0.000577776
      8        6          -0.006875962    0.001073215    0.001169411
      9        6           0.009668110    0.001654167    0.002020361
     10        6          -0.002117080   -0.007405708   -0.000520856
     11        6           0.000404251    0.004624017    0.003490192
     12        8           0.000981490    0.007148532    0.015864629
     13        1           0.009821859    0.008888379   -0.010003255
     14        1          -0.000122198    0.003773080    0.002135716
     15        1           0.003368212   -0.000129650    0.004674906
     16        1           0.002086787    0.001126690   -0.002267144
     17        1          -0.000646489    0.000201544    0.004538919
     18        1          -0.002531715    0.001963182    0.003985449
     19        1           0.003676206    0.000360047   -0.002083020
     20        1          -0.000589397   -0.003233779    0.003720493
     21        1          -0.001929285    0.002918671   -0.002212412
     22        1           0.003683805   -0.001360554    0.001984286
     23        1          -0.004343220   -0.001530775   -0.001123441
     24        1           0.001863987    0.003844248    0.001092175
     25        1           0.000722758   -0.003617312   -0.002025252
     26        1          -0.003034061   -0.003844945   -0.001645128
     27        1          -0.001480256    0.003092213    0.002649687
     28        1          -0.003210143    0.002028428   -0.001713950
     29        1           0.003312755    0.001268175    0.002114875
     30        1          -0.002874681   -0.001964471   -0.000244939
     31        1           0.001147635    0.001259620   -0.002478874
     32        1           0.001559346   -0.002020827    0.001399488
 -------------------------------------------------------------------
 Cartesian Forces:  Max     0.017521095 RMS     0.004866693

 GradGradGradGradGradGradGradGradGradGradGradGradGradGradGradGradGradGrad
 Berny optimization.
 FormGI is forming the generalized inverse of G from B-inverse, IUseBI=4.
 Internal  Forces:  Max     0.017080675 RMS     0.003273478
 Search for a local minimum.
 Step number   1 out of a maximum of  179
 All quantities printed in internal units (Hartrees-Bohrs-Radians)
 Mixed Optimization -- RFO/linear search
 Second derivative matrix not updated -- first step.
 ITU=  0
     Eigenvalues ---    0.00230   0.00230   0.00230   0.00230   0.00230
     Eigenvalues ---    0.00230   0.00230   0.00274   0.00375   0.00853
     Eigenvalues ---    0.02357   0.03092   0.03109   0.03232   0.03235
     Eigenvalues ---    0.03265   0.03268   0.03270   0.03656   0.04638
     Eigenvalues ---    0.04642   0.04675   0.04677   0.04687   0.04696
     Eigenvalues ---    0.04704   0.05197   0.05348   0.05460   0.08521
     Eigenvalues ---    0.08525   0.08565   0.08574   0.08577   0.08817
     Eigenvalues ---    0.08848   0.09790   0.12357   0.12360   0.12385
     Eigenvalues ---    0.12394   0.12397   0.12561   0.12583   0.13107
     Eigenvalues ---    0.16000   0.16000   0.16000   0.16000   0.21893
     Eigenvalues ---    0.21894   0.21895   0.21908   0.21911   0.21914
     Eigenvalues ---    0.21918   0.22001   0.24998   0.25000   0.27721
     Eigenvalues ---    0.27990   0.28184   0.28203   0.28241   0.28297
     Eigenvalues ---    0.28450   0.28772   0.29467   0.34572   0.34611
     Eigenvalues ---    0.34624   0.34656   0.34670   0.34672   0.34677
     Eigenvalues ---    0.34678   0.34688   0.34692   0.34704   0.34714
     Eigenvalues ---    0.34737   0.34744   0.34764   0.34765   0.34801
     Eigenvalues ---    0.34826   0.34870   0.55088   0.55974   0.93946
 RFO step:  Lambda=-6.71586450D-03 EMin= 2.30000000D-03
 Linear search not attempted -- first point.
 Iteration  1 RMS(Cart)=  0.18139608 RMS(Int)=  0.00350175
 Iteration  2 RMS(Cart)=  0.00763995 RMS(Int)=  0.00014805
 Iteration  3 RMS(Cart)=  0.00001860 RMS(Int)=  0.00014790
 Iteration  4 RMS(Cart)=  0.00000001 RMS(Int)=  0.00014790
 Variable       Old X    -DE/DX   Delta X   Delta X   Delta X     New X
                                 (Linear)    (Quad)   (Total)
    R1        2.55054   0.00239   0.00000   0.00429   0.00429   2.55482
    R2        1.80976   0.01608   0.00000   0.02839   0.02839   1.83815
    R3        2.89038  -0.01074   0.00000  -0.03562  -0.03562   2.85476
    R4        2.31166  -0.01708   0.00000  -0.01805  -0.01805   2.29361
    R5        2.92752  -0.01289   0.00000  -0.04538  -0.04538   2.88214
    R6        2.05958   0.00371   0.00000   0.01046   0.01046   2.07005
    R7        2.05887   0.00523   0.00000   0.01471   0.01471   2.07357
    R8        2.91698  -0.00788   0.00000  -0.02728  -0.02728   2.88970
    R9        2.06375   0.00165   0.00000   0.00469   0.00469   2.06843
   R10        2.06237   0.00362   0.00000   0.01024   0.01024   2.07261
   R11        2.91616  -0.00594   0.00000  -0.02055  -0.02055   2.89561
   R12        2.06185   0.00483   0.00000   0.01365   0.01365   2.07550
   R13        2.06179   0.00298   0.00000   0.00844   0.00844   2.07022
   R14        2.92159  -0.00576   0.00000  -0.02009  -0.02009   2.90151
   R15        2.06202   0.00470   0.00000   0.01329   0.01329   2.07531
   R16        2.06157   0.00377   0.00000   0.01065   0.01065   2.07223
   R17        2.91739  -0.00475   0.00000  -0.01647  -0.01647   2.90092
   R18        2.06141   0.00419   0.00000   0.01184   0.01184   2.07325
   R19        2.06214   0.00441   0.00000   0.01247   0.01247   2.07461
   R20        2.91493  -0.00581   0.00000  -0.02005  -0.02005   2.89488
   R21        2.06311   0.00395   0.00000   0.01118   0.01118   2.07429
   R22        2.06060   0.00408   0.00000   0.01152   0.01152   2.07212
   R23        2.91164  -0.00327   0.00000  -0.01123  -0.01123   2.90042
   R24        2.06210   0.00500   0.00000   0.01416   0.01416   2.07626
   R25        2.06104   0.00429   0.00000   0.01212   0.01212   2.07316
   R26        2.90481  -0.00264   0.00000  -0.00897  -0.00897   2.89584
   R27        2.06201   0.00409   0.00000   0.01157   0.01157   2.07359
   R28        2.06290   0.00386   0.00000   0.01093   0.01093   2.07382
   R29        2.06093   0.00340   0.00000   0.00959   0.00959   2.07053
   R30        2.06058   0.00301   0.00000   0.00849   0.00849   2.06907
   R31        2.05999   0.00283   0.00000   0.00798   0.00798   2.06797
    A1        1.81524   0.00741   0.00000   0.04444   0.04444   1.85968
    A2        1.94955   0.00124   0.00000   0.00477   0.00476   1.95431
    A3        2.14775  -0.00462   0.00000  -0.01805  -0.01806   2.12969
    A4        2.18574   0.00338   0.00000   0.01314   0.01313   2.19887
    A5        2.01570  -0.01214   0.00000  -0.05584  -0.05575   1.95995
    A6        1.90007   0.00224   0.00000  -0.00720  -0.00728   1.89280
    A7        1.84877   0.00371   0.00000   0.01878   0.01941   1.86818
    A8        1.92519   0.00496   0.00000   0.02129   0.02042   1.94561
    A9        1.90424   0.00436   0.00000   0.03151   0.03157   1.93581
   A10        1.86258  -0.00264   0.00000  -0.00531  -0.00578   1.85680
   A11        1.98842  -0.00310   0.00000  -0.02010  -0.02032   1.96810
   A12        1.90981  -0.00025   0.00000  -0.01741  -0.01774   1.89208
   A13        1.89964  -0.00006   0.00000  -0.00089  -0.00069   1.89896
   A14        1.92138   0.00077   0.00000  -0.00427  -0.00486   1.91652
   A15        1.89734   0.00213   0.00000   0.02135   0.02134   1.91867
   A16        1.84130   0.00081   0.00000   0.02528   0.02524   1.86654
   A17        1.99319  -0.00180   0.00000  -0.01260  -0.01275   1.98044
   A18        1.90296   0.00061   0.00000   0.00627   0.00640   1.90936
   A19        1.92139  -0.00149   0.00000  -0.02420  -0.02433   1.89706
   A20        1.89456   0.00081   0.00000   0.01243   0.01243   1.90699
   A21        1.90725   0.00137   0.00000   0.00204   0.00158   1.90883
   A22        1.83785   0.00074   0.00000   0.01926   0.01926   1.85711
   A23        2.01786  -0.00575   0.00000  -0.03056  -0.03068   1.98718
   A24        1.90262   0.00264   0.00000   0.01444   0.01440   1.91702
   A25        1.89858   0.00039   0.00000  -0.00727  -0.00737   1.89121
   A26        1.89824   0.00077   0.00000   0.00073   0.00078   1.89902
   A27        1.90455   0.00254   0.00000   0.00944   0.00913   1.91368
   A28        1.83303  -0.00007   0.00000   0.01788   0.01782   1.85086
   A29        2.02114  -0.00420   0.00000  -0.02297  -0.02306   1.99808
   A30        1.90504   0.00173   0.00000   0.00505   0.00489   1.90993
   A31        1.89824   0.00018   0.00000  -0.00313  -0.00307   1.89517
   A32        1.89707   0.00033   0.00000  -0.00458  -0.00468   1.89239
   A33        1.90040   0.00224   0.00000   0.01333   0.01326   1.91366
   A34        1.83266   0.00012   0.00000   0.01617   0.01615   1.84881
   A35        1.99369  -0.00096   0.00000  -0.00755  -0.00761   1.98608
   A36        1.91609   0.00067   0.00000  -0.00040  -0.00055   1.91554
   A37        1.88564   0.00003   0.00000   0.00288   0.00289   1.88853
   A38        1.91504  -0.00084   0.00000  -0.01308  -0.01314   1.90190
   A39        1.90823   0.00064   0.00000   0.00636   0.00639   1.91462
   A40        1.83850   0.00060   0.00000   0.01393   0.01396   1.85246
   A41        1.99037  -0.00085   0.00000  -0.00563  -0.00569   1.98468
   A42        1.91661  -0.00033   0.00000  -0.00981  -0.00988   1.90673
   A43        1.90495   0.00013   0.00000   0.00380   0.00382   1.90877
   A44        1.91350   0.00013   0.00000  -0.00472  -0.00483   1.90867
   A45        1.88520   0.00076   0.00000   0.01025   0.01026   1.89545
   A46        1.84751   0.00026   0.00000   0.00755   0.00757   1.85508
   A47        1.99279  -0.00016   0.00000  -0.00289  -0.00293   1.98986
   A48        1.89825  -0.00009   0.00000   0.00167   0.00168   1.89994
   A49        1.91342  -0.00065   0.00000  -0.01089  -0.01094   1.90248
   A50        1.89602   0.00040   0.00000   0.00738   0.00738   1.90341
   A51        1.91278   0.00004   0.00000  -0.00379  -0.00387   1.90891
   A52        1.84459   0.00052   0.00000   0.00980   0.00981   1.85441
   A53        1.94379  -0.00107   0.00000  -0.00810  -0.00810   1.93569
   A54        1.93442   0.00033   0.00000   0.00401   0.00401   1.93842
   A55        1.94995   0.00007   0.00000   0.00002   0.00000   1.94995
   A56        1.87750   0.00047   0.00000   0.00351   0.00352   1.88102
   A57        1.88362   0.00009   0.00000  -0.00322  -0.00324   1.88038
   A58        1.87124   0.00017   0.00000   0.00418   0.00416   1.87540
    D1        3.13456  -0.00039   0.00000  -0.01616  -0.01610   3.11846
    D2        0.01028  -0.00033   0.00000  -0.00783  -0.00790   0.00238
    D3        3.00877  -0.00035   0.00000  -0.00768  -0.00735   3.00143
    D4        0.83245   0.00024   0.00000   0.01141   0.01110   0.84356
    D5       -1.16479   0.00037   0.00000   0.01144   0.01148  -1.15332
    D6       -0.15059  -0.00051   0.00000  -0.01660  -0.01631  -0.16690
    D7       -2.32691   0.00008   0.00000   0.00249   0.00214  -2.32477
    D8        1.95903   0.00021   0.00000   0.00251   0.00251   1.96154
    D9       -1.22415   0.00149   0.00000   0.04179   0.04162  -1.18253
   D10        0.93487   0.00009   0.00000   0.00835   0.00843   0.94330
   D11        2.93880   0.00089   0.00000   0.02854   0.02843   2.96723
   D12        0.93909  -0.00071   0.00000   0.00680   0.00646   0.94555
   D13        3.09810  -0.00211   0.00000  -0.02665  -0.02673   3.07138
   D14       -1.18115  -0.00131   0.00000  -0.00645  -0.00672  -1.18787
   D15        2.97975   0.00153   0.00000   0.03125   0.03144   3.01118
   D16       -1.14442   0.00012   0.00000  -0.00220  -0.00175  -1.14618
   D17        0.85951   0.00092   0.00000   0.01800   0.01825   0.87776
   D18       -3.10091  -0.00117   0.00000  -0.06967  -0.06947   3.11280
   D19       -0.97858  -0.00090   0.00000  -0.05756  -0.05745  -1.03603
   D20        1.02939  -0.00049   0.00000  -0.04427  -0.04433   0.98505
   D21        1.02952   0.00082   0.00000  -0.02881  -0.02868   1.00084
   D22       -3.13133   0.00109   0.00000  -0.01670  -0.01666   3.13519
   D23       -1.12336   0.00150   0.00000  -0.00340  -0.00354  -1.12690
   D24       -0.97940  -0.00177   0.00000  -0.06872  -0.06869  -1.04809
   D25        1.14294  -0.00150   0.00000  -0.05662  -0.05668   1.08626
   D26       -3.13228  -0.00109   0.00000  -0.04332  -0.04355   3.10735
   D27       -1.05948   0.00110   0.00000   0.02808   0.02820  -1.03128
   D28        1.08468   0.00007   0.00000   0.01851   0.01847   1.10315
   D29        3.07441   0.00157   0.00000   0.04337   0.04328   3.11769
   D30        3.09674   0.00094   0.00000   0.01933   0.01950   3.11624
   D31       -1.04228  -0.00009   0.00000   0.00975   0.00977  -1.03252
   D32        0.94745   0.00141   0.00000   0.03461   0.03457   0.98202
   D33        1.10102  -0.00110   0.00000  -0.01120  -0.01112   1.08990
   D34       -3.03800  -0.00213   0.00000  -0.02077  -0.02086  -3.05886
   D35       -1.04827  -0.00062   0.00000   0.00409   0.00395  -1.04432
   D36       -0.95916   0.00131   0.00000   0.05069   0.05078  -0.90838
   D37        1.18776   0.00008   0.00000   0.03192   0.03198   1.21973
   D38       -3.10505   0.00123   0.00000   0.05205   0.05207  -3.05298
   D39       -3.10563   0.00134   0.00000   0.05293   0.05295  -3.05269
   D40       -0.95872   0.00011   0.00000   0.03416   0.03414  -0.92457
   D41        1.03167   0.00125   0.00000   0.05429   0.05424   1.08590
   D42        1.18698  -0.00032   0.00000   0.02643   0.02643   1.21342
   D43       -2.94928  -0.00155   0.00000   0.00767   0.00763  -2.94165
   D44       -0.95890  -0.00040   0.00000   0.02779   0.02772  -0.93118
   D45       -1.07418   0.00078   0.00000   0.02011   0.02018  -1.05400
   D46        1.08520  -0.00050   0.00000  -0.00299  -0.00291   1.08229
   D47        3.08150   0.00057   0.00000   0.01486   0.01494   3.09645
   D48        3.05790   0.00126   0.00000   0.03366   0.03362   3.09152
   D49       -1.06590  -0.00003   0.00000   0.01056   0.01052  -1.05538
   D50        0.93040   0.00105   0.00000   0.02841   0.02838   0.95878
   D51        1.07056  -0.00023   0.00000   0.01005   0.01001   1.08057
   D52       -3.05324  -0.00151   0.00000  -0.01305  -0.01309  -3.06633
   D53       -1.05693  -0.00044   0.00000   0.00480   0.00476  -1.05217
   D54        3.13585   0.00029   0.00000   0.00361   0.00363   3.13948
   D55       -0.99200  -0.00041   0.00000  -0.01427  -0.01420  -1.00620
   D56        1.02603  -0.00021   0.00000  -0.00853  -0.00849   1.01753
   D57        0.97591   0.00076   0.00000   0.01988   0.01980   0.99571
   D58        3.13124   0.00006   0.00000   0.00199   0.00197   3.13321
   D59       -1.13392   0.00026   0.00000   0.00773   0.00768  -1.12624
   D60       -1.03229   0.00015   0.00000   0.00688   0.00686  -1.02543
   D61        1.12304  -0.00055   0.00000  -0.01101  -0.01097   1.11207
   D62        3.14107  -0.00035   0.00000  -0.00527  -0.00526   3.13581
   D63        1.16876  -0.00077   0.00000  -0.02851  -0.02848   1.14029
   D64       -2.99395  -0.00042   0.00000  -0.01973  -0.01971  -3.01366
   D65       -0.98491  -0.00021   0.00000  -0.01302  -0.01304  -0.99795
   D66       -0.98825   0.00018   0.00000  -0.00791  -0.00790  -0.99614
   D67        1.13222   0.00052   0.00000   0.00088   0.00087   1.13309
   D68        3.14126   0.00074   0.00000   0.00758   0.00754  -3.13438
   D69       -2.99363  -0.00061   0.00000  -0.01995  -0.01993  -3.01356
   D70       -0.87316  -0.00026   0.00000  -0.01116  -0.01116  -0.88432
   D71        1.13588  -0.00005   0.00000  -0.00446  -0.00449   1.13139
   D72        0.97917   0.00016   0.00000   0.00971   0.00971   0.98889
   D73        3.06873   0.00026   0.00000   0.01146   0.01145   3.08018
   D74       -1.12873   0.00074   0.00000   0.01945   0.01944  -1.10929
   D75       -1.14253   0.00008   0.00000   0.00408   0.00409  -1.13844
   D76        0.94703   0.00019   0.00000   0.00583   0.00582   0.95285
   D77        3.03276   0.00067   0.00000   0.01382   0.01382   3.04657
   D78        3.13319  -0.00078   0.00000  -0.00961  -0.00959   3.12360
   D79       -1.06043  -0.00068   0.00000  -0.00786  -0.00786  -1.06829
   D80        1.02530  -0.00019   0.00000   0.00013   0.00013   1.02543
         Item               Value     Threshold  Converged?
 Maximum Force            0.017081     0.000450     NO 
 RMS     Force            0.003273     0.000300     NO 
 Maximum Displacement     0.981483     0.001800     NO 
 RMS     Displacement     0.184839     0.001200     NO 
 Predicted change in Energy=-3.614073D-03
 GradGradGradGradGradGradGradGradGradGradGradGradGradGradGradGradGradGrad

                          Input orientation:                          
 ---------------------------------------------------------------------
 Center     Atomic      Atomic             Coordinates (Angstroms)
 Number     Number       Type             X           Y           Z
 ---------------------------------------------------------------------
      1          8           0        5.581184    0.202463   -0.528220
      2          6           0        4.863834   -0.886389   -0.885413
      3          6           0        4.180941   -1.527199    0.299980
      4          6           0        3.216564   -2.633121   -0.115992
      5          6           0        1.999053   -2.102375   -0.873826
      6          6           0        1.039061   -3.204187   -1.334622
      7          6           0        1.685063   -4.242252   -2.263381
      8          6           0        2.422185   -3.644794   -3.470125
      9          6           0        1.523322   -2.820962   -4.397530
     10          6           0        2.262758   -2.222073   -5.601806
     11          6           0        2.803117   -3.266676   -6.584201
     12          8           0        4.824628   -1.283634   -2.031619
     13          1           0        6.000337    0.536648   -1.339878
     14          1           0        3.670697   -0.744049    0.871187
     15          1           0        4.970847   -1.921038    0.951883
     16          1           0        3.759955   -3.348375   -0.741467
     17          1           0        2.891882   -3.174782    0.780730
     18          1           0        1.455389   -1.390696   -0.238040
     19          1           0        2.346985   -1.536063   -1.744681
     20          1           0        0.619934   -3.722339   -0.461745
     21          1           0        0.190092   -2.732045   -1.843355
     22          1           0        2.394639   -4.852627   -1.691008
     23          1           0        0.906043   -4.932944   -2.611690
     24          1           0        3.250887   -3.013944   -3.123488
     25          1           0        2.879829   -4.466806   -4.033335
     26          1           0        0.696712   -3.450815   -4.754137
     27          1           0        1.063859   -2.004030   -3.827377
     28          1           0        1.582519   -1.546437   -6.135517
     29          1           0        3.091265   -1.600347   -5.239362
     30          1           0        1.997828   -3.914209   -6.948505
     31          1           0        3.265657   -2.787423   -7.453214
     32          1           0        3.560534   -3.905681   -6.119943
 ---------------------------------------------------------------------
                    Distance matrix (angstroms):
                    1          2          3          4          5
     1  O    0.000000
     2  C    1.351953   0.000000
     3  C    2.374516   1.510675   0.000000
     4  C    3.715090   2.521226   1.525162   0.000000
     5  C    4.273568   3.112190   2.543478   1.529163   0.000000
     6  C    5.734669   4.494760   3.918625   2.559824   1.532289
     7  C    6.160036   4.823401   4.491296   3.089673   2.570706
     8  C    5.782341   4.500132   4.668096   3.592315   3.049404
     9  C    6.370158   5.218866   5.550078   4.608028   3.627558
[...]
 Alpha virt. eigenvalues --    4.01219   4.02516   4.02984   4.05551   4.06489
 Alpha virt. eigenvalues --    4.10268   4.12946   4.16699   4.19310   4.20204
 Alpha virt. eigenvalues --    4.20774   4.23809   4.25771   4.28219   4.34566
 Alpha virt. eigenvalues --    4.36693   4.38800   4.41558   4.42062   4.44325
 Alpha virt. eigenvalues --    4.44416   4.45591   4.50012   4.52545   4.56110
 Alpha virt. eigenvalues --    4.57214   4.58841   4.62171   4.64072   4.64719
 Alpha virt. eigenvalues --    4.66746   4.67438   4.72399   4.73594   4.75966
 Alpha virt. eigenvalues --    4.77943   4.80228   4.81382   4.82261   4.89256
 Alpha virt. eigenvalues --    4.97956   5.04055   5.06033   5.16909   5.21218
 Alpha virt. eigenvalues --    5.21977   5.38369   5.40592   5.50486   5.59294
 Alpha virt. eigenvalues --    5.74727   5.84428   5.86174   6.14753   6.19095
 Alpha virt. eigenvalues --    6.33018   6.33144   6.44428   6.48902   6.64583
 Alpha virt. eigenvalues --    6.68679   6.74073   6.81803   6.88145   7.08731
 Alpha virt. eigenvalues --    7.11057   7.26386  22.42815  22.54674  22.56822
 Alpha virt. eigenvalues --   22.57699  22.59902  22.62219  22.64720  22.66413
 Alpha virt. eigenvalues --   22.70530  23.28236  43.94930  44.04178
          Condensed to atoms (all electrons):
               1          2          3          4          5          6
     1  O    7.932698   0.382129  -0.127978   0.011317   0.000591   0.000051
     2  C    0.382129   4.499131   0.251033  -0.030184   0.008675   0.001017
     3  C   -0.127978   0.251033   5.394697   0.166624  -0.029370   0.005705
     4  C    0.011317  -0.030184   0.166624   5.300840   0.167199  -0.043518
     5  C    0.000591   0.008675  -0.029370   0.167199   5.380749   0.184339
     6  C    0.000051   0.001017   0.005705  -0.043518   0.184339   5.313182
     7  C   -0.000024  -0.000773   0.001004   0.028934  -0.078816   0.200400
     8  C   -0.000025   0.000507  -0.001872  -0.006759   0.044865  -0.072070
     9  C    0.000004   0.000230   0.000267  -0.001955  -0.010270   0.030390
    10  C    0.000006  -0.000026  -0.000183   0.000579  -0.000635  -0.002226
    11  C   -0.000000   0.000004   0.000005  -0.000044   0.000156   0.000077
    12  O   -0.087588   0.616193  -0.106333   0.029704  -0.012418   0.001769
    13  H    0.289306  -0.029446   0.020946  -0.002253   0.000286  -0.000020
    14  H    0.005638  -0.032742   0.411845  -0.035920  -0.009283   0.000075
    15  H    0.002934  -0.017680   0.403096  -0.039349   0.007923  -0.000463
    16  H    0.000055  -0.011619  -0.022087   0.427856  -0.054122  -0.009423
    17  H   -0.000086   0.008141  -0.041244   0.420396  -0.040536   0.003567
    18  H   -0.000109  -0.000556  -0.003843  -0.038240   0.415326  -0.038147
    19  H   -0.000722   0.000802  -0.000122  -0.067831   0.445140  -0.033457
    20  H   -0.000000  -0.000104   0.000255  -0.009327  -0.031174   0.432796
    21  H   -0.000000   0.000089  -0.000769   0.010794  -0.068189   0.443472
    22  H    0.000001   0.000119   0.000401  -0.004655  -0.003201  -0.042620
    23  H   -0.000000  -0.000017   0.000044   0.000207   0.010717  -0.060244
    24  H    0.000089  -0.001427  -0.000925   0.006051  -0.001034  -0.017608
    25  H    0.000000  -0.000006  -0.000033   0.000395  -0.002280   0.012844
    26  H   -0.000000   0.000001  -0.000003   0.000047   0.000622  -0.005452
    27  H    0.000001  -0.000070   0.000029   0.000249  -0.006416   0.015573
    28  H   -0.000000   0.000002   0.000002  -0.000006   0.000086  -0.000063
    29  H   -0.000021   0.000019   0.000138  -0.000043  -0.000501   0.000247
    30  H   -0.000000  -0.000000  -0.000000   0.000001  -0.000022   0.000061
    31  H    0.000000   0.000000  -0.000000  -0.000000   0.000001   0.000000
    32  H    0.000000   0.000003  -0.000000   0.000001   0.000050  -0.000150
               7          8          9         10         11         12
     1  O   -0.000024  -0.000025   0.000004   0.000006  -0.000000  -0.087588
     2  C   -0.000773   0.000507   0.000230  -0.000026   0.000004   0.616193
     3  C    0.001004  -0.001872   0.000267  -0.000183   0.000005  -0.106333
     4  C    0.028934  -0.006759  -0.001955   0.000579  -0.000044   0.029704
     5  C   -0.078816   0.044865  -0.010270  -0.000635   0.000156  -0.012418
     6  C    0.200400  -0.072070   0.030390  -0.002226   0.000077   0.001769
     7  C    5.320884   0.169412  -0.041230   0.009771  -0.000749  -0.002550
     8  C    0.169412   5.410631   0.167939  -0.049484   0.018620  -0.007710
     9  C   -0.041230   0.167939   5.295369   0.247793  -0.057526   0.001582
    10  C    0.009771  -0.049484   0.247793   5.113403   0.258751  -0.001035
    11  C   -0.000749   0.018620  -0.057526   0.258751   5.081237   0.000065
    12  O   -0.002550  -0.007710   0.001582  -0.001035   0.000065   7.886545
    13  H    0.000011  -0.000018   0.000004  -0.000011  -0.000000   0.006484
    14  H   -0.000163   0.000144  -0.000029   0.000005  -0.000000   0.002613
    15  H    0.000102  -0.000031   0.000002   0.000001  -0.000000   0.001638
    16  H    0.009288  -0.004609   0.000069  -0.000064   0.000023   0.001707
    17  H   -0.004467   0.000733   0.000024  -0.000003   0.000000   0.000532
    18  H    0.011307  -0.001409   0.000112  -0.000043   0.000001   0.000549
    19  H   -0.012710  -0.000172   0.001880  -0.000304   0.000032   0.002931
    20  H   -0.059588   0.010319   0.000028   0.000016   0.000005  -0.000030
    21  H   -0.034961  -0.006163  -0.003108   0.000703  -0.000082   0.000021
    22  H    0.452329  -0.074819   0.010997  -0.000586  -0.000012   0.000187
    23  H    0.429992  -0.027581  -0.008649  -0.000109   0.000128  -0.000024
    24  H   -0.024973   0.426201  -0.060003   0.005509  -0.003958   0.007525
    25  H   -0.044045   0.435929  -0.040856  -0.006935  -0.001680   0.000159
    26  H    0.006653  -0.068623   0.426139  -0.025348  -0.011178  -0.000018
    27  H   -0.018348  -0.034619   0.421524  -0.043939   0.009556  -0.000160
    28  H   -0.000460   0.012445  -0.060830   0.435739  -0.041043   0.000018
    29  H   -0.000124  -0.011586  -0.037406   0.429625  -0.049313   0.001431
    30  H   -0.000335  -0.005240   0.004704  -0.049175   0.408251  -0.000001
    31  H    0.000047  -0.000640   0.011443  -0.043745   0.415318   0.000001
    32  H    0.000868   0.008292  -0.012508  -0.039740   0.417624   0.000019
              13         14         15         16         17         18
     1  O    0.289306   0.005638   0.002934   0.000055  -0.000086  -0.000109
     2  C   -0.029446  -0.032742  -0.017680  -0.011619   0.008141  -0.000556
     3  C    0.020946   0.411845   0.403096  -0.022087  -0.041244  -0.003843
     4  C   -0.002253  -0.035920  -0.039349   0.427856   0.420396  -0.038240
     5  C    0.000286  -0.009283   0.007923  -0.054122  -0.040536   0.415326
     6  C   -0.000020   0.000075  -0.000463  -0.009423   0.003567  -0.038147
     7  C    0.000011  -0.000163   0.000102   0.009288  -0.004467   0.011307
     8  C   -0.000018   0.000144  -0.000031  -0.004609   0.000733  -0.001409
     9  C    0.000004  -0.000029   0.000002   0.000069   0.000024   0.000112
    10  C   -0.000011   0.000005   0.000001  -0.000064  -0.000003  -0.000043
    11  C   -0.000000  -0.000000  -0.000000   0.000023   0.000000   0.000001
    12  O    0.006484   0.002613   0.001638   0.001707   0.000532   0.000549
    13  H    0.381103  -0.000878  -0.000580  -0.000007   0.000026   0.000007
    14  H   -0.000878   0.494511  -0.015133   0.005873  -0.001883   0.001464
    15  H   -0.000580  -0.015133   0.489323  -0.002885  -0.005201   0.000188
    16  H   -0.000007   0.005873  -0.002885   0.503557  -0.018664   0.004695
    17  H    0.000026  -0.001883  -0.005201  -0.018664   0.524061  -0.002594
    18  H    0.000007   0.001464   0.000188   0.004695  -0.002594   0.534497
    19  H    0.000011   0.000365   0.000011   0.002541   0.004976  -0.017684
    20  H    0.000000   0.000035   0.000004   0.001632   0.001420  -0.003389
    21  H    0.000000  -0.000025   0.000012  -0.000634   0.000085  -0.006739
    22  H   -0.000000  -0.000038   0.000008  -0.006525   0.000826  -0.000731
    23  H   -0.000000   0.000002  -0.000002   0.000439  -0.000150  -0.000136
    24  H    0.000008  -0.000032   0.000026  -0.001718   0.000020   0.000449
    25  H   -0.000000   0.000001  -0.000000   0.000200   0.000002   0.000029
    26  H    0.000000  -0.000000  -0.000000  -0.000026   0.000001   0.000008
    27  H   -0.000001   0.000009  -0.000001   0.000137  -0.000007   0.000101
    28  H    0.000000  -0.000000   0.000000   0.000001   0.000000  -0.000001
    29  H    0.000031  -0.000006  -0.000001  -0.000055   0.000000  -0.000000
    30  H    0.000000   0.000000  -0.000000  -0.000001  -0.000000  -0.000000
    31  H   -0.000000  -0.000000   0.000000  -0.000000   0.000000  -0.000000
    32  H   -0.000000  -0.000000   0.000000   0.000006   0.000000   0.000000
              19         20         21         22         23         24
     1  O   -0.000722  -0.000000  -0.000000   0.000001  -0.000000   0.000089
     2  C    0.000802  -0.000104   0.000089   0.000119  -0.000017  -0.001427
     3  C   -0.000122   0.000255  -0.000769   0.000401   0.000044  -0.000925
     4  C   -0.067831  -0.009327   0.010794  -0.004655   0.000207   0.006051
     5  C    0.445140  -0.031174  -0.068189  -0.003201   0.010717  -0.001034
     6  C   -0.033457   0.432796   0.443472  -0.042620  -0.060244  -0.017608
     7  C   -0.012710  -0.059588  -0.034961   0.452329   0.429992  -0.024973
     8  C   -0.000172   0.010319  -0.006163  -0.074819  -0.027581   0.426201
     9  C    0.001880   0.000028  -0.003108   0.010997  -0.008649  -0.060003
    10  C   -0.000304   0.000016   0.000703  -0.000586  -0.000109   0.005509
    11  C    0.000032   0.000005  -0.000082  -0.000012   0.000128  -0.003958
    12  O    0.002931  -0.000030   0.000021   0.000187  -0.000024   0.007525
    13  H    0.000011   0.000000   0.000000  -0.000000  -0.000000   0.000008
    14  H    0.000365   0.000035  -0.000025  -0.000038   0.000002  -0.000032
    15  H    0.000011   0.000004   0.000012   0.000008  -0.000002   0.000026
    16  H    0.002541   0.001632  -0.000634  -0.006525   0.000439  -0.001718
    17  H    0.004976   0.001420   0.000085   0.000826  -0.000150   0.000020
    18  H   -0.017684  -0.003389  -0.006739  -0.000731  -0.000136   0.000449
    19  H    0.504175   0.005213  -0.002806   0.000973  -0.000693  -0.008474
    20  H    0.005213   0.529641  -0.017179  -0.003624  -0.005479  -0.000806
    21  H   -0.002806  -0.017179   0.525369   0.005239  -0.003631   0.001612
    22  H    0.000973  -0.003624   0.005239   0.530258  -0.016989  -0.001321
    23  H   -0.000693  -0.005479  -0.003631  -0.016989   0.528179   0.004668
    24  H   -0.008474  -0.000806   0.001612  -0.001321   0.004668   0.503126
    25  H    0.000373  -0.000212  -0.000612  -0.006418  -0.003572  -0.023253
    26  H    0.000071  -0.000181   0.001246   0.000031   0.001606   0.006642
    27  H    0.000439   0.000497  -0.007814  -0.000569   0.001525  -0.001674
    28  H   -0.000050  -0.000002   0.000016   0.000018   0.000028  -0.000016
    29  H    0.000804  -0.000002   0.000011   0.000022  -0.000024   0.001877
    30  H    0.000004  -0.000000   0.000001   0.000013  -0.000003   0.000370
    31  H   -0.000000  -0.000000   0.000000  -0.000002  -0.000003   0.000003
    32  H   -0.000019   0.000000   0.000005  -0.000006   0.000033  -0.000737
              25         26         27         28         29         30
     1  O    0.000000  -0.000000   0.000001  -0.000000  -0.000021  -0.000000
     2  C   -0.000006   0.000001  -0.000070   0.000002   0.000019  -0.000000
     3  C   -0.000033  -0.000003   0.000029   0.000002   0.000138  -0.000000
     4  C    0.000395   0.000047   0.000249  -0.000006  -0.000043   0.000001
     5  C   -0.002280   0.000622  -0.006416   0.000086  -0.000501  -0.000022
     6  C    0.012844  -0.005452   0.015573  -0.000063   0.000247   0.000061
     7  C   -0.044045   0.006653  -0.018348  -0.000460  -0.000124  -0.000335
     8  C    0.435929  -0.068623  -0.034619   0.012445  -0.011586  -0.005240
     9  C   -0.040856   0.426139   0.421524  -0.060830  -0.037406   0.004704
    10  C   -0.006935  -0.025348  -0.043939   0.435739   0.429625  -0.049175
    11  C   -0.001680  -0.011178   0.009556  -0.041043  -0.049313   0.408251
    12  O    0.000159  -0.000018  -0.000160   0.000018   0.001431  -0.000001
    13  H   -0.000000   0.000000  -0.000001   0.000000   0.000031   0.000000
    14  H    0.000001  -0.000000   0.000009  -0.000000  -0.000006   0.000000
    15  H   -0.000000  -0.000000  -0.000001   0.000000  -0.000001  -0.000000
    16  H    0.000200  -0.000026   0.000137   0.000001  -0.000055  -0.000001
    17  H    0.000002   0.000001  -0.000007   0.000000   0.000000  -0.000000
    18  H    0.000029   0.000008   0.000101  -0.000001  -0.000000  -0.000000
    19  H    0.000373   0.000071   0.000439  -0.000050   0.000804   0.000004
    20  H   -0.000212  -0.000181   0.000497  -0.000002  -0.000002  -0.000000
    21  H   -0.000612   0.001246  -0.007814   0.000016   0.000011   0.000001
    22  H   -0.006418   0.000031  -0.000569   0.000018   0.000022   0.000013
    23  H   -0.003572   0.001606   0.001525   0.000028  -0.000024  -0.000003
    24  H   -0.023253   0.006642  -0.001674  -0.000016   0.001877   0.000370
    25  H    0.532124  -0.001080   0.004867  -0.000518   0.001685   0.001273
    26  H   -0.001080   0.539162  -0.021729  -0.003267   0.006092   0.002560
    27  H    0.004867  -0.021729   0.551483  -0.007663  -0.002647   0.000172
    28  H   -0.000518  -0.003267  -0.007663   0.563755  -0.025274  -0.003660
    29  H    0.001685   0.006092  -0.002647  -0.025274   0.538946   0.007378
    30  H    0.001273   0.002560   0.000172  -0.003660   0.007378   0.554569
    31  H    0.000324  -0.000212  -0.000324  -0.005726  -0.003866  -0.024362
    32  H   -0.007595   0.001174  -0.000583   0.006463  -0.003275  -0.031040
              31         32
     1  O    0.000000   0.000000
     2  C    0.000000   0.000003
     3  C   -0.000000  -0.000000
     4  C   -0.000000   0.000001
     5  C    0.000001   0.000050
     6  C    0.000000  -0.000150
     7  C    0.000047   0.000868
     8  C   -0.000640   0.008292
     9  C    0.011443  -0.012508
    10  C   -0.043745  -0.039740
    11  C    0.415318   0.417624
    12  O    0.000001   0.000019
    13  H   -0.000000  -0.000000
    14  H   -0.000000  -0.000000
    15  H    0.000000   0.000000
    16  H   -0.000000   0.000006
    17  H    0.000000   0.000000
    18  H   -0.000000   0.000000
    19  H   -0.000000  -0.000019
    20  H   -0.000000   0.000000
    21  H    0.000000   0.000005
    22  H   -0.000002  -0.000006
    23  H   -0.000003   0.000033
    24  H    0.000003  -0.000737
    25  H    0.000324  -0.007595
    26  H   -0.000212   0.001174
    27  H   -0.000324  -0.000583
    28  H   -0.005726   0.006463
    29  H   -0.003866  -0.003275
    30  H   -0.024362  -0.031040
    31  H    0.535903  -0.024079
    32  H   -0.024079   0.540941
 Mulliken charges:
               1
     1  O   -0.408267
     2  C    0.356557
     3  C   -0.321330
     4  C   -0.291111
     5  C   -0.318457
     6  C   -0.320103
     7  C   -0.316687
     8  C   -0.332608
     9  C   -0.286127
    10  C   -0.238312
    11  C   -0.444269
    12  O   -0.343807
    13  H    0.334992
    14  H    0.173551
    15  H    0.176060
    16  H    0.174358
    17  H    0.150025
    18  H    0.144887
    19  H    0.174302
    20  H    0.149238
    21  H    0.164038
    22  H    0.160695
    23  H    0.149740
    24  H    0.183782
    25  H    0.148890
    26  H    0.145059
    27  H    0.140401
    28  H    0.130009
    29  H    0.145837
    30  H    0.134482
    31  H    0.139920
    32  H    0.144254
 Sum of Mulliken charges =  -0.00000
 Mulliken charges with hydrogens summed into heavy atoms:
               1
     1  O   -0.073274
     2  C    0.356557
     3  C    0.028280
     4  C    0.033273
     5  C    0.000732
     6  C   -0.006828
     7  C   -0.006251
     8  C    0.000064
     9  C   -0.000667
    10  C    0.037534
    11  C   -0.025613
    12  O   -0.343807
 Electronic spatial extent (au):  <R**2>=           3169.5404
 Charge=              0.0000 electrons
 Dipole moment (field-independent basis, Debye):
    X=             -1.5819    Y=              0.4057    Z=              0.3485  Tot=              1.6699
 Quadrupole moment (field-independent basis, Debye-Ang):
   XX=            -75.2561   YY=            -73.8780   ZZ=            -77.7363
   XY=              0.9893   XZ=              1.1276   YZ=             -1.5012
 Traceless Quadrupole moment (field-independent basis, Debye-Ang):
   XX=              0.3673   YY=              1.7455   ZZ=             -2.1128
   XY=              0.9893   XZ=              1.1276   YZ=             -1.5012
 Octapole moment (field-independent basis, Debye-Ang**2):
  XXX=            -25.5900  YYY=            -38.4128  ZZZ=             -0.7170  XYY=            -25.4357
  XXY=             -1.7640  XXZ=             -4.4794  XZZ=             -9.8241  YZZ=             -4.0860
  YYZ=              4.5417  XYZ=              0.2477
 Hexadecapole moment (field-independent basis, Debye-Ang**3):
 XXXX=          -2841.6399 YYYY=          -1121.9074 ZZZZ=           -293.5562 XXXY=             27.3377
 XXXZ=             34.7220 YYYX=            108.4316 YYYZ=            -17.4640 ZZZX=              0.8705
 ZZZY=             -0.0732 XXYY=           -622.0243 XXZZ=           -509.2999 YYZZ=           -256.2735
 XXYZ=             -2.2269 YYXZ=             -5.5269 ZZXY=             11.6588
 N-N= 7.436568663925D+02 E-N=-2.752542334891D+03  KE= 5.405740534498D+02
 Unable to Open any file for archive entry.
 1\1\GINC-NOTCH077\SP\RM062X\def2TZVP\C10H20O2\U6032257\05-Feb-2022\0\\
 # M062X/def2tzvp int=(grid=ultrafine) nmr=giao guess=read geom=check\\
 Ac1.xyz\\0,1\O,0,5.55139014,0.2220631097,-0.6696881925\C,0,4.878439861
 9,-0.9121161642,-0.9809629887\C,0,4.1883160042,-1.4992992723,0.2306098
 883\C,0,3.2153980231,-2.6243530581,-0.122255419\C,0,1.9695685508,-2.12
 24798294,-0.8596798431\C,0,1.0127680486,-3.2358863893,-1.3067564157\C,
 0,1.6339698731,-4.2800802598,-2.2521386817\C,0,2.3826516175,-3.7022843
 647,-3.4628927497\C,0,1.5184903413,-2.8307839803,-4.381055025\C,0,2.30
 02698928,-2.1860093131,-5.5344514023\C,0,2.8841101336,-3.1886646879,-6
 .5339372325\O,0,4.8774288454,-1.3724255308,-2.1033635779\H,0,5.9797914
 433,0.5142400822,-1.4921004901\H,0,3.6899583115,-0.6830672155,0.766261
 7505\H,0,4.9819260066,-1.8540149704,0.9007216297\H,0,3.7451264885,-3.3
 583699148,-0.7363507032\H,0,2.9164393842,-3.1374541039,0.7997317629\H,
 0,1.4266574881,-1.4256682527,-0.2069847577\H,0,2.2864068915,-1.5433754
 892,-1.7332228729\H,0,0.617933232,-3.7540385499,-0.4226149149\H,0,0.14
 67504986,-2.771742696,-1.7933375462\H,0,2.3260521407,-4.9156794815,-1.
 6859621567\H,0,0.8352386585,-4.9475168558,-2.6019145344\H,0,3.24261672
 71,-3.1134971934,-3.1217095733\H,0,2.7966026519,-4.5391474697,-4.03782
 91367\H,0,0.6917528982,-3.4317427004,-4.7872764945\H,0,1.051893409,-2.
 031669259,-3.792221741\H,0,1.6378826379,-1.4930986286,-6.0687727137\H,
 0,3.1102108877,-1.5756500002,-5.1134980016\H,0,2.0982866703,-3.8275146
 38,-6.9538859124\H,0,3.3766792325,-2.6760691627,-7.3665098055\H,0,3.62
 65930095,-3.8418037604,-6.0656521482\\Version=ES64L-G16RevC.01\State=1
 -A\HF=-543.5444412\RMSD=2.943e-09\Dipole=0.0683332,0.2590778,0.599858\
 Quadrupole=-0.0754002,0.067254,0.0081462,1.7221056,0.61811,-1.1179818\
 PG=C01 [X(C10H20O2)]\\@
 The archive entry for this job was punched.


 ASKING DUMB QUESTIONS IS EASIER THAN CORECTING DUMB MISTAKES.
 Job cpu time:       0 days  0 hours 41 minutes 24.6 seconds.
 Elapsed time:       0 days  0 hours  1 minutes 28.8 seconds.
 File lengths (MBytes):  RWF=    140 Int=      0 D2E=      0 Chk=     24 Scr=      1
 Normal termination of Gaussian 16 at Sat Feb  5 09:07:17 2022.
