 Entering Gaussian System, Link 0=/uufs/chpc.utah.edu/sys/installdir/gaussian16/C01/AVX2/g16/g16
 Input=Ac1_clust-26.com
 Output=Ac1_clust-26.log
 Initial command:
 /uufs/chpc.utah.edu/sys/installdir/gaussian16/C01/AVX2/g16/l1.exe "/scratch/general/lustre/u6032257/3857482/notchpeak.peaks/Gau-253407.inp" -scrdir="/scratch/general/lustre/u6032257/3857482/notchpeak.peaks/"
 Entering Link 1 = /uufs/chpc.utah.edu/sys/installdir/gaussian16/C01/AVX2/g16/l1.exe PID=    253409.
  
 Copyright (c) 1988-2019, Gaussian, Inc.  All Rights Reserved.
  
 This is part of the Gaussian(R) 16 program.  It is based on
 the Gaussian(R) 09 system (copyright 2009, Gaussian, Inc.),
 the Gaussian(R) 03 system (copyright 2003, Gaussian, Inc.),
 the Gaussian(R) 98 system (copyright 1998, Gaussian, Inc.),
 the Gaussian(R) 94 system (copyright 1995, Gaussian, Inc.),
 the Gaussian 92(TM) system (copyright 1992, Gaussian, Inc.),
 the Gaussian 90(TM) system (copyright 1990, Gaussian, Inc.),
 the Gaussian 88(TM) system (copyright 1988, Gaussian, Inc.),
 the Gaussian 86(TM) system (copyright 1986, Carnegie Mellon
 University), and the Gaussian 82(TM) system (copyright 1983,
 Carnegie Mellon University). Gaussian is a federally registered
 trademark of Gaussian, Inc.
  
 This software contains proprietary and confidential information,
 including trade secrets, belonging to Gaussian, Inc.
  
 This software is provided under written license and may be
 used, copied, transmitted, or stored only in accord with that
 written license.
  
 The following legend is applicable only to US Government
 contracts under FAR:
  
                    RESTRICTED RIGHTS LEGEND
  
 Use, reproduction and disclosure by the US Government is
 subject to restrictions as set forth in subparagraphs (a)
 and (c) of the Commercial Computer Software - Restricted
 Rights clause in FAR 52.227-19.
  
 Gaussian, Inc.
 340 Quinnipiac St., Bldg. 40, Wallingford CT 06492
  
  
 ---------------------------------------------------------------
 Warning -- This program may not be used in any manner that
 competes with the business of Gaussian, Inc. or will provide
 assistance to any competitor of Gaussian, Inc.  The licensee
 of this program is prohibited from giving any competitor of
 Gaussian, Inc. access to this program.  By using this program,
 the user acknowledges that Gaussian, Inc. is engaged in the
 business of creating and licensing software in the field of
 computational chemistry and represents and warrants to the
 licensee that it is not a competitor of Gaussian, Inc. and that
 it will not use this program in any manner prohibited above.
 ---------------------------------------------------------------
  

 Cite this work as:
 Gaussian 16, Revision C.01,
 M. J. Frisch, G. W. Trucks, H. B. Schlegel, G. E. Scuseria, 
 M. A. Robb, J. R. Cheeseman, G. Scalmani, V. Barone, 
 G. A. Petersson, H. Nakatsuji, X. Li, M. Caricato, A. V. Marenich, 
 J. Bloino, B. G. Janesko, R. Gomperts, B. Mennucci, H. P. Hratchian, 
 J. V. Ortiz, A. F. Izmaylov, J. L. Sonnenberg, D. Williams-Young, 
 F. Ding, F. Lipparini, F. Egidi, J. Goings, B. Peng, A. Petrone, 
 T. Henderson, D. Ranasinghe, V. G. Zakrzewski, J. Gao, N. Rega, 
 G. Zheng, W. Liang, M. Hada, M. Ehara, K. Toyota, R. Fukuda, 
 J. Hasegawa, M. Ishida, T. Nakajima, Y. Honda, O. Kitao, H. Nakai, 
 T. Vreven, K. Throssell, J. A. Montgomery, Jr., J. E. Peralta, 
 F. Ogliaro, M. J. Bearpark, J. J. Heyd, E. N. Brothers, K. N. Kudin, 
 V. N. Staroverov, T. A. Keith, R. Kobayashi, J. Normand, 
 K. Raghavachari, A. P. Rendell, J. C. Burant, S. S. Iyengar, 
 J. Tomasi, M. Cossi, J. M. Millam, M. Klene, C. Adamo, R. Cammi, 
 J. W. Ochterski, R. L. Martin, K. Morokuma, O. Farkas, 
 J. B. Foresman, and D. J. Fox, Gaussian, Inc., Wallingford CT, 2019.
 
 ******************************************
 Gaussian 16:  ES64L-G16RevC.01  3-Jul-2019
                 3-Feb-2022 
 ******************************************
 %NProcShared=32
 Will use up to   32 processors via shared memory.
 %mem=16GB
 %chk=Ac1_clust-26.chk
 ----------------------------------------------------------------------
 # B3LYP/6-31G(d,p) empiricaldispersion=GD3BJ int=(grid=ultrafine) opt 
 freq=noraman
 ----------------------------------------------------------------------
 1/18=20,19=15,26=4,38=1/1,3;
 2/9=110,12=2,17=6,18=5,40=1/2;
 3/5=1,6=6,7=101,11=2,25=1,30=1,71=1,74=-5,75=-5,124=41/1,2,3;
 4//1;
 5/5=2,38=5/2;
 6/7=2,8=2,9=2,10=2,28=1/1;
 7//1,2,3,16;
 1/18=20,19=15,26=4/3(2);
 2/9=110/2;
 99//99;
 2/9=110/2;
 3/5=1,6=6,7=101,11=2,25=1,30=1,71=1,74=-5,75=-5,124=41/1,2,3;
 4/5=5,16=3,69=1/1;
 5/5=2,38=5/2;
 7//1,2,3,16;
 1/18=20,19=15,26=4/3(-5);
 2/9=110/2;
 6/7=2,8=2,9=2,10=2,19=2,28=1/1;
 99/9=1/99;
 -------
 Ac1.xyz
 -------
 Symbolic Z-matrix:
 Charge =  0 Multiplicity = 1
 O                     6.1414   -0.1801   -0.4852 
 C                     5.0718   -0.1694    0.3394 
 C                     3.8437   -0.8193   -0.2883 
 C                     4.0067   -2.3396   -0.5279 
 C                     2.7119   -3.0363   -0.9897 
 C                     2.2125   -2.5824   -2.3748 
 C                     0.9712   -3.3652   -2.844 
 C                     0.3794   -2.8725   -4.1819 
 C                     1.3173   -2.9605   -5.4049 
 C                     1.7773   -4.3897   -5.7475 
 C                     2.6273   -4.4465   -7.0246 
 O                     5.0914    0.3197    1.4591 
 H                     6.8309    0.2529    0.0187 
 H                     3.6293   -0.2912   -1.2163 
 H                     3.0038   -0.6336    0.3815 
 H                     4.795    -2.5205   -1.2624 
 H                     4.3417   -2.8211    0.394 
 H                     2.8874   -4.1134   -1.0123 
 H                     1.9283   -2.8806   -0.2458 
 H                     1.9755   -1.518    -2.3525 
 H                     3.0177   -2.7019   -3.1011 
 H                     1.2088   -4.4277   -2.913 
 H                     0.1962   -3.2914   -2.0791 
 H                     0.0531   -1.8378   -4.0633 
 H                    -0.5296   -3.4382   -4.3935 
 H                     0.7959   -2.5406   -6.2669 
 H                     2.1867   -2.3193   -5.2531 
 H                     2.3563   -4.8026   -4.9203 
 H                     0.9075   -5.0382   -5.8648 
 H                     2.0704   -4.0837   -7.8893 
 H                     3.5283   -3.8394   -6.9288 
 H                     2.9404   -5.4686   -7.2401 
 

 GradGradGradGradGradGradGradGradGradGradGradGradGradGradGradGradGradGrad
 Berny optimization.
 Initialization pass.
                           ----------------------------
                           !    Initial Parameters    !
                           ! (Angstroms and Degrees)  !
 --------------------------                            --------------------------
 ! Name  Definition              Value          Derivative Info.                !
 --------------------------------------------------------------------------------
 ! R1    R(1,2)                  1.3506         estimate D2E/DX2                !
 ! R2    R(1,13)                 0.9575         estimate D2E/DX2                !
 ! R3    R(2,3)                  1.5247         estimate D2E/DX2                !
 ! R4    R(2,12)                 1.222          estimate D2E/DX2                !
 ! R5    R(3,4)                  1.5477         estimate D2E/DX2                !
 ! R6    R(3,14)                 1.0891         estimate D2E/DX2                !
 ! R7    R(3,15)                 1.0902         estimate D2E/DX2                !
 ! R8    R(4,5)                  1.5412         estimate D2E/DX2                !
 ! R9    R(4,16)                 1.0925         estimate D2E/DX2                !
 ! R10   R(4,17)                 1.0927         estimate D2E/DX2                !
 ! R11   R(5,6)                  1.5408         estimate D2E/DX2                !
 ! R12   R(5,18)                 1.0915         estimate D2E/DX2                !
 ! R13   R(5,19)                 1.0916         estimate D2E/DX2                !
 ! R14   R(6,7)                  1.5407         estimate D2E/DX2                !
 ! R15   R(6,20)                 1.0907         estimate D2E/DX2                !
 ! R16   R(6,21)                 1.0909         estimate D2E/DX2                !
 ! R17   R(7,8)                  1.5437         estimate D2E/DX2                !
 ! R18   R(7,22)                 1.0909         estimate D2E/DX2                !
 ! R19   R(7,23)                 1.0914         estimate D2E/DX2                !
 ! R20   R(8,9)                  1.5437         estimate D2E/DX2                !
 ! R21   R(8,24)                 1.0914         estimate D2E/DX2                !
 ! R22   R(8,25)                 1.0914         estimate D2E/DX2                !
 ! R23   R(9,10)                 1.54           estimate D2E/DX2                !
 ! R24   R(9,26)                 1.0914         estimate D2E/DX2                !
 ! R25   R(9,27)                 1.0909         estimate D2E/DX2                !
 ! R26   R(10,11)                1.5352         estimate D2E/DX2                !
 ! R27   R(10,28)                1.0909         estimate D2E/DX2                !
 ! R28   R(10,29)                1.0913         estimate D2E/DX2                !
 ! R29   R(11,30)                1.0906         estimate D2E/DX2                !
 ! R30   R(11,31)                1.0907         estimate D2E/DX2                !
 ! R31   R(11,32)                1.0905         estimate D2E/DX2                !
 ! A1    A(2,1,13)             104.2049         estimate D2E/DX2                !
 ! A2    A(1,2,3)              112.5299         estimate D2E/DX2                !
 ! A3    A(1,2,12)             123.3595         estimate D2E/DX2                !
 ! A4    A(3,2,12)             124.1077         estimate D2E/DX2                !
 ! A5    A(2,3,4)              113.4295         estimate D2E/DX2                !
 ! A6    A(2,3,14)             107.6192         estimate D2E/DX2                !
 ! A7    A(2,3,15)             107.158          estimate D2E/DX2                !
 ! A8    A(4,3,14)             111.4171         estimate D2E/DX2                !
 ! A9    A(4,3,15)             110.0948         estimate D2E/DX2                !
 ! A10   A(14,3,15)            106.8134         estimate D2E/DX2                !
 ! A11   A(3,4,5)              113.7016         estimate D2E/DX2                !
 ! A12   A(3,4,16)             110.0427         estimate D2E/DX2                !
 ! A13   A(3,4,17)             109.5444         estimate D2E/DX2                !
 ! A14   A(5,4,16)             109.2624         estimate D2E/DX2                !
 ! A15   A(5,4,17)             108.1305         estimate D2E/DX2                !
 ! A16   A(16,4,17)            105.8451         estimate D2E/DX2                !
 ! A17   A(4,5,6)              114.1114         estimate D2E/DX2                !
 ! A18   A(4,5,18)             108.4941         estimate D2E/DX2                !
 ! A19   A(4,5,19)             109.5364         estimate D2E/DX2                !
 ! A20   A(6,5,18)             108.9171         estimate D2E/DX2                !
 ! A21   A(6,5,19)             109.7507         estimate D2E/DX2                !
 ! A22   A(18,5,19)            105.6801         estimate D2E/DX2                !
 ! A23   A(5,6,7)              112.6582         estimate D2E/DX2                !
 ! A24   A(5,6,20)             109.8491         estimate D2E/DX2                !
 ! A25   A(5,6,21)             109.0867         estimate D2E/DX2                !
 ! A26   A(7,6,20)             109.0863         estimate D2E/DX2                !
 ! A27   A(7,6,21)             109.6486         estimate D2E/DX2                !
 ! A28   A(20,6,21)            106.3133         estimate D2E/DX2                !
 ! A29   A(6,7,8)              114.2454         estimate D2E/DX2                !
 ! A30   A(6,7,22)             109.7935         estimate D2E/DX2                !
 ! A31   A(6,7,23)             108.9243         estimate D2E/DX2                !
 ! A32   A(8,7,22)             109.8485         estimate D2E/DX2                !
 ! A33   A(8,7,23)             108.2767         estimate D2E/DX2                !
 ! A34   A(22,7,23)            105.3576         estimate D2E/DX2                !
 ! A35   A(7,8,9)              115.8179         estimate D2E/DX2                !
 ! A36   A(7,8,24)             108.8461         estimate D2E/DX2                !
 ! A37   A(7,8,25)             108.7784         estimate D2E/DX2                !
 ! A38   A(9,8,24)             108.7704         estimate D2E/DX2                !
 ! A39   A(9,8,25)             108.8372         estimate D2E/DX2                !
 ! A40   A(24,8,25)            105.276          estimate D2E/DX2                !
 ! A41   A(8,9,10)             114.2442         estimate D2E/DX2                !
 ! A42   A(8,9,26)             108.2718         estimate D2E/DX2                !
 ! A43   A(8,9,27)             109.9043         estimate D2E/DX2                !
 ! A44   A(10,9,26)            108.9074         estimate D2E/DX2                !
 ! A45   A(10,9,27)            109.7789         estimate D2E/DX2                !
 ! A46   A(26,9,27)            105.337          estimate D2E/DX2                !
 ! A47   A(9,10,11)            112.6311         estimate D2E/DX2                !
 ! A48   A(9,10,28)            109.9452         estimate D2E/DX2                !
 ! A49   A(9,10,29)            109.7149         estimate D2E/DX2                !
 ! A50   A(11,10,28)           108.8409         estimate D2E/DX2                !
 ! A51   A(11,10,29)           109.2635         estimate D2E/DX2                !
 ! A52   A(28,10,29)           106.2381         estimate D2E/DX2                !
 ! A53   A(10,11,30)           111.379          estimate D2E/DX2                !
 ! A54   A(10,11,31)           111.3299         estimate D2E/DX2                !
 ! A55   A(10,11,32)           110.9807         estimate D2E/DX2                !
 ! A56   A(30,11,31)           107.8365         estimate D2E/DX2                !
 ! A57   A(30,11,32)           107.561          estimate D2E/DX2                !
 ! A58   A(31,11,32)           107.5714         estimate D2E/DX2                !
 ! D1    D(13,1,2,3)           179.7589         estimate D2E/DX2                !
 ! D2    D(13,1,2,12)            0.3567         estimate D2E/DX2                !
 ! D3    D(1,2,3,4)             66.4915         estimate D2E/DX2                !
 ! D4    D(1,2,3,14)           -57.2317         estimate D2E/DX2                !
 ! D5    D(1,2,3,15)          -171.7941         estimate D2E/DX2                !
 ! D6    D(12,2,3,4)          -114.1116         estimate D2E/DX2                !
 ! D7    D(12,2,3,14)          122.1652         estimate D2E/DX2                !
 ! D8    D(12,2,3,15)            7.6028         estimate D2E/DX2                !
 ! D9    D(2,3,4,5)            172.4935         estimate D2E/DX2                !
 ! D10   D(2,3,4,16)           -64.573          estimate D2E/DX2                !
 ! D11   D(2,3,4,17)            51.3979         estimate D2E/DX2                !
 ! D12   D(14,3,4,5)           -65.883          estimate D2E/DX2                !
 ! D13   D(14,3,4,16)           57.0505         estimate D2E/DX2                !
 ! D14   D(14,3,4,17)          173.0214         estimate D2E/DX2                !
 ! D15   D(15,3,4,5)            52.4341         estimate D2E/DX2                !
 ! D16   D(15,3,4,16)          175.3676         estimate D2E/DX2                !
 ! D17   D(15,3,4,17)          -68.6615         estimate D2E/DX2                !
 ! D18   D(3,4,5,6)             65.3511         estimate D2E/DX2                !
 ! D19   D(3,4,5,18)          -173.0323         estimate D2E/DX2                !
 ! D20   D(3,4,5,19)           -58.1296         estimate D2E/DX2                !
 ! D21   D(16,4,5,6)           -58.0091         estimate D2E/DX2                !
 ! D22   D(16,4,5,18)           63.6074         estimate D2E/DX2                !
 ! D23   D(16,4,5,19)          178.5101         estimate D2E/DX2                !
 ! D24   D(17,4,5,6)          -172.7658         estimate D2E/DX2                !
 ! D25   D(17,4,5,18)          -51.1493         estimate D2E/DX2                !
 ! D26   D(17,4,5,19)           63.7535         estimate D2E/DX2                !
 ! D27   D(4,5,6,7)            176.1982         estimate D2E/DX2                !
 ! D28   D(4,5,6,20)           -61.9707         estimate D2E/DX2                !
 ! D29   D(4,5,6,21)            54.1916         estimate D2E/DX2                !
 ! D30   D(18,5,6,7)            54.8154         estimate D2E/DX2                !
 ! D31   D(18,5,6,20)          176.6465         estimate D2E/DX2                !
 ! D32   D(18,5,6,21)          -67.1913         estimate D2E/DX2                !
 ! D33   D(19,5,6,7)           -60.437          estimate D2E/DX2                !
 ! D34   D(19,5,6,20)           61.3942         estimate D2E/DX2                !
 ! D35   D(19,5,6,21)          177.5564         estimate D2E/DX2                !
 ! D36   D(5,6,7,8)            175.8613         estimate D2E/DX2                !
 ! D37   D(5,6,7,22)           -60.2316         estimate D2E/DX2                !
 ! D38   D(5,6,7,23)            54.6627         estimate D2E/DX2                !
 ! D39   D(20,6,7,8)            53.5995         estimate D2E/DX2                !
 ! D40   D(20,6,7,22)          177.5065         estimate D2E/DX2                !
 ! D41   D(20,6,7,23)          -67.5992         estimate D2E/DX2                !
 ! D42   D(21,6,7,8)           -62.45           estimate D2E/DX2                !
 ! D43   D(21,6,7,22)           61.457          estimate D2E/DX2                !
 ! D44   D(21,6,7,23)          176.3513         estimate D2E/DX2                !
 ! D45   D(6,7,8,9)             60.9857         estimate D2E/DX2                !
 ! D46   D(6,7,8,24)           -61.8915         estimate D2E/DX2                !
 ! D47   D(6,7,8,25)          -176.1025         estimate D2E/DX2                !
 ! D48   D(22,7,8,9)           -62.8918         estimate D2E/DX2                !
 ! D49   D(22,7,8,24)          174.231          estimate D2E/DX2                !
 ! D50   D(22,7,8,25)           60.0199         estimate D2E/DX2                !
 ! D51   D(23,7,8,9)          -177.4582         estimate D2E/DX2                !
 ! D52   D(23,7,8,24)           59.6645         estimate D2E/DX2                !
 ! D53   D(23,7,8,25)          -54.5465         estimate D2E/DX2                !
 ! D54   D(7,8,9,10)            61.0944         estimate D2E/DX2                !
 ! D55   D(7,8,9,26)          -177.3756         estimate D2E/DX2                !
 ! D56   D(7,8,9,27)           -62.8068         estimate D2E/DX2                !
 ! D57   D(24,8,9,10)         -175.9884         estimate D2E/DX2                !
 ! D58   D(24,8,9,26)          -54.4585         estimate D2E/DX2                !
 ! D59   D(24,8,9,27)           60.1103         estimate D2E/DX2                !
 ! D60   D(25,8,9,10)          -61.7863         estimate D2E/DX2                !
 ! D61   D(25,8,9,26)           59.7436         estimate D2E/DX2                !
 ! D62   D(25,8,9,27)          174.3125         estimate D2E/DX2                !
 ! D63   D(8,9,10,11)          176.0087         estimate D2E/DX2                !
 ! D64   D(8,9,10,28)          -62.4244         estimate D2E/DX2                !
 ! D65   D(8,9,10,29)           54.0651         estimate D2E/DX2                !
 ! D66   D(26,9,10,11)          54.8295         estimate D2E/DX2                !
 ! D67   D(26,9,10,28)         176.3964         estimate D2E/DX2                !
 ! D68   D(26,9,10,29)         -67.114          estimate D2E/DX2                !
 ! D69   D(27,9,10,11)         -60.0229         estimate D2E/DX2                !
 ! D70   D(27,9,10,28)          61.544          estimate D2E/DX2                !
 ! D71   D(27,9,10,29)         178.0336         estimate D2E/DX2                !
 ! D72   D(9,10,11,30)         -60.3543         estimate D2E/DX2                !
 ! D73   D(9,10,11,31)          60.0427         estimate D2E/DX2                !
 ! D74   D(9,10,11,32)         179.8344         estimate D2E/DX2                !
 ! D75   D(28,10,11,30)        177.4538         estimate D2E/DX2                !
 ! D76   D(28,10,11,31)        -62.1492         estimate D2E/DX2                !
 ! D77   D(28,10,11,32)         57.6425         estimate D2E/DX2                !
 ! D78   D(29,10,11,30)         61.8442         estimate D2E/DX2                !
 ! D79   D(29,10,11,31)       -177.7587         estimate D2E/DX2                !
 ! D80   D(29,10,11,32)        -57.967          estimate D2E/DX2                !
 --------------------------------------------------------------------------------
 Trust Radius=3.00D-01 FncErr=1.00D-07 GrdErr=1.00D-06 EigMax=2.50D+02 EigMin=1.00D-04
 Number of steps in this run=    179 maximum allowed number of steps=    192.
 GradGradGradGradGradGradGradGradGradGradGradGradGradGradGradGradGradGrad

                          Input orientation:                          
 ---------------------------------------------------------------------
 Center     Atomic      Atomic             Coordinates (Angstroms)
 Number     Number       Type             X           Y           Z
 ---------------------------------------------------------------------
      1          8           0        6.141400   -0.180100   -0.485200
      2          6           0        5.071800   -0.169400    0.339400
      3          6           0        3.843700   -0.819300   -0.288300
      4          6           0        4.006700   -2.339600   -0.527900
      5          6           0        2.711900   -3.036300   -0.989700
      6          6           0        2.212500   -2.582400   -2.374800
      7          6           0        0.971200   -3.365200   -2.844000
      8          6           0        0.379400   -2.872500   -4.181900
      9          6           0        1.317300   -2.960500   -5.404900
     10          6           0        1.777300   -4.389700   -5.747500
     11          6           0        2.627300   -4.446500   -7.024600
     12          8           0        5.091400    0.319700    1.459100
     13          1           0        6.830900    0.252900    0.018700
     14          1           0        3.629300   -0.291200   -1.216300
     15          1           0        3.003800   -0.633600    0.381500
     16          1           0        4.795000   -2.520500   -1.262400
     17          1           0        4.341700   -2.821100    0.394000
     18          1           0        2.887400   -4.113400   -1.012300
     19          1           0        1.928300   -2.880600   -0.245800
     20          1           0        1.975500   -1.518000   -2.352500
     21          1           0        3.017700   -2.701900   -3.101100
     22          1           0        1.208800   -4.427700   -2.913000
     23          1           0        0.196200   -3.291400   -2.079100
     24          1           0        0.053100   -1.837800   -4.063300
     25          1           0       -0.529600   -3.438200   -4.393500
     26          1           0        0.795900   -2.540600   -6.266900
     27          1           0        2.186700   -2.319300   -5.253100
     28          1           0        2.356300   -4.802600   -4.920300
     29          1           0        0.907500   -5.038200   -5.864800
     30          1           0        2.070400   -4.083700   -7.889300
     31          1           0        3.528300   -3.839400   -6.928800
     32          1           0        2.940400   -5.468600   -7.240100
 ---------------------------------------------------------------------
                    Distance matrix (angstroms):
                    1          2          3          4          5
     1  O    0.000000
     2  C    1.350601   0.000000
     3  C    2.393067   1.524666   0.000000
     4  C    3.036809   2.568349   1.547672   0.000000
     5  C    4.491533   3.943951   2.586121   1.541154   0.000000
     6  C    4.977739   4.622234   3.181638   2.586338   1.540756
     7  C    6.514581   6.096072   4.611341   3.953534   2.564496
     8  C    7.356307   7.054610   5.601529   5.176196   3.956959
     9  C    7.430075   7.408339   6.094836   5.603884   4.630836
    10  C    8.028568   8.106480   6.842560   6.034680   5.034067
    11  C    8.562407   8.859891   7.746867   6.967703   6.198051
    12  O    2.265525   1.222019   2.430531   3.492366   4.787628
    13  H    0.957504   1.837286   3.188609   3.872458   5.366737
    14  H    2.618682   2.125052   1.089055   2.193688   2.903196
    15  H    3.286543   2.119877   1.090206   2.177901   2.781791
    16  H    2.809681   2.858330   2.178973   1.092535   2.163266
    17  H    3.314633   2.750916   2.172727   1.092688   2.148764
    18  H    5.131978   4.706786   3.505678   2.152636   1.091538
    19  H    5.010012   4.192214   2.814164   2.166104   1.091631
    20  H    4.757259   4.318810   2.870414   2.851309   2.169042
    21  H    4.791650   4.740245   3.484007   2.780421   2.159478
    22  H    6.947436   6.605603   5.181920   4.228133   2.809695
    23  H    6.896819   6.274353   4.756312   4.222802   2.753292
    24  H    7.253838   6.881473   5.445789   5.327458   4.237055
    25  H    8.390010   8.028766   6.545002   6.060347   4.717489
    26  H    8.220364   8.218827   6.927887   6.579191   5.636099
    27  H    6.553526   6.649957   5.444712   5.063628   4.355055
    28  H    7.440739   7.516976   6.287644   5.299374   4.323874
    29  H    8.940634   8.918447   7.584045   6.735724   5.570463
    30  H    9.307622   9.593834   8.460266   7.809056   7.008070
    31  H    7.857401   8.287220   7.301830   6.591645   6.048503
    32  H    9.156599   9.490691   8.411865   7.482063   6.710871
                    6          7          8          9         10
     6  C    0.000000
     7  C    1.540698   0.000000
     8  C    2.590371   1.543683   0.000000
     9  C    3.182114   2.615679   1.543739   0.000000
    10  C    3.851083   3.182720   2.589812   1.539996   0.000000
    11  C    5.026686   4.624856   3.951136   2.558852   1.535158
    12  O    5.604377   7.005084   8.013362   8.492234   9.224792
    13  H    5.924305   7.458001   8.308731   8.375032   8.963352
    14  H    2.932412   4.377714   5.100955   5.478583   6.384307
    15  H    3.467155   4.690091   5.720557   6.460741   7.292272
    16  H    2.812574   4.223319   5.305177   5.426629   5.719838
    17  H    3.500960   4.705418   6.053208   6.541687   6.837739
    18  H    2.157744   2.754406   4.228033   4.805136   4.871425
    19  H    2.168487   2.810964   4.229898   5.195769   5.706916
    20  H    1.090694   2.159245   2.780092   3.439648   4.451064
    21  H    1.090935   2.166617   2.856197   2.875018   3.375010
    22  H    2.168457   1.090927   2.171787   2.893789   2.891198
    23  H    2.157681   1.091395   2.151931   3.525238   4.142861
    24  H    2.840505   2.159294   1.091394   2.158367   3.510212
    25  H    3.510934   2.158398   1.091362   2.159205   2.839094
    26  H    4.142094   3.525186   2.151942   1.091429   2.156871
    27  H    2.890415   2.893978   2.172518   1.090888   2.167624
    28  H    3.380760   2.880216   2.859835   2.169721   1.090865
    29  H    4.462519   3.453725   2.793080   2.167091   1.091267
    30  H    5.716975   5.213400   4.251035   2.828601   2.183312
    31  H    4.904110   4.842439   4.289047   2.825466   2.182728
    32  H    5.703607   5.256209   4.759311   3.506134   2.178229
                   11         12         13         14         15
    11  C    0.000000
    12  O   10.038009   0.000000
    13  H    9.453184   2.259441   0.000000
    14  H    7.211579   3.109453   3.474408   0.000000
    15  H    8.338482   2.535365   3.945149   1.749701   0.000000
    16  H    6.450686   3.944763   3.671220   2.516100   3.077531
    17  H    7.785674   3.400164   3.973216   3.082365   2.564233
    18  H    6.027135   5.533336   5.973167   3.898877   3.750365
    19  H    6.992337   4.811840   5.824454   3.246577   2.568894
    20  H    5.552430   5.254928   5.686263   2.351817   3.051937
    21  H    4.311600   5.850275   5.744953   3.120577   4.050501
    22  H    4.349454   7.531776   7.881046   5.084117   5.335818
    23  H    5.630495   7.037179   7.809102   4.640237   4.582693
    24  H    4.711806   7.780500   8.183662   4.825618   5.469276
    25  H    4.231474   8.942616   9.341771   6.106935   6.568967
    26  H    2.749653   9.291056   9.150608   6.212609   7.260351
    27  H    2.803091   7.775296   7.481757   4.742366   5.937841
    28  H    2.151355   8.626440   8.365037   5.974351   6.775611
    29  H    2.157071   9.992578   9.884229   7.179886   7.925354
    30  H    1.090627  10.766102  10.198280   7.832123   9.010025
    31  H    1.090664   9.492010   8.713314   6.725517   7.999546
    32  H    1.090486  10.668050  10.028047   7.972843   9.026075
                   16         17         18         19         20
    16  H    0.000000
    17  H    1.743417   0.000000
    18  H    2.497763   2.400564   0.000000
    19  H    3.062861   2.497475   1.739882   0.000000
    20  H    3.184793   3.852302   3.060032   2.509401   0.000000
    21  H    2.563692   3.739373   2.524360   3.061285   1.745910
    22  H    4.384373   4.830370   2.555219   3.166252   3.060775
    23  H    4.733946   4.850008   3.009369   2.555370   2.526975
    24  H    5.549481   6.263106   4.745547   4.379168   2.593209
    25  H    6.244784   6.857881   4.854307   4.853412   3.758773
    26  H    6.406108   7.551090   5.870170   6.136088   4.214225
    27  H    4.771729   6.065111   4.657699   5.045283   3.016648
    28  H    4.953329   6.009155   4.003689   5.072299   4.186550
    29  H    6.529438   7.475416   5.321843   6.104951   5.086127
    30  H    7.333679   8.681361   6.925424   7.738910   6.103112
    31  H    5.954168   7.437873   5.957416   6.938428   5.361213
    32  H    6.918362   8.200755   6.373764   7.526109   6.358216
                   21         22         23         24         25
    21  H    0.000000
    22  H    2.507167   0.000000
    23  H    3.058244   1.735490   0.000000
    24  H    3.234401   3.060460   2.463834   0.000000
    25  H    3.846527   2.488579   2.429976   1.734892   0.000000
    26  H    3.871008   3.870436   4.296628   2.429307   2.464196
    27  H    2.338386   3.298137   3.870574   2.489923   3.060904
    28  H    2.856550   2.342341   3.875845   3.850872   3.235355
    29  H    4.189186   3.029293   4.229513   3.770671   2.605759
    30  H    5.072830   5.062040   6.156199   4.873586   4.404235
    31  H    4.025656   4.674701   5.909550   4.928946   4.801589
    32  H    4.979149   4.775532   6.237528   5.622390   4.926110
                   26         27         28         29         30
    26  H    0.000000
    27  H    1.735249   0.000000
    28  H    3.060200   2.511235   0.000000
    29  H    2.532221   3.066422   1.745454   0.000000
    30  H    2.576371   3.174300   3.068146   2.522302   0.000000
    31  H    3.096934   2.630317   2.517024   3.072102   1.762871
    32  H    3.757550   3.799253   2.483184   2.491862   1.759633
                   31         32
    31  H    0.000000
    32  H    1.759780   0.000000
 Stoichiometry    C10H20O2
 Framework group  C1[X(C10H20O2)]
 Deg. of freedom    90
 Full point group                 C1      NOp   1
 Largest Abelian subgroup         C1      NOp   1
 Largest concise Abelian subgroup C1      NOp   1
                         Standard orientation:                         
 ---------------------------------------------------------------------
 Center     Atomic      Atomic             Coordinates (Angstroms)
 Number     Number       Type             X           Y           Z
 ---------------------------------------------------------------------
      1          8           0       -3.856290    1.779984   -0.196163
      2          6           0       -4.015802    0.442862   -0.300003
      3          6           0       -2.686558   -0.303188   -0.333620
      4          6           0       -1.895028   -0.210329    0.993085
      5          6           0       -0.642933   -1.108066    1.031586
      6          6           0        0.449163   -0.708774    0.020735
      7          6           0        1.721361   -1.567996    0.151120
      8          6           0        2.801303   -1.266685   -0.909961
      9          6           0        3.362514    0.171428   -0.908500
     10          6           0        4.058958    0.577122    0.403737
     11          6           0        4.687636    1.975755    0.330928
     12          8           0       -5.108309   -0.100087   -0.370474
     13          1           0       -4.750060    2.123415   -0.189440
     14          1           0       -2.109237    0.089415   -1.169445
     15          1           0       -2.908324   -1.345146   -0.565336
     16          1           0       -1.602167    0.825003    1.182693
     17          1           0       -2.542854   -0.494427    1.825898
     18          1           0       -0.222879   -1.073426    2.038467
     19          1           0       -0.933904   -2.147550    0.868898
     20          1           0        0.062750   -0.795609   -0.995512
     21          1           0        0.700610    0.343058    0.164132
     22          1           0        2.142728   -1.454796    1.150998
     23          1           0        1.446919   -2.621253    0.070649
     24          1           0        2.394047   -1.483731   -1.898988
     25          1           0        3.627597   -1.967533   -0.779103
     26          1           0        4.075661    0.261287   -1.729819
     27          1           0        2.566502    0.880969   -1.138615
     28          1           0        3.343592    0.554858    1.226989
     29          1           0        4.831765   -0.152534    0.651190
     30          1           0        5.444411    2.031188   -0.452453
     31          1           0        3.935885    2.738319    0.123767
     32          1           0        5.170060    2.236540    1.273487
 ---------------------------------------------------------------------
 Rotational constants (GHZ):           1.6748320           0.2537848           0.2367815
 Standard basis: 6-31G(d,p) (6D, 7F)
 There are   280 symmetry adapted cartesian basis functions of A   symmetry.
 There are   280 symmetry adapted basis functions of A   symmetry.
   280 basis functions,   476 primitive gaussians,   280 cartesian basis functions
    48 alpha electrons       48 beta electrons
       nuclear repulsion energy       694.7544389199 Hartrees.
 NAtoms=   32 NActive=   32 NUniq=   32 SFac= 1.00D+00 NAtFMM=   60 NAOKFM=F Big=F
 Integral buffers will be    131072 words long.
 Raffenetti 2 integral format.
 Two-electron integral symmetry is turned on.
 Nuclear repulsion after empirical dispersion term =      694.7074692379 Hartrees.
 One-electron integrals computed using PRISM.
 NBasis=   280 RedAO= T EigKep=  2.79D-03  NBF=   280
 NBsUse=   280 1.00D-06 EigRej= -1.00D+00 NBFU=   280
 ExpMin= 1.61D-01 ExpMax= 5.48D+03 ExpMxC= 8.25D+02 IAcc=3 IRadAn=         5 AccDes= 0.00D+00
 Harris functional with IExCor=  402 and IRadAn=       5 diagonalized for initial guess.
 HarFok:  IExCor=  402 AccDes= 0.00D+00 IRadAn=         5 IDoV= 1 UseB2=F ITyADJ=14
 ICtDFT=  3500011 ScaDFX=  1.000000  1.000000  1.000000  1.000000
 FoFCou: FMM=F IPFlag=           0 FMFlag=      100000 FMFlg1=           0
         NFxFlg=           0 DoJE=T BraDBF=F KetDBF=T FulRan=T
         wScrn=  0.000000 ICntrl=       500 IOpCl=  0 I1Cent=   200000004 NGrid=           0
         NMat0=    1 NMatS0=      1 NMatT0=    0 NMatD0=    1 NMtDS0=    0 NMtDT0=    0
 Petite list used in FoFCou.
 Requested convergence on RMS density matrix=1.00D-08 within 128 cycles.
 Requested convergence on MAX density matrix=1.00D-06.
 Requested convergence on             energy=1.00D-06.
 No special actions if energy rises.
 Integral accuracy reduced to 1.0D-05 until final iterations.
 EnCoef did     1 forward-backward iterations
 Initial convergence to 1.0D-05 achieved.  Increase integral accuracy.
 SCF Done:  E(RB3LYP) =  -543.664521781     A.U. after   13 cycles
            NFock= 13  Conv=0.86D-08     -V/T= 2.0096

 **********************************************************************

            Population analysis using the SCF Density.

 **********************************************************************

 Orbital symmetries:
       Occupied  (A) (A) (A) (A) (A) (A) (A) (A) (A) (A) (A) (A)
                 (A) (A) (A) (A) (A) (A) (A) (A) (A) (A) (A) (A)
                 (A) (A) (A) (A) (A) (A) (A) (A) (A) (A) (A) (A)
                 (A) (A) (A) (A) (A) (A) (A) (A) (A) (A) (A) (A)
       Virtual   (A) (A) (A) (A) (A) (A) (A) (A) (A) (A) (A) (A)
                 (A) (A) (A) (A) (A) (A) (A) (A) (A) (A) (A) (A)
                 (A) (A) (A) (A) (A) (A) (A) (A) (A) (A) (A) (A)
                 (A) (A) (A) (A) (A) (A) (A) (A) (A) (A) (A) (A)
                 (A) (A) (A) (A) (A) (A) (A) (A) (A) (A) (A) (A)
                 (A) (A) (A) (A) (A) (A) (A) (A) (A) (A) (A) (A)
                 (A) (A) (A) (A) (A) (A) (A) (A) (A) (A) (A) (A)
                 (A) (A) (A) (A) (A) (A) (A) (A) (A) (A) (A) (A)
                 (A) (A) (A) (A) (A) (A) (A) (A) (A) (A) (A) (A)
                 (A) (A) (A) (A) (A) (A) (A) (A) (A) (A) (A) (A)
                 (A) (A) (A) (A) (A) (A) (A) (A) (A) (A) (A) (A)
                 (A) (A) (A) (A) (A) (A) (A) (A) (A) (A) (A) (A)
                 (A) (A) (A) (A) (A) (A) (A) (A) (A) (A) (A) (A)
                 (A) (A) (A) (A) (A) (A) (A) (A) (A) (A) (A) (A)
                 (A) (A) (A) (A) (A) (A) (A) (A) (A) (A) (A) (A)
                 (A) (A) (A) (A) (A) (A) (A) (A) (A) (A) (A) (A)
                 (A) (A) (A) (A) (A) (A) (A) (A) (A) (A) (A) (A)
                 (A) (A) (A) (A) (A) (A) (A) (A) (A) (A) (A) (A)
                 (A) (A) (A) (A) (A) (A) (A) (A) (A) (A) (A) (A)
                 (A) (A) (A) (A)
 The electronic state is 1-A.
 Alpha  occ. eigenvalues --  -19.19831 -19.13551 -10.31918 -10.19815 -10.19207
 Alpha  occ. eigenvalues --  -10.18384 -10.17968 -10.17776 -10.17750 -10.17693
 Alpha  occ. eigenvalues --  -10.17557 -10.17086  -1.10662  -1.00963  -0.81509
 Alpha  occ. eigenvalues --   -0.79677  -0.76620  -0.73098  -0.68879  -0.64518
 Alpha  occ. eigenvalues --   -0.61000  -0.59947  -0.57951  -0.55497  -0.48905
 Alpha  occ. eigenvalues --   -0.48204  -0.47409  -0.46560  -0.45069  -0.43857
 Alpha  occ. eigenvalues --   -0.42829  -0.41825  -0.41101  -0.40568  -0.38779
 Alpha  occ. eigenvalues --   -0.38288  -0.37500  -0.36058  -0.35409  -0.35142
 Alpha  occ. eigenvalues --   -0.33483  -0.32920  -0.32752  -0.31473  -0.31240
 Alpha  occ. eigenvalues --   -0.31006  -0.30574  -0.26780
 Alpha virt. eigenvalues --    0.00959   0.07589   0.08239   0.10476   0.10821
 Alpha virt. eigenvalues --    0.11298   0.12336   0.13276   0.13773   0.14943
 Alpha virt. eigenvalues --    0.16056   0.16582   0.17199   0.17832   0.17945
 Alpha virt. eigenvalues --    0.18556   0.18849   0.19430   0.20319   0.20812
 Alpha virt. eigenvalues --    0.21533   0.22817   0.23362   0.24188   0.24577
 Alpha virt. eigenvalues --    0.25590   0.25902   0.27402   0.27779   0.29596
 Alpha virt. eigenvalues --    0.32666   0.35554   0.48939   0.49825   0.49988
 Alpha virt. eigenvalues --    0.50456   0.52732   0.53251   0.54597   0.54660
 Alpha virt. eigenvalues --    0.56266   0.57334   0.57735   0.59194   0.61582
 Alpha virt. eigenvalues --    0.63831   0.65056   0.65516   0.65910   0.67209
 Alpha virt. eigenvalues --    0.67828   0.69025   0.70435   0.72194   0.72838
 Alpha virt. eigenvalues --    0.75795   0.76877   0.78095   0.80342   0.81626
 Alpha virt. eigenvalues --    0.83665   0.84246   0.85245   0.85903   0.86204
 Alpha virt. eigenvalues --    0.87320   0.87554   0.89029   0.89640   0.90033
 Alpha virt. eigenvalues --    0.90967   0.91206   0.91821   0.93144   0.93592
 Alpha virt. eigenvalues --    0.93925   0.94595   0.95320   0.96468   0.97502
 Alpha virt. eigenvalues --    0.98424   0.99167   1.01564   1.02784   1.05133
 Alpha virt. eigenvalues --    1.06888   1.07984   1.09132   1.12405   1.16145
 Alpha virt. eigenvalues --    1.20453   1.27902   1.29400   1.32103   1.34654
 Alpha virt. eigenvalues --    1.38547   1.39079   1.40883   1.41521   1.45178
 Alpha virt. eigenvalues --    1.47850   1.49376   1.51920   1.55605   1.56561
 Alpha virt. eigenvalues --    1.58970   1.62692   1.65258   1.66635   1.66931
 Alpha virt. eigenvalues --    1.69060   1.71329   1.71934   1.73125   1.73952
 Alpha virt. eigenvalues --    1.76089   1.77175   1.78391   1.79773   1.81923
 Alpha virt. eigenvalues --    1.83802   1.85070   1.86144   1.86592   1.88596
 Alpha virt. eigenvalues --    1.89060   1.89597   1.90647   1.93075   1.97545
 Alpha virt. eigenvalues --    2.00484   2.02062   2.05560   2.06115   2.07643
 Alpha virt. eigenvalues --    2.08122   2.11197   2.11974   2.12880   2.13846
 Alpha virt. eigenvalues --    2.14916   2.16736   2.17288   2.18260   2.19652
 Alpha virt. eigenvalues --    2.21544   2.23485   2.24338   2.26855   2.27124
 Alpha virt. eigenvalues --    2.27604   2.29266   2.29597   2.30642   2.31720
 Alpha virt. eigenvalues --    2.34522   2.35460   2.36696   2.38826   2.40327
 Alpha virt. eigenvalues --    2.43116   2.44997   2.45338   2.48761   2.50053
 Alpha virt. eigenvalues --    2.52780   2.55021   2.55886   2.56446   2.58131
 Alpha virt. eigenvalues --    2.59678   2.61325   2.62651   2.64026   2.66614
 Alpha virt. eigenvalues --    2.68017   2.70663   2.72945   2.74528   2.75645
 Alpha virt. eigenvalues --    2.77314   2.78637   2.79198   2.80995   2.82505
 Alpha virt. eigenvalues --    2.83867   2.84562   2.86462   2.87756   2.89632
 Alpha virt. eigenvalues --    2.90405   2.91246   2.91429   2.92030   2.92171
 Alpha virt. eigenvalues --    2.93825   2.94927   2.96200   3.03255   3.11724
 Alpha virt. eigenvalues --    3.19558   3.24454   3.28063   3.30119   3.31050
 Alpha virt. eigenvalues --    3.33094   3.33840   3.35642   3.36718   3.38567
 Alpha virt. eigenvalues --    3.41316   3.44785   3.45921   3.48350   3.49301
 Alpha virt. eigenvalues --    3.53234   3.54985   3.57719   3.59157   3.60217
 Alpha virt. eigenvalues --    3.91997   4.10639   4.24115   4.29400   4.34388
 Alpha virt. eigenvalues --    4.44367   4.49243   4.55532   4.61249   4.67952
 Alpha virt. eigenvalues --    4.71545   4.76214
          Condensed to atoms (all electrons):
               1          2          3          4          5          6
     1  O    8.122119   0.246174  -0.100227   0.003359   0.000056  -0.000005
     2  C    0.246174   4.388855   0.341031  -0.024304   0.002398   0.000176
     3  C   -0.100227   0.341031   5.093086   0.348426  -0.037782  -0.004338
     4  C    0.003359  -0.024304   0.348426   4.916040   0.361632  -0.040664
     5  C    0.000056   0.002398  -0.037782   0.361632   4.912804   0.376549
     6  C   -0.000005   0.000176  -0.004338  -0.040664   0.376549   4.902143
     7  C   -0.000000  -0.000001   0.000102   0.003627  -0.033507   0.376944
     8  C    0.000000  -0.000000   0.000001  -0.000130   0.003503  -0.039434
     9  C   -0.000000  -0.000000  -0.000000   0.000002   0.000159  -0.004393
    10  C   -0.000000   0.000000  -0.000000   0.000000  -0.000002  -0.001572
    11  C   -0.000000   0.000000  -0.000000  -0.000000   0.000000   0.000002
    12  O   -0.083700   0.576895  -0.073054  -0.000649  -0.000066  -0.000000
    13  H    0.268269  -0.009550   0.010859  -0.000189   0.000009   0.000000
    14  H    0.002473  -0.023983   0.357833  -0.028326  -0.005735   0.002746
    15  H    0.003435  -0.032398   0.376031  -0.033821  -0.003656  -0.000855
    16  H    0.003924  -0.004499  -0.037698   0.382702  -0.034689  -0.007193
    17  H   -0.000090  -0.001131  -0.044667   0.381184  -0.032440   0.004480
    18  H    0.000001  -0.000107   0.004653  -0.032757   0.380435  -0.039375
    19  H   -0.000001  -0.000052  -0.007274  -0.037791   0.381529  -0.039538
    20  H    0.000001  -0.000020   0.002903  -0.004639  -0.039375   0.383330
    21  H   -0.000001  -0.000027  -0.000987  -0.002716  -0.040491   0.384273
    22  H   -0.000000   0.000000   0.000004  -0.000028  -0.003769  -0.040398
    23  H   -0.000000  -0.000000  -0.000020   0.000115  -0.004298  -0.041206
    24  H   -0.000000   0.000000  -0.000002  -0.000000   0.000039  -0.007367
    25  H   -0.000000   0.000000   0.000000   0.000002  -0.000132   0.004718
    26  H   -0.000000  -0.000000   0.000000  -0.000000  -0.000002   0.000067
    27  H    0.000000   0.000000   0.000001   0.000008  -0.000104   0.003730
    28  H    0.000000  -0.000000   0.000000  -0.000001  -0.000053   0.000287
    29  H    0.000000   0.000000  -0.000000   0.000000   0.000000   0.000099
    30  H   -0.000000  -0.000000   0.000000  -0.000000  -0.000000  -0.000001
    31  H   -0.000000  -0.000000  -0.000000   0.000000   0.000000   0.000004
    32  H   -0.000000  -0.000000  -0.000000  -0.000000  -0.000000  -0.000000
               7          8          9         10         11         12
     1  O   -0.000000   0.000000  -0.000000  -0.000000  -0.000000  -0.083700
     2  C   -0.000001  -0.000000  -0.000000   0.000000   0.000000   0.576895
     3  C    0.000102   0.000001  -0.000000  -0.000000  -0.000000  -0.073054
     4  C    0.003627  -0.000130   0.000002   0.000000  -0.000000  -0.000649
     5  C   -0.033507   0.003503   0.000159  -0.000002   0.000000  -0.000066
     6  C    0.376944  -0.039434  -0.004393  -0.001572   0.000002  -0.000000
     7  C    4.906774   0.368293  -0.042505  -0.004420   0.000141   0.000000
     8  C    0.368293   4.919457   0.371445  -0.040116   0.003959   0.000000
     9  C   -0.042505   0.371445   4.896637   0.386309  -0.041881  -0.000000
    10  C   -0.004420  -0.040116   0.386309   4.865758   0.370909  -0.000000
    11  C    0.000141   0.003959  -0.041881   0.370909   4.916439  -0.000000
    12  O    0.000000   0.000000  -0.000000  -0.000000  -0.000000   8.031563
    13  H    0.000000  -0.000000  -0.000000   0.000000   0.000000   0.011515
    14  H   -0.000116   0.000005   0.000001  -0.000000   0.000000   0.002124
    15  H   -0.000024   0.000000  -0.000000   0.000000  -0.000000   0.002213
    16  H    0.000042  -0.000000  -0.000002  -0.000000  -0.000000   0.000008
    17  H   -0.000133   0.000002   0.000000  -0.000000   0.000000   0.001034
    18  H   -0.004025   0.000098  -0.000017   0.000003   0.000000   0.000000
    19  H   -0.003823  -0.000020   0.000002  -0.000001  -0.000000  -0.000002
    20  H   -0.039611  -0.002419  -0.001051   0.000100  -0.000000   0.000000
    21  H   -0.037813  -0.004534   0.002482   0.000386  -0.000060   0.000000
    22  H    0.382695  -0.037277  -0.007456   0.003745  -0.000130  -0.000000
    23  H    0.379155  -0.032202   0.004889   0.000076  -0.000002   0.000000
    24  H   -0.038495   0.375546  -0.033579   0.004817  -0.000161  -0.000000
    25  H   -0.033138   0.375773  -0.038447  -0.007077   0.000040   0.000000
    26  H    0.004950  -0.031983   0.379412  -0.041610  -0.004059   0.000000
    27  H   -0.007694  -0.037416   0.382295  -0.041029  -0.002876   0.000000
    28  H    0.002566  -0.004692  -0.038599   0.387142  -0.038090   0.000000
    29  H   -0.001019  -0.002703  -0.040912   0.386887  -0.038502   0.000000
    30  H    0.000004   0.000009  -0.004989  -0.034683   0.387324   0.000000
    31  H   -0.000018   0.000081  -0.004752  -0.034570   0.387208  -0.000000
    32  H    0.000003  -0.000163   0.004189  -0.027869   0.379390   0.000000
              13         14         15         16         17         18
     1  O    0.268269   0.002473   0.003435   0.003924  -0.000090   0.000001
     2  C   -0.009550  -0.023983  -0.032398  -0.004499  -0.001131  -0.000107
     3  C    0.010859   0.357833   0.376031  -0.037698  -0.044667   0.004653
     4  C   -0.000189  -0.028326  -0.033821   0.382702   0.381184  -0.032757
     5  C    0.000009  -0.005735  -0.003656  -0.034689  -0.032440   0.380435
     6  C    0.000000   0.002746  -0.000855  -0.007193   0.004480  -0.039375
     7  C    0.000000  -0.000116  -0.000024   0.000042  -0.000133  -0.004025
     8  C   -0.000000   0.000005   0.000000  -0.000000   0.000002   0.000098
     9  C   -0.000000   0.000001  -0.000000  -0.000002   0.000000  -0.000017
    10  C    0.000000  -0.000000   0.000000  -0.000000  -0.000000   0.000003
    11  C    0.000000   0.000000  -0.000000  -0.000000   0.000000   0.000000
    12  O    0.011515   0.002124   0.002213   0.000008   0.001034   0.000000
    13  H    0.401686  -0.000493  -0.000343  -0.000114  -0.000106  -0.000000
    14  H   -0.000493   0.597189  -0.033156  -0.005663   0.005641  -0.000000
    15  H   -0.000343  -0.033156   0.587333   0.005240  -0.003964   0.000078
    16  H   -0.000114  -0.005663   0.005240   0.615365  -0.037835  -0.003346
    17  H   -0.000106   0.005641  -0.003964  -0.037835   0.631432  -0.004285
    18  H   -0.000000  -0.000000   0.000078  -0.003346  -0.004285   0.638571
    19  H    0.000000  -0.000197   0.005199   0.005803  -0.003057  -0.039390
    20  H   -0.000000   0.001747   0.000516  -0.000235  -0.000050   0.006033
    21  H   -0.000000   0.000440   0.000090   0.005546   0.000049  -0.005420
    22  H    0.000000  -0.000000   0.000001   0.000002  -0.000004   0.005101
    23  H   -0.000000   0.000010   0.000001   0.000009   0.000004  -0.000586
    24  H    0.000000  -0.000003   0.000000   0.000000  -0.000000   0.000009
    25  H    0.000000  -0.000000  -0.000000   0.000000  -0.000000   0.000003
    26  H   -0.000000   0.000000   0.000000   0.000000   0.000000  -0.000000
    27  H    0.000000   0.000000  -0.000000  -0.000003  -0.000000   0.000007
    28  H   -0.000000  -0.000000   0.000000   0.000000  -0.000000   0.000016
    29  H   -0.000000   0.000000  -0.000000  -0.000000  -0.000000  -0.000001
    30  H   -0.000000  -0.000000  -0.000000  -0.000000  -0.000000   0.000000
    31  H   -0.000000   0.000000   0.000000   0.000000   0.000000  -0.000000
    32  H   -0.000000  -0.000000   0.000000   0.000000  -0.000000  -0.000000
              19         20         21         22         23         24
     1  O   -0.000001   0.000001  -0.000001  -0.000000  -0.000000  -0.000000
     2  C   -0.000052  -0.000020  -0.000027   0.000000  -0.000000   0.000000
     3  C   -0.007274   0.002903  -0.000987   0.000004  -0.000020  -0.000002
     4  C   -0.037791  -0.004639  -0.002716  -0.000028   0.000115  -0.000000
     5  C    0.381529  -0.039375  -0.040491  -0.003769  -0.004298   0.000039
     6  C   -0.039538   0.383330   0.384273  -0.040398  -0.041206  -0.007367
     7  C   -0.003823  -0.039611  -0.037813   0.382695   0.379155  -0.038495
     8  C   -0.000020  -0.002419  -0.004534  -0.037277  -0.032202   0.375546
     9  C    0.000002  -0.001051   0.002482  -0.007456   0.004889  -0.033579
    10  C   -0.000001   0.000100   0.000386   0.003745   0.000076   0.004817
    11  C   -0.000000  -0.000000  -0.000060  -0.000130  -0.000002  -0.000161
    12  O   -0.000002   0.000000   0.000000  -0.000000   0.000000  -0.000000
    13  H    0.000000  -0.000000  -0.000000   0.000000  -0.000000   0.000000
    14  H   -0.000197   0.001747   0.000440  -0.000000   0.000010  -0.000003
    15  H    0.005199   0.000516   0.000090   0.000001   0.000001   0.000000
    16  H    0.005803  -0.000235   0.005546   0.000002   0.000009   0.000000
    17  H   -0.003057  -0.000050   0.000049  -0.000004   0.000004  -0.000000
    18  H   -0.039390   0.006033  -0.005420   0.005101  -0.000586   0.000009
    19  H    0.638987  -0.006081   0.006017  -0.000503   0.005122   0.000002
    20  H   -0.006081   0.642834  -0.042414   0.006103  -0.005429   0.005395
    21  H    0.006017  -0.042414   0.637031  -0.006518   0.006102  -0.000280
    22  H   -0.000503   0.006103  -0.006518   0.640831  -0.040385   0.006097
    23  H    0.005122  -0.005429   0.006102  -0.040385   0.648403  -0.004394
    24  H    0.000002   0.005395  -0.000280   0.006097  -0.004394   0.652335
    25  H   -0.000004   0.000016  -0.000037  -0.003599  -0.003731  -0.039254
    26  H    0.000000  -0.000036  -0.000057  -0.000006  -0.000155  -0.003811
    27  H   -0.000001   0.000497   0.001594   0.000064  -0.000008  -0.003647
    28  H    0.000001  -0.000019   0.000929   0.001631  -0.000051  -0.000044
    29  H   -0.000000  -0.000002  -0.000022   0.000490  -0.000037   0.000017
    30  H   -0.000000  -0.000000   0.000002   0.000000   0.000000  -0.000005
    31  H    0.000000  -0.000001   0.000012   0.000006  -0.000000   0.000002
    32  H   -0.000000   0.000000  -0.000001   0.000008  -0.000000   0.000003
              25         26         27         28         29         30
     1  O   -0.000000  -0.000000   0.000000   0.000000   0.000000  -0.000000
     2  C    0.000000  -0.000000   0.000000  -0.000000   0.000000  -0.000000
     3  C    0.000000   0.000000   0.000001   0.000000  -0.000000   0.000000
     4  C    0.000002  -0.000000   0.000008  -0.000001   0.000000  -0.000000
     5  C   -0.000132  -0.000002  -0.000104  -0.000053   0.000000  -0.000000
     6  C    0.004718   0.000067   0.003730   0.000287   0.000099  -0.000001
     7  C   -0.033138   0.004950  -0.007694   0.002566  -0.001019   0.000004
     8  C    0.375773  -0.031983  -0.037416  -0.004692  -0.002703   0.000009
     9  C   -0.038447   0.379412   0.382295  -0.038599  -0.040912  -0.004989
    10  C   -0.007077  -0.041610  -0.041029   0.387142   0.386887  -0.034683
    11  C    0.000040  -0.004059  -0.002876  -0.038090  -0.038502   0.387324
    12  O    0.000000   0.000000   0.000000   0.000000   0.000000   0.000000
    13  H    0.000000  -0.000000   0.000000  -0.000000  -0.000000  -0.000000
    14  H   -0.000000   0.000000   0.000000  -0.000000   0.000000  -0.000000
    15  H   -0.000000   0.000000  -0.000000   0.000000  -0.000000  -0.000000
    16  H    0.000000   0.000000  -0.000003   0.000000  -0.000000  -0.000000
    17  H   -0.000000   0.000000  -0.000000  -0.000000  -0.000000  -0.000000
    18  H    0.000003  -0.000000   0.000007   0.000016  -0.000001   0.000000
    19  H   -0.000004   0.000000  -0.000001   0.000001  -0.000000  -0.000000
    20  H    0.000016  -0.000036   0.000497  -0.000019  -0.000002  -0.000000
    21  H   -0.000037  -0.000057   0.001594   0.000929  -0.000022   0.000002
    22  H   -0.003599  -0.000006   0.000064   0.001631   0.000490   0.000000
    23  H   -0.003731  -0.000155  -0.000008  -0.000051  -0.000037   0.000000
    24  H   -0.039254  -0.003811  -0.003647  -0.000044   0.000017  -0.000005
    25  H    0.650221  -0.004402   0.006112  -0.000297   0.005247  -0.000001
    26  H   -0.004402   0.649349  -0.040838   0.006174  -0.005466   0.005197
    27  H    0.006112  -0.040838   0.644764  -0.006623   0.006183  -0.000491
    28  H   -0.000297   0.006174  -0.006623   0.638730  -0.041725   0.005449
    29  H    0.005247  -0.005466   0.006183  -0.041725   0.641671  -0.005025
    30  H   -0.000001   0.005197  -0.000491   0.005449  -0.005025   0.610662
    31  H    0.000007  -0.000496   0.004643  -0.005104   0.005489  -0.033618
    32  H   -0.000000   0.000006  -0.000046  -0.003071  -0.003096  -0.032602
              31         32
     1  O   -0.000000  -0.000000
     2  C   -0.000000  -0.000000
     3  C   -0.000000  -0.000000
     4  C    0.000000  -0.000000
     5  C    0.000000  -0.000000
     6  C    0.000004  -0.000000
     7  C   -0.000018   0.000003
     8  C    0.000081  -0.000163
     9  C   -0.004752   0.004189
    10  C   -0.034570  -0.027869
    11  C    0.387208   0.379390
    12  O   -0.000000   0.000000
    13  H   -0.000000  -0.000000
    14  H    0.000000  -0.000000
    15  H    0.000000   0.000000
    16  H    0.000000   0.000000
    17  H    0.000000  -0.000000
    18  H   -0.000000  -0.000000
    19  H    0.000000  -0.000000
    20  H   -0.000001   0.000000
    21  H    0.000012  -0.000001
    22  H    0.000006   0.000008
    23  H   -0.000000  -0.000000
    24  H    0.000002   0.000003
    25  H    0.000007  -0.000000
    26  H   -0.000496   0.000006
    27  H    0.004643  -0.000046
    28  H   -0.005104  -0.003071
    29  H    0.005489  -0.003096
    30  H   -0.033618  -0.032602
    31  H    0.611573  -0.032597
    32  H   -0.032597   0.616776
 Mulliken charges:
               1
     1  O   -0.465788
     2  C    0.540541
     3  C   -0.228881
     4  C   -0.191082
     5  C   -0.183015
     6  C   -0.173211
     7  C   -0.178952
     8  C   -0.185084
     9  C   -0.169238
    10  C   -0.173184
    11  C   -0.319654
    12  O   -0.467882
    13  H    0.318459
    14  H    0.127464
    15  H    0.128079
    16  H    0.112634
    17  H    0.103936
    18  H    0.094302
    19  H    0.095072
    20  H    0.091904
    21  H    0.096426
    22  H    0.093296
    23  H    0.088619
    24  H    0.086781
    25  H    0.087979
    26  H    0.087766
    27  H    0.090878
    28  H    0.095443
    29  H    0.092425
    30  H    0.102767
    31  H    0.102128
    32  H    0.099071
 Sum of Mulliken charges =  -0.00000
 Mulliken charges with hydrogens summed into heavy atoms:
               1
     1  O   -0.147329
     2  C    0.540541
     3  C    0.026662
     4  C    0.025488
     5  C    0.006360
     6  C    0.015118
     7  C    0.002963
     8  C   -0.010324
     9  C    0.009406
    10  C    0.014684
    11  C   -0.015687
    12  O   -0.467882
 Electronic spatial extent (au):  <R**2>=           4621.1911
 Charge=              0.0000 electrons
 Dipole moment (field-independent basis, Debye):
    X=              1.6913    Y=              0.7955    Z=              0.2883  Tot=              1.8912
 Quadrupole moment (field-independent basis, Debye-Ang):
   XX=            -88.1630   YY=            -74.5552   ZZ=            -75.3080
   XY=             -7.9773   XZ=             -1.4417   YZ=             -0.2400
 Traceless Quadrupole moment (field-independent basis, Debye-Ang):
   XX=             -8.8210   YY=              4.7869   ZZ=              4.0341
   XY=             -7.9773   XZ=             -1.4417   YZ=             -0.2400
 Octapole moment (field-independent basis, Debye-Ang**2):
  XXX=             40.7710  YYY=             11.0624  ZZZ=             -1.6897  XYY=            -30.1993
  XXY=             50.0293  XXZ=              8.3629  XZZ=            -14.4628  YZZ=              2.8387
  YYZ=             -1.2665  XYZ=              2.3257
 Hexadecapole moment (field-independent basis, Debye-Ang**3):
 XXXX=          -5415.0226 YYYY=           -688.7349 ZZZZ=           -323.6083 XXXY=           -334.7407
 XXXZ=            -48.6416 YYYX=            -76.6786 YYYZ=             -1.1636 ZZZX=             12.8167
 ZZZY=             -1.3966 XXYY=           -858.0901 XXZZ=           -872.1855 YYZZ=           -173.9922
 XXYZ=            -13.5982 YYXZ=              7.3921 ZZXY=             -9.4469
 N-N= 6.947074692379D+02 E-N=-2.652562870496D+03  KE= 5.384941195931D+02
 Calling FoFJK, ICntrl=      2127 FMM=F ISym2X=0 I1Cent= 0 IOpClX= 0 NMat=1 NMatS=1 NMatT=0.
 ***** Axes restored to original set *****
 -------------------------------------------------------------------
 Center     Atomic                   Forces (Hartrees/Bohr)
 Number     Number              X              Y              Z
 -------------------------------------------------------------------
      1        8          -0.008822190   -0.005249637   -0.003932889
      2        6          -0.018464019    0.000888857    0.012998046
      3        6           0.005596917   -0.002510889    0.003974885
      4        6          -0.003402873    0.000255557   -0.001830788
      5        6           0.003353627    0.006296168   -0.006124400
      6        6          -0.004412054   -0.007695984    0.004585140
      7        6           0.002159733    0.006555386   -0.004352893
      8        6           0.006259747   -0.002009148    0.000392989
      9        6          -0.003776610   -0.006718206    0.005050442
     10        6           0.003267852    0.007836883   -0.003847416
     11        6          -0.002561381   -0.001637933    0.004217743
     12        8           0.005663661   -0.005954847   -0.016001564
     13        1           0.013974940    0.006541924    0.005770736
     14        1           0.000459750   -0.000590111   -0.005537880
     15        1           0.000081864   -0.000023828    0.002839171
     16        1           0.001822482    0.001586420   -0.002014513
     17        1           0.000699413    0.001366240    0.003421224
     18        1           0.001455143   -0.003608061   -0.000612510
     19        1          -0.003298470    0.001696642    0.002565226
     20        1          -0.001464075    0.004307168   -0.000194745
     21        1           0.003545127   -0.000484807   -0.002368884
     22        1           0.002437108   -0.003710687   -0.000609283
     23        1          -0.002845656    0.001057635    0.003041214
     24        1          -0.000013808    0.004553752    0.000835052
     25        1          -0.002798959   -0.003494867   -0.000860458
     26        1          -0.002383844    0.000895752   -0.003451395
     27        1           0.004310286    0.001327374    0.001109584
     28        1           0.001677833   -0.001122283    0.003437276
     29        1          -0.004102605   -0.001657873    0.000096125
     30        1          -0.001759994    0.001661393   -0.002193410
     31        1           0.002283986    0.002280117    0.000419120
     32        1           0.001057069   -0.002638106   -0.000820945
 -------------------------------------------------------------------
 Cartesian Forces:  Max     0.018464019 RMS     0.004695204

 GradGradGradGradGradGradGradGradGradGradGradGradGradGradGradGradGradGrad
 Berny optimization.
 FormGI is forming the generalized inverse of G from B-inverse, IUseBI=4.
 Internal  Forces:  Max     0.016954185 RMS     0.002767034
 Search for a local minimum.
 Step number   1 out of a maximum of  179
 All quantities printed in internal units (Hartrees-Bohrs-Radians)
 Mixed Optimization -- RFO/linear search
 Second derivative matrix not updated -- first step.
 ITU=  0
     Eigenvalues ---    0.00230   0.00230   0.00230   0.00230   0.00230
     Eigenvalues ---    0.00230   0.00237   0.00301   0.00440   0.00910
     Eigenvalues ---    0.02345   0.03101   0.03230   0.03232   0.03257
     Eigenvalues ---    0.03300   0.03412   0.03443   0.03885   0.04645
     Eigenvalues ---    0.04680   0.04683   0.04689   0.04696   0.04729
     Eigenvalues ---    0.04752   0.05164   0.05409   0.05466   0.08281
     Eigenvalues ---    0.08301   0.08472   0.08544   0.08579   0.08581
     Eigenvalues ---    0.08839   0.09552   0.12181   0.12189   0.12319
     Eigenvalues ---    0.12373   0.12399   0.12401   0.12577   0.12898
     Eigenvalues ---    0.16000   0.16000   0.16000   0.16000   0.21893
     Eigenvalues ---    0.21896   0.21896   0.21896   0.21902   0.21906
     Eigenvalues ---    0.21929   0.21954   0.24999   0.25000   0.27850
     Eigenvalues ---    0.28190   0.28195   0.28417   0.28452   0.28457
     Eigenvalues ---    0.28519   0.28952   0.29922   0.34504   0.34521
     Eigenvalues ---    0.34625   0.34635   0.34648   0.34652   0.34652
     Eigenvalues ---    0.34656   0.34667   0.34705   0.34706   0.34710
     Eigenvalues ---    0.34713   0.34733   0.34736   0.34740   0.34757
     Eigenvalues ---    0.34789   0.34922   0.54894   0.56014   0.94494
 RFO step:  Lambda=-4.18595398D-03 EMin= 2.30000000D-03
 Linear search not attempted -- first point.
 Iteration  1 RMS(Cart)=  0.06994345 RMS(Int)=  0.00087501
 Iteration  2 RMS(Cart)=  0.00144925 RMS(Int)=  0.00020006
 Iteration  3 RMS(Cart)=  0.00000149 RMS(Int)=  0.00020006
 Iteration  4 RMS(Cart)=  0.00000000 RMS(Int)=  0.00020006
 Variable       Old X    -DE/DX   Delta X   Delta X   Delta X     New X
                                 (Linear)    (Quad)   (Total)
    R1        2.55227   0.00295   0.00000   0.00533   0.00533   2.55760
    R2        1.80942   0.01606   0.00000   0.02846   0.02846   1.83788
    R3        2.88120  -0.00825   0.00000  -0.02718  -0.02718   2.85402
    R4        2.30928  -0.01695   0.00000  -0.01786  -0.01786   2.29142
    R5        2.92468  -0.00661   0.00000  -0.02339  -0.02339   2.90129
    R6        2.05802   0.00434   0.00000   0.01228   0.01228   2.07030
    R7        2.06019   0.00168   0.00000   0.00476   0.00476   2.06495
    R8        2.91236  -0.00377   0.00000  -0.01308  -0.01308   2.89928
    R9        2.06459   0.00241   0.00000   0.00689   0.00689   2.07148
   R10        2.06488   0.00250   0.00000   0.00716   0.00716   2.07204
   R11        2.91161  -0.00451   0.00000  -0.01563  -0.01563   2.89598
   R12        2.06271   0.00381   0.00000   0.01086   0.01086   2.07357
   R13        2.06288   0.00436   0.00000   0.01244   0.01244   2.07532
   R14        2.91150  -0.00496   0.00000  -0.01717  -0.01717   2.89432
   R15        2.06111   0.00452   0.00000   0.01285   0.01285   2.07397
   R16        2.06157   0.00425   0.00000   0.01209   0.01209   2.07366
   R17        2.91714  -0.00459   0.00000  -0.01603  -0.01603   2.90111
   R18        2.06155   0.00418   0.00000   0.01191   0.01191   2.07346
   R19        2.06244   0.00422   0.00000   0.01204   0.01204   2.07448
   R20        2.91724  -0.00440   0.00000  -0.01538  -0.01538   2.90187
   R21        2.06244   0.00441   0.00000   0.01258   0.01258   2.07502
   R22        2.06238   0.00431   0.00000   0.01228   0.01228   2.07466
   R23        2.91017  -0.00471   0.00000  -0.01629  -0.01629   2.89388
   R24        2.06250   0.00421   0.00000   0.01200   0.01200   2.07451
   R25        2.06148   0.00437   0.00000   0.01244   0.01244   2.07392
   R26        2.90103  -0.00188   0.00000  -0.00640  -0.00640   2.89463
   R27        2.06144   0.00392   0.00000   0.01116   0.01116   2.07260
   R28        2.06220   0.00424   0.00000   0.01210   0.01210   2.07429
   R29        2.06099   0.00319   0.00000   0.00907   0.00907   2.07006
   R30        2.06106   0.00319   0.00000   0.00908   0.00908   2.07014
   R31        2.06072   0.00294   0.00000   0.00836   0.00836   2.06908
    A1        1.81872   0.00663   0.00000   0.04037   0.04037   1.85909
    A2        1.96402  -0.00104   0.00000  -0.00383  -0.00481   1.95921
    A3        2.15303  -0.00637   0.00000  -0.02479  -0.02572   2.12731
    A4        2.16609   0.00742   0.00000   0.02940   0.02837   2.19446
    A5        1.97972  -0.00265   0.00000  -0.01744  -0.01762   1.96210
    A6        1.87831   0.00228   0.00000   0.00733   0.00688   1.88518
    A7        1.87026  -0.00010   0.00000  -0.00114  -0.00109   1.86917
    A8        1.94460  -0.00212   0.00000  -0.02379  -0.02388   1.92071
    A9        1.92152   0.00167   0.00000   0.01276   0.01284   1.93435
   A10        1.86425   0.00121   0.00000   0.02554   0.02561   1.88985
   A11        1.98447  -0.00222   0.00000  -0.01347  -0.01348   1.97099
   A12        1.92061  -0.00043   0.00000  -0.01316  -0.01316   1.90745
   A13        1.91191  -0.00104   0.00000  -0.01374  -0.01363   1.89828
   A14        1.90699   0.00127   0.00000   0.00806   0.00781   1.91480
   A15        1.88723   0.00225   0.00000   0.02035   0.02020   1.90743
   A16        1.84735   0.00039   0.00000   0.01457   0.01429   1.86163
   A17        1.99162   0.00048   0.00000   0.00006   0.00005   1.99167
   A18        1.89358  -0.00045   0.00000  -0.00198  -0.00198   1.89160
   A19        1.91177  -0.00004   0.00000  -0.00206  -0.00208   1.90969
   A20        1.90096   0.00007   0.00000   0.00196   0.00197   1.90293
   A21        1.91551  -0.00068   0.00000  -0.00713  -0.00714   1.90837
   A22        1.84447   0.00063   0.00000   0.01008   0.01009   1.85455
   A23        1.96626  -0.00020   0.00000  -0.00128  -0.00128   1.96497
   A24        1.91723   0.00054   0.00000   0.00371   0.00371   1.92093
   A25        1.90392  -0.00048   0.00000  -0.00410  -0.00410   1.89982
   A26        1.90392  -0.00046   0.00000  -0.00411  -0.00411   1.89980
   A27        1.91373   0.00059   0.00000   0.00454   0.00454   1.91827
   A28        1.85552   0.00004   0.00000   0.00144   0.00145   1.85697
   A29        1.99396  -0.00074   0.00000  -0.00599  -0.00603   1.98793
   A30        1.91626  -0.00076   0.00000  -0.01240  -0.01244   1.90382
   A31        1.90109   0.00027   0.00000   0.00309   0.00313   1.90421
   A32        1.91722   0.00061   0.00000   0.00041   0.00029   1.91751
   A33        1.88978   0.00029   0.00000   0.00556   0.00556   1.89534
   A34        1.83884   0.00045   0.00000   0.01109   0.01110   1.84993
   A35        2.02140  -0.00230   0.00000  -0.01429  -0.01435   2.00705
   A36        1.89972   0.00058   0.00000   0.00075   0.00072   1.90044
   A37        1.89854   0.00037   0.00000  -0.00143  -0.00148   1.89707
   A38        1.89840   0.00051   0.00000   0.00059   0.00055   1.89895
   A39        1.89957   0.00066   0.00000   0.00118   0.00112   1.90069
   A40        1.83741   0.00043   0.00000   0.01619   0.01618   1.85359
   A41        1.99394  -0.00011   0.00000  -0.00287  -0.00291   1.99103
   A42        1.88970   0.00015   0.00000   0.00511   0.00511   1.89481
   A43        1.91819   0.00040   0.00000  -0.00025  -0.00034   1.91786
   A44        1.90079   0.00003   0.00000   0.00177   0.00179   1.90258
   A45        1.91600  -0.00093   0.00000  -0.01279  -0.01282   1.90319
   A46        1.83848   0.00054   0.00000   0.01049   0.01049   1.84897
   A47        1.96578   0.00017   0.00000   0.00067   0.00068   1.96646
   A48        1.91890  -0.00034   0.00000  -0.00341  -0.00342   1.91549
   A49        1.91489  -0.00094   0.00000  -0.01051  -0.01051   1.90438
   A50        1.89963   0.00034   0.00000   0.00602   0.00602   1.90565
   A51        1.90701   0.00069   0.00000   0.00646   0.00645   1.91346
   A52        1.85421   0.00010   0.00000   0.00095   0.00089   1.85509
   A53        1.94393  -0.00066   0.00000  -0.00515  -0.00517   1.93876
   A54        1.94307  -0.00060   0.00000  -0.00500  -0.00502   1.93805
   A55        1.93698   0.00085   0.00000   0.00768   0.00769   1.94467
   A56        1.88210   0.00013   0.00000  -0.00384  -0.00389   1.87821
   A57        1.87729   0.00019   0.00000   0.00369   0.00369   1.88099
   A58        1.87747   0.00011   0.00000   0.00287   0.00287   1.88035
    D1        3.13738   0.00084   0.00000   0.04999   0.04888  -3.09693
    D2        0.00623  -0.00030   0.00000  -0.03028  -0.02917  -0.02294
    D3        1.16050  -0.00173   0.00000  -0.07150  -0.07189   1.08861
    D4       -0.99888   0.00108   0.00000  -0.03472  -0.03499  -1.03387
    D5       -2.99837  -0.00137   0.00000  -0.06723  -0.06757  -3.06595
    D6       -1.99162  -0.00068   0.00000   0.00909   0.00936  -1.98226
    D7        2.13218   0.00213   0.00000   0.04586   0.04626   2.17844
    D8        0.13269  -0.00032   0.00000   0.01335   0.01368   0.14637
    D9        3.01058   0.00038   0.00000   0.03480   0.03464   3.04521
   D10       -1.12701   0.00013   0.00000   0.02565   0.02555  -1.10146
   D11        0.89706  -0.00025   0.00000   0.02777   0.02759   0.92466
   D12       -1.14988  -0.00014   0.00000   0.01387   0.01401  -1.13586
   D13        0.99572  -0.00040   0.00000   0.00472   0.00492   1.00064
   D14        3.01979  -0.00078   0.00000   0.00684   0.00697   3.02676
   D15        0.91515   0.00111   0.00000   0.03892   0.03889   0.95404
   D16        3.06074   0.00086   0.00000   0.02977   0.02980   3.09054
   D17       -1.19837   0.00048   0.00000   0.03189   0.03185  -1.16652
   D18        1.14059  -0.00031   0.00000  -0.02075  -0.02073   1.11986
   D19       -3.01998  -0.00022   0.00000  -0.01964  -0.01962  -3.03961
   D20       -1.01455   0.00026   0.00000  -0.00986  -0.00984  -1.02439
   D21       -1.01245   0.00086   0.00000  -0.00018  -0.00008  -1.01253
   D22        1.11016   0.00094   0.00000   0.00093   0.00103   1.11119
   D23        3.11559   0.00142   0.00000   0.01071   0.01082   3.12641
   D24       -3.01533  -0.00147   0.00000  -0.03249  -0.03261  -3.04794
   D25       -0.89272  -0.00139   0.00000  -0.03138  -0.03150  -0.92423
   D26        1.11271  -0.00090   0.00000  -0.02159  -0.02172   1.09099
   D27        3.07524   0.00022   0.00000   0.00455   0.00455   3.07979
   D28       -1.08159  -0.00013   0.00000   0.00106   0.00105  -1.08054
   D29        0.94582  -0.00006   0.00000   0.00253   0.00252   0.94834
   D30        0.95671   0.00042   0.00000   0.00562   0.00562   0.96233
   D31        3.08306   0.00007   0.00000   0.00213   0.00212   3.08519
   D32       -1.17271   0.00015   0.00000   0.00360   0.00360  -1.16911
   D33       -1.05482  -0.00001   0.00000  -0.00361  -0.00360  -1.05843
   D34        1.07153  -0.00036   0.00000  -0.00711  -0.00710   1.06443
   D35        3.09894  -0.00028   0.00000  -0.00564  -0.00563   3.09331
   D36        3.06936   0.00033   0.00000   0.00913   0.00910   3.07846
   D37       -1.05124  -0.00001   0.00000  -0.00447  -0.00443  -1.05567
   D38        0.95404   0.00026   0.00000   0.00374   0.00373   0.95778
   D39        0.93549   0.00011   0.00000   0.00820   0.00816   0.94365
   D40        3.09807  -0.00023   0.00000  -0.00540  -0.00537   3.09270
   D41       -1.17983   0.00004   0.00000   0.00280   0.00279  -1.17703
   D42       -1.08996  -0.00000   0.00000   0.00625   0.00622  -1.08374
   D43        1.07263  -0.00034   0.00000  -0.00735  -0.00731   1.06532
   D44        3.07791  -0.00008   0.00000   0.00086   0.00085   3.07876
   D45        1.06440  -0.00049   0.00000  -0.02268  -0.02269   1.04171
   D46       -1.08021   0.00003   0.00000  -0.01378  -0.01379  -1.09400
   D47       -3.07357  -0.00097   0.00000  -0.03253  -0.03251  -3.10608
   D48       -1.09767   0.00059   0.00000  -0.00220  -0.00220  -1.09986
   D49        3.04090   0.00111   0.00000   0.00670   0.00671   3.04761
   D50        1.04755   0.00010   0.00000  -0.01204  -0.01202   1.03553
   D51       -3.09723  -0.00043   0.00000  -0.01863  -0.01865  -3.11588
   D52        1.04134   0.00010   0.00000  -0.00972  -0.00974   1.03160
   D53       -0.95202  -0.00091   0.00000  -0.02847  -0.02847  -0.98049
   D54        1.06630  -0.00050   0.00000  -0.02234  -0.02235   1.04395
   D55       -3.09579  -0.00043   0.00000  -0.01824  -0.01825  -3.11404
   D56       -1.09619   0.00050   0.00000  -0.00311  -0.00310  -1.09929
   D57       -3.07158  -0.00098   0.00000  -0.03114  -0.03114  -3.10272
   D58       -0.95048  -0.00091   0.00000  -0.02704  -0.02705  -0.97753
   D59        1.04912   0.00002   0.00000  -0.01191  -0.01190   1.03722
   D60       -1.07837   0.00014   0.00000  -0.01111  -0.01111  -1.08949
   D61        1.04272   0.00021   0.00000  -0.00701  -0.00702   1.03571
   D62        3.04233   0.00114   0.00000   0.00812   0.00813   3.05046
   D63        3.07193   0.00017   0.00000   0.00787   0.00785   3.07978
   D64       -1.08951   0.00047   0.00000   0.01361   0.01357  -1.07594
   D65        0.94361  -0.00015   0.00000   0.00665   0.00663   0.95025
   D66        0.95696   0.00003   0.00000   0.00192   0.00192   0.95888
   D67        3.07870   0.00034   0.00000   0.00766   0.00764   3.08634
   D68       -1.17136  -0.00029   0.00000   0.00070   0.00070  -1.17066
   D69       -1.04760  -0.00012   0.00000  -0.00462  -0.00459  -1.05219
   D70        1.07415   0.00019   0.00000   0.00112   0.00113   1.07528
   D71        3.10727  -0.00044   0.00000  -0.00585  -0.00581   3.10146
   D72       -1.05338   0.00053   0.00000   0.00874   0.00873  -1.04466
   D73        1.04794  -0.00016   0.00000  -0.00308  -0.00306   1.04488
   D74        3.13870   0.00015   0.00000   0.00235   0.00236   3.14106
   D75        3.09715   0.00060   0.00000   0.00836   0.00836   3.10551
   D76       -1.08471  -0.00009   0.00000  -0.00346  -0.00343  -1.08814
   D77        1.00605   0.00023   0.00000   0.00198   0.00199   1.00804
   D78        1.07939  -0.00007   0.00000   0.00038   0.00035   1.07974
   D79       -3.10248  -0.00076   0.00000  -0.01144  -0.01144  -3.11391
   D80       -1.01172  -0.00045   0.00000  -0.00600  -0.00601  -1.01773
         Item               Value     Threshold  Converged?
 Maximum Force            0.016954     0.000450     NO 
 RMS     Force            0.002767     0.000300     NO 
 Maximum Displacement     0.274447     0.001800     NO 
 RMS     Displacement     0.070471     0.001200     NO 
 Predicted change in Energy=-2.194426D-03
 GradGradGradGradGradGradGradGradGradGradGradGradGradGradGradGradGradGrad

                          Input orientation:                          
 ---------------------------------------------------------------------
 Center     Atomic      Atomic             Coordinates (Angstroms)
 Number     Number       Type             X           Y           Z
 ---------------------------------------------------------------------
      1          8           0        6.102995   -0.290348   -0.591282
      2          6           0        5.038637   -0.191285    0.238827
      3          6           0        3.802919   -0.842675   -0.335315
      4          6           0        3.984295   -2.351418   -0.554248
      5          6           0        2.695596   -3.048547   -1.009363
      6          6           0        2.184799   -2.588142   -2.378898
      7          6           0        0.947787   -3.366271   -2.837318
      8          6           0        0.358190   -2.870808   -4.165376
      9          6           0        1.314528   -2.937671   -5.364966
     10          6           0        1.819209   -4.347907   -5.683782
     11          6           0        2.700388   -4.390561   -6.935991
     12          8           0        5.130290    0.304890    1.341427
     13          1           0        6.854840    0.115378   -0.126531
     14          1           0        3.571147   -0.350370   -1.286188
     15          1           0        2.983655   -0.646752    0.360725
     16          1           0        4.775599   -2.517352   -1.294458
     17          1           0        4.329883   -2.804695    0.382431
     18          1           0        2.879821   -4.129788   -1.041208
     19          1           0        1.910817   -2.892392   -0.257160
     20          1           0        1.940176   -1.518663   -2.349391
     21          1           0        2.991209   -2.701266   -3.114456
     22          1           0        1.202510   -4.430582   -2.916467
     23          1           0        0.172741   -3.297535   -2.062932
     24          1           0        0.020490   -1.833596   -4.039387
     25          1           0       -0.539834   -3.459832   -4.393204
     26          1           0        0.798519   -2.534816   -6.246197
     27          1           0        2.175723   -2.279495   -5.192937
     28          1           0        2.385913   -4.740393   -4.830723
     29          1           0        0.958599   -5.016403   -5.815469
     30          1           0        2.151523   -4.038574   -7.816227
     31          1           0        3.582546   -3.751843   -6.818123
     32          1           0        3.049988   -5.406986   -7.144515
 ---------------------------------------------------------------------
                    Distance matrix (angstroms):
                    1          2          3          4          5
     1  O    0.000000
     2  C    1.353422   0.000000
     3  C    2.379271   1.510281   0.000000
     4  C    2.956056   2.531162   1.535296   0.000000
     5  C    4.403727   3.900226   2.558588   1.534230   0.000000
     6  C    4.881361   4.554317   3.137068   2.573630   1.532486
     7  C    6.409535   6.023143   4.558545   3.932266   2.548961
     8  C    7.241250   6.963004   5.536140   5.143797   3.931345
     9  C    7.261253   7.267333   5.989865   5.533024   4.570659
[...]
 Alpha virt. eigenvalues --    4.08364   4.11329   4.12835   4.16441   4.18036
 Alpha virt. eigenvalues --    4.21657   4.26209   4.28771   4.30711   4.32089
 Alpha virt. eigenvalues --    4.36068   4.36527   4.39744   4.42250   4.43928
 Alpha virt. eigenvalues --    4.47746   4.49995   4.51240   4.52961   4.54330
 Alpha virt. eigenvalues --    4.56621   4.58006   4.60520   4.61848   4.62923
 Alpha virt. eigenvalues --    4.64720   4.65315   4.67929   4.70179   4.70742
 Alpha virt. eigenvalues --    4.74815   4.79104   4.81535   4.85726   4.88247
 Alpha virt. eigenvalues --    5.00546   5.06035   5.13995   5.17680   5.20515
 Alpha virt. eigenvalues --    5.22683   5.38945   5.40463   5.50866   5.59678
 Alpha virt. eigenvalues --    5.73546   5.85042   5.86730   6.15790   6.19251
 Alpha virt. eigenvalues --    6.32355   6.33837   6.45031   6.48108   6.64600
 Alpha virt. eigenvalues --    6.68898   6.73922   6.81211   6.88703   7.07115
 Alpha virt. eigenvalues --    7.08108   7.27749  22.41061  22.46607  22.49761
 Alpha virt. eigenvalues --   22.54790  22.57868  22.58788  22.60822  22.64455
 Alpha virt. eigenvalues --   22.65985  23.27957  43.91410  43.98292
          Condensed to atoms (all electrons):
               1          2          3          4          5          6
     1  O    7.971896   0.360439  -0.133434   0.004189  -0.000899   0.000155
     2  C    0.360439   4.439089   0.282119  -0.010791  -0.003805   0.001800
     3  C   -0.133434   0.282119   5.368118   0.153936  -0.028762   0.017909
     4  C    0.004189  -0.010791   0.153936   5.265001   0.224932  -0.046649
     5  C   -0.000899  -0.003805  -0.028762   0.224932   5.241715   0.161095
     6  C    0.000155   0.001800   0.017909  -0.046649   0.161095   5.462692
     7  C   -0.000005  -0.000144   0.000369   0.006777  -0.027586   0.141098
     8  C    0.000000  -0.000003   0.000124  -0.001440   0.010795  -0.048212
     9  C   -0.000000   0.000005   0.000093   0.000284  -0.002415   0.039521
    10  C    0.000000  -0.000001  -0.000029   0.000039   0.000440  -0.014543
    11  C   -0.000000   0.000000   0.000000  -0.000002  -0.000032   0.000491
    12  O   -0.093606   0.682506  -0.097994   0.001504  -0.001557   0.000145
    13  H    0.288376  -0.025192   0.018791  -0.000731   0.000159  -0.000023
    14  H    0.005371  -0.010232   0.389655  -0.040424  -0.016883   0.007046
    15  H    0.004749  -0.035552   0.412991  -0.034961   0.001559  -0.002888
    16  H    0.005178  -0.004357  -0.053671   0.436087  -0.031138  -0.012425
    17  H   -0.000436   0.001924  -0.045474   0.431413  -0.051820   0.011060
    18  H    0.000024  -0.000222   0.009124  -0.051751   0.437788  -0.041245
    19  H   -0.000032   0.000092  -0.010773  -0.029803   0.445138  -0.071083
    20  H   -0.000049   0.000002   0.003579  -0.012362  -0.035049   0.420243
    21  H   -0.000025   0.000055  -0.005283   0.011108  -0.049591   0.419737
    22  H    0.000000   0.000000  -0.000089  -0.000537  -0.002889  -0.071676
    23  H    0.000000   0.000009   0.000048   0.000524  -0.006707  -0.035722
    24  H    0.000000  -0.000000  -0.000052   0.000069  -0.000235  -0.009217
    25  H   -0.000000   0.000000   0.000003   0.000020  -0.000677   0.013129
    26  H   -0.000000  -0.000000   0.000001  -0.000004   0.000076  -0.001396
    27  H    0.000000   0.000002   0.000051  -0.000098   0.000529   0.004031
    28  H   -0.000000  -0.000000   0.000007  -0.000034   0.000455  -0.005299
    29  H   -0.000000   0.000000   0.000001  -0.000004   0.000007   0.000850
    30  H   -0.000000  -0.000000  -0.000000   0.000000   0.000001   0.000011
    31  H   -0.000000  -0.000000   0.000000  -0.000002  -0.000002  -0.000026
    32  H    0.000000  -0.000000  -0.000000   0.000000  -0.000001  -0.000010
               7          8          9         10         11         12
     1  O   -0.000005   0.000000  -0.000000   0.000000  -0.000000  -0.093606
     2  C   -0.000144  -0.000003   0.000005  -0.000001   0.000000   0.682506
     3  C    0.000369   0.000124   0.000093  -0.000029   0.000000  -0.097994
     4  C    0.006777  -0.001440   0.000284   0.000039  -0.000002   0.001504
     5  C   -0.027586   0.010795  -0.002415   0.000440  -0.000032  -0.001557
     6  C    0.141098  -0.048212   0.039521  -0.014543   0.000491   0.000145
     7  C    5.338596   0.214160  -0.082152   0.034576  -0.001862  -0.000002
     8  C    0.214160   5.195659   0.225113  -0.051789   0.011443   0.000000
     9  C   -0.082152   0.225113   5.314785   0.214128  -0.054557   0.000000
    10  C    0.034576  -0.051789   0.214128   5.196855   0.265608  -0.000000
    11  C   -0.001862   0.011443  -0.054557   0.265608   5.026710  -0.000000
    12  O   -0.000002   0.000000   0.000000  -0.000000  -0.000000   7.821600
    13  H    0.000000  -0.000000  -0.000000   0.000000   0.000000   0.006618
    14  H    0.000220  -0.000061   0.000098  -0.000012  -0.000000   0.002604
    15  H   -0.000233   0.000025  -0.000006   0.000000  -0.000000   0.006935
    16  H   -0.000227   0.000063  -0.000103   0.000031   0.000000   0.000186
    17  H   -0.000419   0.000011   0.000006  -0.000002   0.000000   0.002262
    18  H   -0.003207   0.000273   0.000130  -0.000052  -0.000007   0.000004
    19  H   -0.003522  -0.000633  -0.000102   0.000023   0.000000   0.000009
    20  H   -0.042904   0.008838  -0.005954   0.000601  -0.000016  -0.000020
    21  H   -0.034630  -0.014806   0.007570  -0.001547   0.000024  -0.000003
    22  H    0.445354  -0.029761  -0.010823  -0.001527   0.000415  -0.000000
    23  H    0.431246  -0.047102   0.010569  -0.000476   0.000047   0.000000
    24  H   -0.036049   0.441333  -0.064691   0.010104  -0.000601  -0.000000
    25  H   -0.072083   0.447287  -0.037212  -0.007263  -0.000247   0.000000
    26  H    0.013277  -0.048631   0.429902  -0.038825  -0.005168   0.000000
    27  H   -0.018004  -0.027687   0.427322  -0.058708  -0.002071   0.000000
    28  H    0.016125  -0.018585  -0.039636   0.418683  -0.037128   0.000000
    29  H   -0.007986   0.010928  -0.058781   0.422873  -0.034584   0.000000
    30  H    0.000056  -0.000722  -0.006144  -0.045270   0.420147  -0.000000
    31  H   -0.000041   0.000281  -0.006980  -0.039850   0.413325   0.000000
    32  H    0.000117  -0.000770   0.012361  -0.051026   0.422338   0.000000
              13         14         15         16         17         18
     1  O    0.288376   0.005371   0.004749   0.005178  -0.000436   0.000024
     2  C   -0.025192  -0.010232  -0.035552  -0.004357   0.001924  -0.000222
     3  C    0.018791   0.389655   0.412991  -0.053671  -0.045474   0.009124
     4  C   -0.000731  -0.040424  -0.034961   0.436087   0.431413  -0.051751
     5  C    0.000159  -0.016883   0.001559  -0.031138  -0.051820   0.437788
     6  C   -0.000023   0.007046  -0.002888  -0.012425   0.011060  -0.041245
     7  C    0.000000   0.000220  -0.000233  -0.000227  -0.000419  -0.003207
     8  C   -0.000000  -0.000061   0.000025   0.000063   0.000011   0.000273
     9  C   -0.000000   0.000098  -0.000006  -0.000103   0.000006   0.000130
    10  C    0.000000  -0.000012   0.000000   0.000031  -0.000002  -0.000052
    11  C    0.000000  -0.000000  -0.000000   0.000000   0.000000  -0.000007
    12  O    0.006618   0.002604   0.006935   0.000186   0.002262   0.000004
    13  H    0.377775  -0.000786  -0.000692  -0.000287  -0.000270  -0.000003
    14  H   -0.000786   0.516146  -0.017318   0.000380   0.005271  -0.000523
    15  H   -0.000692  -0.017318   0.497795   0.004338  -0.000267   0.000376
    16  H   -0.000287   0.000380   0.004338   0.496350  -0.015591  -0.001878
    17  H   -0.000270   0.005271  -0.000267  -0.015591   0.515045  -0.007815
    18  H   -0.000003  -0.000523   0.000376  -0.001878  -0.007815   0.525162
    19  H    0.000002   0.001615   0.000620   0.004844  -0.001573  -0.019635
    20  H    0.000007  -0.006957   0.000666   0.001552  -0.000641   0.004914
    21  H    0.000001   0.000796   0.000100   0.000505   0.000365  -0.002328
    22  H    0.000000  -0.000034   0.000009   0.000145  -0.000044   0.001662
    23  H   -0.000000   0.000047  -0.000002  -0.000039   0.000014   0.000792
    24  H   -0.000000   0.000014   0.000002   0.000001  -0.000000  -0.000015
    25  H    0.000000   0.000001  -0.000000  -0.000000  -0.000000  -0.000003
    26  H   -0.000000   0.000001   0.000000  -0.000000   0.000000  -0.000001
    27  H   -0.000000   0.000004   0.000001   0.000029  -0.000001   0.000001
    28  H   -0.000000   0.000003  -0.000000  -0.000005   0.000001   0.000198
    29  H   -0.000000   0.000000   0.000000   0.000000  -0.000000   0.000002
    30  H    0.000000   0.000000  -0.000000  -0.000000   0.000000   0.000000
    31  H   -0.000000  -0.000000   0.000000   0.000002  -0.000000  -0.000001
    32  H   -0.000000  -0.000000   0.000000  -0.000000  -0.000000   0.000000
              19         20         21         22         23         24
     1  O   -0.000032  -0.000049  -0.000025   0.000000   0.000000   0.000000
     2  C    0.000092   0.000002   0.000055   0.000000   0.000009  -0.000000
     3  C   -0.010773   0.003579  -0.005283  -0.000089   0.000048  -0.000052
     4  C   -0.029803  -0.012362   0.011108  -0.000537   0.000524   0.000069
     5  C    0.445138  -0.035049  -0.049591  -0.002889  -0.006707  -0.000235
     6  C   -0.071083   0.420243   0.419737  -0.071676  -0.035722  -0.009217
     7  C   -0.003522  -0.042904  -0.034630   0.445354   0.431246  -0.036049
     8  C   -0.000633   0.008838  -0.014806  -0.029761  -0.047102   0.441333
     9  C   -0.000102  -0.005954   0.007570  -0.010823   0.010569  -0.064691
    10  C    0.000023   0.000601  -0.001547  -0.001527  -0.000476   0.010104
    11  C    0.000000  -0.000016   0.000024   0.000415   0.000047  -0.000601
    12  O    0.000009  -0.000020  -0.000003  -0.000000   0.000000  -0.000000
    13  H    0.000002   0.000007   0.000001   0.000000  -0.000000  -0.000000
    14  H    0.001615  -0.006957   0.000796  -0.000034   0.000047   0.000014
    15  H    0.000620   0.000666   0.000100   0.000009  -0.000002   0.000002
    16  H    0.004844   0.001552   0.000505   0.000145  -0.000039   0.000001
    17  H   -0.001573  -0.000641   0.000365  -0.000044   0.000014  -0.000000
    18  H   -0.019635   0.004914  -0.002328   0.001662   0.000792  -0.000015
    19  H    0.521640  -0.001773   0.006682   0.000683   0.001578   0.000136
    20  H   -0.001773   0.537415  -0.029167   0.006597  -0.002641   0.001382
    21  H    0.006682  -0.029167   0.540963  -0.002971   0.005014   0.001332
    22  H    0.000683   0.006597  -0.002971   0.526925  -0.021433   0.005475
    23  H    0.001578  -0.002641   0.005014  -0.021433   0.526436  -0.003789
    24  H    0.000136   0.001382   0.001332   0.005475  -0.003789   0.534453
    25  H   -0.000038   0.000144  -0.000624  -0.001333  -0.006595  -0.017841
    26  H    0.000002  -0.000235   0.000730  -0.000890  -0.000026  -0.007217
    27  H   -0.000048   0.001314  -0.010453   0.002261  -0.000858  -0.001682
    28  H    0.000006  -0.000050   0.002097  -0.010791   0.000718  -0.000680
    29  H   -0.000002   0.000013  -0.000210   0.002229  -0.000317   0.000142
    30  H    0.000000  -0.000003   0.000023  -0.000063   0.000003  -0.000031
    31  H    0.000000   0.000007   0.000054   0.000045  -0.000004   0.000009
    32  H    0.000000   0.000001   0.000002   0.000003  -0.000002   0.000017
              25         26         27         28         29         30
     1  O   -0.000000  -0.000000   0.000000  -0.000000  -0.000000  -0.000000
     2  C    0.000000  -0.000000   0.000002  -0.000000   0.000000  -0.000000
     3  C    0.000003   0.000001   0.000051   0.000007   0.000001  -0.000000
     4  C    0.000020  -0.000004  -0.000098  -0.000034  -0.000004   0.000000
     5  C   -0.000677   0.000076   0.000529   0.000455   0.000007   0.000001
     6  C    0.013129  -0.001396   0.004031  -0.005299   0.000850   0.000011
     7  C   -0.072083   0.013277  -0.018004   0.016125  -0.007986   0.000056
     8  C    0.447287  -0.048631  -0.027687  -0.018585   0.010928  -0.000722
     9  C   -0.037212   0.429902   0.427322  -0.039636  -0.058781  -0.006144
    10  C   -0.007263  -0.038825  -0.058708   0.418683   0.422873  -0.045270
    11  C   -0.000247  -0.005168  -0.002071  -0.037128  -0.034584   0.420147
    12  O    0.000000   0.000000   0.000000   0.000000   0.000000  -0.000000
    13  H    0.000000  -0.000000  -0.000000  -0.000000  -0.000000   0.000000
    14  H    0.000001   0.000001   0.000004   0.000003   0.000000   0.000000
    15  H   -0.000000   0.000000   0.000001  -0.000000   0.000000  -0.000000
    16  H   -0.000000  -0.000000   0.000029  -0.000005   0.000000  -0.000000
    17  H   -0.000000   0.000000  -0.000001   0.000001  -0.000000   0.000000
    18  H   -0.000003  -0.000001   0.000001   0.000198   0.000002   0.000000
    19  H   -0.000038   0.000002  -0.000048   0.000006  -0.000002   0.000000
    20  H    0.000144  -0.000235   0.001314  -0.000050   0.000013  -0.000003
    21  H   -0.000624   0.000730  -0.010453   0.002097  -0.000210   0.000023
    22  H   -0.001333  -0.000890   0.002261  -0.010791   0.002229  -0.000063
    23  H   -0.006595  -0.000026  -0.000858   0.000718  -0.000317   0.000003
    24  H   -0.017841  -0.007217  -0.001682  -0.000680   0.000142  -0.000031
    25  H    0.528872  -0.003800   0.005596   0.001237   0.001066   0.000105
    26  H   -0.003800   0.533916  -0.023605   0.006388  -0.003280   0.002905
    27  H    0.005596  -0.023605   0.542086  -0.004118   0.007535  -0.000034
    28  H    0.001237   0.006388  -0.004118   0.574676  -0.033414   0.008079
    29  H    0.001066  -0.003280   0.007535  -0.033414   0.559987  -0.006279
    30  H    0.000105   0.002905  -0.000034   0.008079  -0.006279   0.546544
    31  H   -0.000024   0.000343   0.003020  -0.006247   0.007624  -0.031934
    32  H    0.000019  -0.000073  -0.000233  -0.004473  -0.004601  -0.024648
              31         32
     1  O   -0.000000   0.000000
     2  C   -0.000000  -0.000000
     3  C    0.000000  -0.000000
     4  C   -0.000002   0.000000
     5  C   -0.000002  -0.000001
     6  C   -0.000026  -0.000010
     7  C   -0.000041   0.000117
     8  C    0.000281  -0.000770
     9  C   -0.006980   0.012361
    10  C   -0.039850  -0.051026
    11  C    0.413325   0.422338
    12  O    0.000000   0.000000
    13  H   -0.000000  -0.000000
    14  H   -0.000000  -0.000000
    15  H    0.000000   0.000000
    16  H    0.000002  -0.000000
    17  H   -0.000000  -0.000000
    18  H   -0.000001   0.000000
    19  H    0.000000   0.000000
    20  H    0.000007   0.000001
    21  H    0.000054   0.000002
    22  H    0.000045   0.000003
    23  H   -0.000004  -0.000002
    24  H    0.000009   0.000017
    25  H   -0.000024   0.000019
    26  H    0.000343  -0.000073
    27  H    0.003020  -0.000233
    28  H   -0.006247  -0.004473
    29  H    0.007624  -0.004601
    30  H   -0.031934  -0.024648
    31  H    0.549207  -0.024907
    32  H   -0.024907   0.534059
 Mulliken charges:
               1
     1  O   -0.411893
     2  C    0.322258
     3  C   -0.281356
     4  C   -0.306291
     5  C   -0.264640
     6  C   -0.340597
     7  C   -0.310918
     8  C   -0.276133
     9  C   -0.312330
    10  C   -0.253042
    11  C   -0.424273
    12  O   -0.331192
    13  H    0.336254
    14  H    0.163958
    15  H    0.161753
    16  H    0.170031
    17  H    0.156981
    18  H    0.148236
    19  H    0.155946
    20  H    0.150549
    21  H    0.154482
    22  H    0.163057
    23  H    0.148666
    24  H    0.147631
    25  H    0.150265
    26  H    0.145611
    27  H    0.153815
    28  H    0.131786
    29  H    0.136201
    30  H    0.137253
    31  H    0.136101
    32  H    0.141827
 Sum of Mulliken charges =  -0.00000
 Mulliken charges with hydrogens summed into heavy atoms:
               1
     1  O   -0.075638
     2  C    0.322258
     3  C    0.044355
     4  C    0.020721
     5  C    0.039542
     6  C   -0.035566
     7  C    0.000806
     8  C    0.021763
     9  C   -0.012903
    10  C    0.014946
    11  C   -0.009092
    12  O   -0.331192
 Electronic spatial extent (au):  <R**2>=           4451.4559
 Charge=              0.0000 electrons
 Dipole moment (field-independent basis, Debye):
    X=              2.0224    Y=              0.5141    Z=              0.4044  Tot=              2.1255
 Quadrupole moment (field-independent basis, Debye-Ang):
   XX=            -91.6258   YY=            -75.4456   ZZ=            -76.9108
   XY=             -6.9105   XZ=             -2.2533   YZ=              0.0731
 Traceless Quadrupole moment (field-independent basis, Debye-Ang):
   XX=            -10.2984   YY=              5.8818   ZZ=              4.4166
   XY=             -6.9105   XZ=             -2.2533   YZ=              0.0731
 Octapole moment (field-independent basis, Debye-Ang**2):
  XXX=             61.7470  YYY=             12.0033  ZZZ=             -1.0663  XYY=            -32.9583
  XXY=             42.2895  XXZ=             13.1096  XZZ=            -12.6461  YZZ=              2.6229
  YYZ=             -1.0794  XYZ=              1.8777
 Hexadecapole moment (field-independent basis, Debye-Ang**3):
 XXXX=          -5350.9245 YYYY=           -746.9872 ZZZZ=           -333.2378 XXXY=           -288.2815
 XXXZ=            -77.6230 YYYX=            -88.8516 YYYZ=              1.6858 ZZZX=             11.3355
 ZZZY=             -0.0698 XXYY=           -836.5616 XXZZ=           -853.6341 YYZZ=           -187.1111
 XXYZ=             -6.6942 YYXZ=              6.2704 ZZXY=             -7.8930
 N-N= 7.004834018068D+02 E-N=-2.665679326546D+03  KE= 5.405757565109D+02
 Unable to Open any file for archive entry.
 1\1\GINC-NOTCH075\SP\RM062X\def2TZVP\C10H20O2\U6032257\03-Feb-2022\0\\
 # M062X/def2tzvp int=(grid=ultrafine) nmr=giao guess=read geom=check\\
 Ac1.xyz\\0,1\O,0,6.1071385695,-0.3431436653,-0.6783522674\C,0,5.075083
 278,-0.2164177522,0.1970027491\C,0,3.8123908026,-0.8454055638,-0.33772
 4718\C,0,3.9526063722,-2.3676406727,-0.5261253583\C,0,2.653605089,-3.0
 419375409,-0.9833250473\C,0,2.161788765,-2.5993491053,-2.3650954466\C,
 0,0.9289249481,-3.3796695051,-2.8314195993\C,0,0.3419348129,-2.8925161
 473,-4.164383488\C,0,1.3055338544,-2.9348474374,-5.3595580706\C,0,1.86
 07401838,-4.327377771,-5.6754227142\C,0,2.7408442011,-4.3425302339,-6.
 9269495998\O,0,5.2029027833,0.3298926764,1.2701700451\H,0,6.8735312416
 ,0.0694598622,-0.2457971521\H,0,3.5760628985,-0.3717364724,-1.29644682
 28\H,0,3.0101686735,-0.614183578,0.3670737896\H,0,4.7499359068,-2.5640
 559976,-1.2515414506\H,0,4.2746665496,-2.811450564,0.4234099718\H,0,2.
 8130543056,-4.1279536021,-0.9958387913\H,0,1.8656483088,-2.8594170387,
 -0.2396981709\H,0,1.9212115428,-1.5279524636,-2.3559739965\H,0,2.97825
 2076,-2.7221244415,-3.0887255586\H,0,1.1835081653,-4.4449544064,-2.901
 9592303\H,0,0.1508319075,-3.309176915,-2.0600022425\H,0,-0.0178215311,
 -1.8627893585,-4.0375532258\H,0,-0.5431921696,-3.4977454033,-4.4006857
 259\H,0,0.7805001528,-2.5530731506,-6.245127669\H,0,2.1424221151,-2.24
 47642007,-5.1896450123\H,0,2.4410947862,-4.6981835721,-4.8214877103\H,
 0,1.0251137421,-5.0291129055,-5.8020625225\H,0,2.1788948616,-4.0140251
 07,-7.8083732559\H,0,3.5973136407,-3.6683674841,-6.8133519427\H,0,3.13
 08091659,-5.3441504828,-7.1337297661\\Version=ES64L-G16RevC.01\State=1
 -A\HF=-543.5418381\RMSD=2.487e-09\Dipole=-0.1486847,-0.4730247,-0.6733
 804\Quadrupole=6.1279946,0.3031315,-6.4311261,-0.4864243,-1.7997962,-5
 .5220147\PG=C01 [X(C10H20O2)]\\@
 The archive entry for this job was punched.


    THE DOUGHNUT CREED
 AS YOU RAMBLE ON THROUGH LIFE, BROTHER
 WHATEVER BE YOUR GOAL
 KEEP YOUR EYE UPON THE DOUGHNUT
 AND NOT UPON THE HOLE.
 Job cpu time:       0 days  0 hours 36 minutes  1.2 seconds.
 Elapsed time:       0 days  0 hours  1 minutes 18.3 seconds.
 File lengths (MBytes):  RWF=    140 Int=      0 D2E=      0 Chk=     24 Scr=      1
 Normal termination of Gaussian 16 at Thu Feb  3 08:56:30 2022.
