 Entering Gaussian System, Link 0=/uufs/chpc.utah.edu/sys/installdir/gaussian16/C01/AVX2/g16/g16
 Input=Ac1_clust-43.com
 Output=Ac1_clust-43.log
 Initial command:
 /uufs/chpc.utah.edu/sys/installdir/gaussian16/C01/AVX2/g16/l1.exe "/scratch/general/lustre/u6032257/3867909/notchpeak.peaks/Gau-123156.inp" -scrdir="/scratch/general/lustre/u6032257/3867909/notchpeak.peaks/"
 Entering Link 1 = /uufs/chpc.utah.edu/sys/installdir/gaussian16/C01/AVX2/g16/l1.exe PID=    123158.
  
 Copyright (c) 1988-2019, Gaussian, Inc.  All Rights Reserved.
  
 This is part of the Gaussian(R) 16 program.  It is based on
 the Gaussian(R) 09 system (copyright 2009, Gaussian, Inc.),
 the Gaussian(R) 03 system (copyright 2003, Gaussian, Inc.),
 the Gaussian(R) 98 system (copyright 1998, Gaussian, Inc.),
 the Gaussian(R) 94 system (copyright 1995, Gaussian, Inc.),
 the Gaussian 92(TM) system (copyright 1992, Gaussian, Inc.),
 the Gaussian 90(TM) system (copyright 1990, Gaussian, Inc.),
 the Gaussian 88(TM) system (copyright 1988, Gaussian, Inc.),
 the Gaussian 86(TM) system (copyright 1986, Carnegie Mellon
 University), and the Gaussian 82(TM) system (copyright 1983,
 Carnegie Mellon University). Gaussian is a federally registered
 trademark of Gaussian, Inc.
  
 This software contains proprietary and confidential information,
 including trade secrets, belonging to Gaussian, Inc.
  
 This software is provided under written license and may be
 used, copied, transmitted, or stored only in accord with that
 written license.
  
 The following legend is applicable only to US Government
 contracts under FAR:
  
                    RESTRICTED RIGHTS LEGEND
  
 Use, reproduction and disclosure by the US Government is
 subject to restrictions as set forth in subparagraphs (a)
 and (c) of the Commercial Computer Software - Restricted
 Rights clause in FAR 52.227-19.
  
 Gaussian, Inc.
 340 Quinnipiac St., Bldg. 40, Wallingford CT 06492
  
  
 ---------------------------------------------------------------
 Warning -- This program may not be used in any manner that
 competes with the business of Gaussian, Inc. or will provide
 assistance to any competitor of Gaussian, Inc.  The licensee
 of this program is prohibited from giving any competitor of
 Gaussian, Inc. access to this program.  By using this program,
 the user acknowledges that Gaussian, Inc. is engaged in the
 business of creating and licensing software in the field of
 computational chemistry and represents and warrants to the
 licensee that it is not a competitor of Gaussian, Inc. and that
 it will not use this program in any manner prohibited above.
 ---------------------------------------------------------------
  

 Cite this work as:
 Gaussian 16, Revision C.01,
 M. J. Frisch, G. W. Trucks, H. B. Schlegel, G. E. Scuseria, 
 M. A. Robb, J. R. Cheeseman, G. Scalmani, V. Barone, 
 G. A. Petersson, H. Nakatsuji, X. Li, M. Caricato, A. V. Marenich, 
 J. Bloino, B. G. Janesko, R. Gomperts, B. Mennucci, H. P. Hratchian, 
 J. V. Ortiz, A. F. Izmaylov, J. L. Sonnenberg, D. Williams-Young, 
 F. Ding, F. Lipparini, F. Egidi, J. Goings, B. Peng, A. Petrone, 
 T. Henderson, D. Ranasinghe, V. G. Zakrzewski, J. Gao, N. Rega, 
 G. Zheng, W. Liang, M. Hada, M. Ehara, K. Toyota, R. Fukuda, 
 J. Hasegawa, M. Ishida, T. Nakajima, Y. Honda, O. Kitao, H. Nakai, 
 T. Vreven, K. Throssell, J. A. Montgomery, Jr., J. E. Peralta, 
 F. Ogliaro, M. J. Bearpark, J. J. Heyd, E. N. Brothers, K. N. Kudin, 
 V. N. Staroverov, T. A. Keith, R. Kobayashi, J. Normand, 
 K. Raghavachari, A. P. Rendell, J. C. Burant, S. S. Iyengar, 
 J. Tomasi, M. Cossi, J. M. Millam, M. Klene, C. Adamo, R. Cammi, 
 J. W. Ochterski, R. L. Martin, K. Morokuma, O. Farkas, 
 J. B. Foresman, and D. J. Fox, Gaussian, Inc., Wallingford CT, 2019.
 
 ******************************************
 Gaussian 16:  ES64L-G16RevC.01  3-Jul-2019
                 5-Feb-2022 
 ******************************************
 %NProcShared=32
 Will use up to   32 processors via shared memory.
 %mem=16GB
 %chk=Ac1_clust-43.chk
 ----------------------------------------------------------------------
 # B3LYP/6-31G(d,p) empiricaldispersion=GD3BJ int=(grid=ultrafine) opt 
 freq=noraman
 ----------------------------------------------------------------------
 1/18=20,19=15,26=4,38=1/1,3;
 2/9=110,12=2,17=6,18=5,40=1/2;
 3/5=1,6=6,7=101,11=2,25=1,30=1,71=1,74=-5,75=-5,124=41/1,2,3;
 4//1;
 5/5=2,38=5/2;
 6/7=2,8=2,9=2,10=2,28=1/1;
 7//1,2,3,16;
 1/18=20,19=15,26=4/3(2);
 2/9=110/2;
 99//99;
 2/9=110/2;
 3/5=1,6=6,7=101,11=2,25=1,30=1,71=1,74=-5,75=-5,124=41/1,2,3;
 4/5=5,16=3,69=1/1;
 5/5=2,38=5/2;
 7//1,2,3,16;
 1/18=20,19=15,26=4/3(-5);
 2/9=110/2;
 6/7=2,8=2,9=2,10=2,19=2,28=1/1;
 99/9=1/99;
 -------
 Ac1.xyz
 -------
 Symbolic Z-matrix:
 Charge =  0 Multiplicity = 1
 O                     6.4162   -0.3498    0.856 
 C                     5.1692   -0.3533    0.3395 
 C                     5.1654   -0.7894   -1.1262 
 C                     3.7671   -0.9941   -1.7617 
 C                     3.0121   -2.2334   -1.2351 
 C                     1.5955   -2.409    -1.8226 
 C                     1.5136   -2.5861   -3.3542 
 C                     2.2484   -3.8332   -3.8884 
 C                     2.159    -4.0139   -5.4168 
 C                     0.7449   -4.3355   -5.936 
 C                     0.7183   -4.6073   -7.4467 
 O                     4.1805   -0.0253    0.9805 
 H                     6.2925   -0.0587    1.76 
 H                     5.7614   -1.6964   -1.2253 
 H                     5.6927   -0.007    -1.6711 
 H                     3.1565   -0.0995   -1.6173 
 H                     3.8948   -1.0898   -2.8408 
 H                     3.6039   -3.1316   -1.415 
 H                     2.9186   -2.1637   -0.15 
 H                     1.121    -3.2669   -1.3429 
 H                     0.9886   -1.5484   -1.5356 
 H                     0.4594   -2.6445   -3.6268 
 H                     1.8914   -1.6927   -3.8529 
 H                     1.8675   -4.7271   -3.3916 
 H                     3.3031   -3.7706   -3.6181 
 H                     2.5397   -3.1192   -5.9129 
 H                     2.8331   -4.8217   -5.7076 
 H                     0.3481   -5.2042   -5.4078 
 H                     0.0673   -3.5098   -5.7155 
 H                     1.0725   -3.7441   -8.0115 
 H                     1.3474   -5.4588   -7.7086 
 H                    -0.294    -4.8297   -7.7857 
 

 GradGradGradGradGradGradGradGradGradGradGradGradGradGradGradGradGradGrad
 Berny optimization.
 Initialization pass.
                           ----------------------------
                           !    Initial Parameters    !
                           ! (Angstroms and Degrees)  !
 --------------------------                            --------------------------
 ! Name  Definition              Value          Derivative Info.                !
 --------------------------------------------------------------------------------
 ! R1    R(1,2)                  1.3497         estimate D2E/DX2                !
 ! R2    R(1,13)                 0.9577         estimate D2E/DX2                !
 ! R3    R(2,3)                  1.5292         estimate D2E/DX2                !
 ! R4    R(2,12)                 1.2231         estimate D2E/DX2                !
 ! R5    R(3,4)                  1.5495         estimate D2E/DX2                !
 ! R6    R(3,14)                 1.0898         estimate D2E/DX2                !
 ! R7    R(3,15)                 1.0895         estimate D2E/DX2                !
 ! R8    R(4,5)                  1.5438         estimate D2E/DX2                !
 ! R9    R(4,16)                 1.0927         estimate D2E/DX2                !
 ! R10   R(4,17)                 1.0908         estimate D2E/DX2                !
 ! R11   R(5,6)                  1.5436         estimate D2E/DX2                !
 ! R12   R(5,18)                 1.0906         estimate D2E/DX2                !
 ! R13   R(5,19)                 1.0913         estimate D2E/DX2                !
 ! R14   R(6,7)                  1.544          estimate D2E/DX2                !
 ! R15   R(6,20)                 1.0914         estimate D2E/DX2                !
 ! R16   R(6,21)                 1.0915         estimate D2E/DX2                !
 ! R17   R(7,8)                  1.5429         estimate D2E/DX2                !
 ! R18   R(7,22)                 1.0904         estimate D2E/DX2                !
 ! R19   R(7,23)                 1.0907         estimate D2E/DX2                !
 ! R20   R(8,9)                  1.5416         estimate D2E/DX2                !
 ! R21   R(8,24)                 1.0913         estimate D2E/DX2                !
 ! R22   R(8,25)                 1.0906         estimate D2E/DX2                !
 ! R23   R(9,10)                 1.5403         estimate D2E/DX2                !
 ! R24   R(9,26)                 1.0916         estimate D2E/DX2                !
 ! R25   R(9,27)                 1.0916         estimate D2E/DX2                !
 ! R26   R(10,11)                1.5352         estimate D2E/DX2                !
 ! R27   R(10,28)                1.0914         estimate D2E/DX2                !
 ! R28   R(10,29)                1.0907         estimate D2E/DX2                !
 ! R29   R(11,30)                1.0907         estimate D2E/DX2                !
 ! R30   R(11,31)                1.0906         estimate D2E/DX2                !
 ! R31   R(11,32)                1.0905         estimate D2E/DX2                !
 ! A1    A(2,1,13)             104.0434         estimate D2E/DX2                !
 ! A2    A(1,2,3)              111.7039         estimate D2E/DX2                !
 ! A3    A(1,2,12)             123.0643         estimate D2E/DX2                !
 ! A4    A(3,2,12)             125.2243         estimate D2E/DX2                !
 ! A5    A(2,3,4)              115.6588         estimate D2E/DX2                !
 ! A6    A(2,3,14)             108.853          estimate D2E/DX2                !
 ! A7    A(2,3,15)             105.8641         estimate D2E/DX2                !
 ! A8    A(4,3,14)             110.2596         estimate D2E/DX2                !
 ! A9    A(4,3,15)             109.0556         estimate D2E/DX2                !
 ! A10   A(14,3,15)            106.7078         estimate D2E/DX2                !
 ! A11   A(3,4,5)              114.0472         estimate D2E/DX2                !
 ! A12   A(3,4,16)             109.9934         estimate D2E/DX2                !
 ! A13   A(3,4,17)             108.1595         estimate D2E/DX2                !
 ! A14   A(5,4,16)             109.8082         estimate D2E/DX2                !
 ! A15   A(5,4,17)             108.9213         estimate D2E/DX2                !
 ! A16   A(16,4,17)            105.5435         estimate D2E/DX2                !
 ! A17   A(4,5,6)              114.2248         estimate D2E/DX2                !
 ! A18   A(4,5,18)             109.847          estimate D2E/DX2                !
 ! A19   A(4,5,19)             109.2561         estimate D2E/DX2                !
 ! A20   A(6,5,18)             109.9697         estimate D2E/DX2                !
 ! A21   A(6,5,19)             107.8823         estimate D2E/DX2                !
 ! A22   A(18,5,19)            105.2544         estimate D2E/DX2                !
 ! A23   A(5,6,7)              116.0578         estimate D2E/DX2                !
 ! A24   A(5,6,20)             108.7302         estimate D2E/DX2                !
 ! A25   A(5,6,21)             108.6937         estimate D2E/DX2                !
 ! A26   A(7,6,20)             108.8302         estimate D2E/DX2                !
 ! A27   A(7,6,21)             108.7708         estimate D2E/DX2                !
 ! A28   A(20,6,21)            105.2158         estimate D2E/DX2                !
 ! A29   A(6,7,8)              114.2617         estimate D2E/DX2                !
 ! A30   A(6,7,22)             107.7829         estimate D2E/DX2                !
 ! A31   A(6,7,23)             109.9524         estimate D2E/DX2                !
 ! A32   A(8,7,22)             109.3036         estimate D2E/DX2                !
 ! A33   A(8,7,23)             109.8039         estimate D2E/DX2                !
 ! A34   A(22,7,23)            105.3337         estimate D2E/DX2                !
 ! A35   A(7,8,9)              114.2287         estimate D2E/DX2                !
 ! A36   A(7,8,24)             109.7691         estimate D2E/DX2                !
 ! A37   A(7,8,25)             109.1696         estimate D2E/DX2                !
 ! A38   A(9,8,24)             109.577          estimate D2E/DX2                !
 ! A39   A(9,8,25)             107.9707         estimate D2E/DX2                !
 ! A40   A(24,8,25)            105.7675         estimate D2E/DX2                !
 ! A41   A(8,9,10)             114.3231         estimate D2E/DX2                !
 ! A42   A(8,9,26)             109.5288         estimate D2E/DX2                !
 ! A43   A(8,9,27)             108.3637         estimate D2E/DX2                !
 ! A44   A(10,9,26)            109.7621         estimate D2E/DX2                !
 ! A45   A(10,9,27)            108.8222         estimate D2E/DX2                !
 ! A46   A(26,9,27)            105.6708         estimate D2E/DX2                !
 ! A47   A(9,10,11)            112.6165         estimate D2E/DX2                !
 ! A48   A(9,10,28)            109.6841         estimate D2E/DX2                !
 ! A49   A(9,10,29)            110.1297         estimate D2E/DX2                !
 ! A50   A(11,10,28)           109.2103         estimate D2E/DX2                !
 ! A51   A(11,10,29)           108.7971         estimate D2E/DX2                !
 ! A52   A(28,10,29)           106.1929         estimate D2E/DX2                !
 ! A53   A(10,11,30)           111.336          estimate D2E/DX2                !
 ! A54   A(10,11,31)           111.3798         estimate D2E/DX2                !
 ! A55   A(10,11,32)           110.9841         estimate D2E/DX2                !
 ! A56   A(30,11,31)           107.8326         estimate D2E/DX2                !
 ! A57   A(30,11,32)           107.5717         estimate D2E/DX2                !
 ! A58   A(31,11,32)           107.5535         estimate D2E/DX2                !
 ! D1    D(13,1,2,3)           179.5931         estimate D2E/DX2                !
 ! D2    D(13,1,2,12)            0.5446         estimate D2E/DX2                !
 ! D3    D(1,2,3,4)            172.795          estimate D2E/DX2                !
 ! D4    D(1,2,3,14)            48.0472         estimate D2E/DX2                !
 ! D5    D(1,2,3,15)           -66.3371         estimate D2E/DX2                !
 ! D6    D(12,2,3,4)            -8.1812         estimate D2E/DX2                !
 ! D7    D(12,2,3,14)         -132.929          estimate D2E/DX2                !
 ! D8    D(12,2,3,15)          112.6867         estimate D2E/DX2                !
 ! D9    D(2,3,4,5)            -70.6131         estimate D2E/DX2                !
 ! D10   D(2,3,4,16)            53.2513         estimate D2E/DX2                !
 ! D11   D(2,3,4,17)           168.0507         estimate D2E/DX2                !
 ! D12   D(14,3,4,5)            53.4045         estimate D2E/DX2                !
 ! D13   D(14,3,4,16)          177.2689         estimate D2E/DX2                !
 ! D14   D(14,3,4,17)          -67.9317         estimate D2E/DX2                !
 ! D15   D(15,3,4,5)           170.2581         estimate D2E/DX2                !
 ! D16   D(15,3,4,16)          -65.8776         estimate D2E/DX2                !
 ! D17   D(15,3,4,17)           48.9219         estimate D2E/DX2                !
 ! D18   D(3,4,5,6)            177.623          estimate D2E/DX2                !
 ! D19   D(3,4,5,18)           -58.2829         estimate D2E/DX2                !
 ! D20   D(3,4,5,19)            56.7027         estimate D2E/DX2                !
 ! D21   D(16,4,5,6)            53.659          estimate D2E/DX2                !
 ! D22   D(16,4,5,18)          177.7531         estimate D2E/DX2                !
 ! D23   D(16,4,5,19)          -67.2614         estimate D2E/DX2                !
 ! D24   D(17,4,5,6)           -61.4639         estimate D2E/DX2                !
 ! D25   D(17,4,5,18)           62.6302         estimate D2E/DX2                !
 ! D26   D(17,4,5,19)          177.6158         estimate D2E/DX2                !
 ! D27   D(4,5,6,7)             60.726          estimate D2E/DX2                !
 ! D28   D(4,5,6,20)          -176.2374         estimate D2E/DX2                !
 ! D29   D(4,5,6,21)           -62.2025         estimate D2E/DX2                !
 ! D30   D(18,5,6,7)           -63.3024         estimate D2E/DX2                !
 ! D31   D(18,5,6,20)           59.7342         estimate D2E/DX2                !
 ! D32   D(18,5,6,21)          173.769          estimate D2E/DX2                !
 ! D33   D(19,5,6,7)          -177.5945         estimate D2E/DX2                !
 ! D34   D(19,5,6,20)          -54.5579         estimate D2E/DX2                !
 ! D35   D(19,5,6,21)           59.477          estimate D2E/DX2                !
 ! D36   D(5,6,7,8)             61.258          estimate D2E/DX2                !
 ! D37   D(5,6,7,22)          -177.05           estimate D2E/DX2                !
 ! D38   D(5,6,7,23)           -62.7271         estimate D2E/DX2                !
 ! D39   D(20,6,7,8)           -61.7263         estimate D2E/DX2                !
 ! D40   D(20,6,7,22)           59.9657         estimate D2E/DX2                !
 ! D41   D(20,6,7,23)          174.2886         estimate D2E/DX2                !
 ! D42   D(21,6,7,8)          -175.8539         estimate D2E/DX2                !
 ! D43   D(21,6,7,22)          -54.1619         estimate D2E/DX2                !
 ! D44   D(21,6,7,23)           60.161          estimate D2E/DX2                !
 ! D45   D(6,7,8,9)            179.6516         estimate D2E/DX2                !
 ! D46   D(6,7,8,24)            56.1339         estimate D2E/DX2                !
 ! D47   D(6,7,8,25)           -59.375          estimate D2E/DX2                !
 ! D48   D(22,7,8,9)            58.7995         estimate D2E/DX2                !
 ! D49   D(22,7,8,24)          -64.7182         estimate D2E/DX2                !
 ! D50   D(22,7,8,25)          179.7729         estimate D2E/DX2                !
 ! D51   D(23,7,8,9)           -56.2838         estimate D2E/DX2                !
 ! D52   D(23,7,8,24)         -179.8015         estimate D2E/DX2                !
 ! D53   D(23,7,8,25)           64.6896         estimate D2E/DX2                !
 ! D54   D(7,8,9,10)           -67.2923         estimate D2E/DX2                !
 ! D55   D(7,8,9,26)            56.3507         estimate D2E/DX2                !
 ! D56   D(7,8,9,27)           171.1672         estimate D2E/DX2                !
 ! D57   D(24,8,9,10)           56.3289         estimate D2E/DX2                !
 ! D58   D(24,8,9,26)          179.9719         estimate D2E/DX2                !
 ! D59   D(24,8,9,27)          -65.2116         estimate D2E/DX2                !
 ! D60   D(25,8,9,10)          171.0719         estimate D2E/DX2                !
 ! D61   D(25,8,9,26)          -65.2851         estimate D2E/DX2                !
 ! D62   D(25,8,9,27)           49.5314         estimate D2E/DX2                !
 ! D63   D(8,9,10,11)         -175.8548         estimate D2E/DX2                !
 ! D64   D(8,9,10,28)          -54.0113         estimate D2E/DX2                !
 ! D65   D(8,9,10,29)           62.5127         estimate D2E/DX2                !
 ! D66   D(26,9,10,11)          60.6276         estimate D2E/DX2                !
 ! D67   D(26,9,10,28)        -177.5288         estimate D2E/DX2                !
 ! D68   D(26,9,10,29)         -61.0048         estimate D2E/DX2                !
 ! D69   D(27,9,10,11)         -54.5669         estimate D2E/DX2                !
 ! D70   D(27,9,10,28)          67.2767         estimate D2E/DX2                !
 ! D71   D(27,9,10,29)        -176.1993         estimate D2E/DX2                !
 ! D72   D(9,10,11,30)         -60.0901         estimate D2E/DX2                !
 ! D73   D(9,10,11,31)          60.3067         estimate D2E/DX2                !
 ! D74   D(9,10,11,32)        -179.8886         estimate D2E/DX2                !
 ! D75   D(28,10,11,30)        177.7983         estimate D2E/DX2                !
 ! D76   D(28,10,11,31)        -61.8048         estimate D2E/DX2                !
 ! D77   D(28,10,11,32)         57.9998         estimate D2E/DX2                !
 ! D78   D(29,10,11,30)         62.2957         estimate D2E/DX2                !
 ! D79   D(29,10,11,31)       -177.3074         estimate D2E/DX2                !
 ! D80   D(29,10,11,32)        -57.5028         estimate D2E/DX2                !
 --------------------------------------------------------------------------------
 Trust Radius=3.00D-01 FncErr=1.00D-07 GrdErr=1.00D-06 EigMax=2.50D+02 EigMin=1.00D-04
 Number of steps in this run=    179 maximum allowed number of steps=    192.
 GradGradGradGradGradGradGradGradGradGradGradGradGradGradGradGradGradGrad

                          Input orientation:                          
 ---------------------------------------------------------------------
 Center     Atomic      Atomic             Coordinates (Angstroms)
 Number     Number       Type             X           Y           Z
 ---------------------------------------------------------------------
      1          8           0        6.416200   -0.349800    0.856000
      2          6           0        5.169200   -0.353300    0.339500
      3          6           0        5.165400   -0.789400   -1.126200
      4          6           0        3.767100   -0.994100   -1.761700
      5          6           0        3.012100   -2.233400   -1.235100
      6          6           0        1.595500   -2.409000   -1.822600
      7          6           0        1.513600   -2.586100   -3.354200
      8          6           0        2.248400   -3.833200   -3.888400
      9          6           0        2.159000   -4.013900   -5.416800
     10          6           0        0.744900   -4.335500   -5.936000
     11          6           0        0.718300   -4.607300   -7.446700
     12          8           0        4.180500   -0.025300    0.980500
     13          1           0        6.292500   -0.058700    1.760000
     14          1           0        5.761400   -1.696400   -1.225300
     15          1           0        5.692700   -0.007000   -1.671100
     16          1           0        3.156500   -0.099500   -1.617300
     17          1           0        3.894800   -1.089800   -2.840800
     18          1           0        3.603900   -3.131600   -1.415000
     19          1           0        2.918600   -2.163700   -0.150000
     20          1           0        1.121000   -3.266900   -1.342900
     21          1           0        0.988600   -1.548400   -1.535600
     22          1           0        0.459400   -2.644500   -3.626800
     23          1           0        1.891400   -1.692700   -3.852900
     24          1           0        1.867500   -4.727100   -3.391600
     25          1           0        3.303100   -3.770600   -3.618100
     26          1           0        2.539700   -3.119200   -5.912900
     27          1           0        2.833100   -4.821700   -5.707600
     28          1           0        0.348100   -5.204200   -5.407800
     29          1           0        0.067300   -3.509800   -5.715500
     30          1           0        1.072500   -3.744100   -8.011500
     31          1           0        1.347400   -5.458800   -7.708600
     32          1           0       -0.294000   -4.829700   -7.785700
 ---------------------------------------------------------------------
                    Distance matrix (angstroms):
                    1          2          3          4          5
     1  O    0.000000
     2  C    1.349738   0.000000
     3  C    2.384715   1.529207   0.000000
     4  C    3.779578   2.606060   1.549518   0.000000
     5  C    4.416848   3.266071   2.594937   1.543761   0.000000
     6  C    5.886795   4.655310   3.981490   2.592585   1.543615
     7  C    6.838297   5.656167   4.639802   3.185715   2.619253
     8  C    7.212071   6.206119   5.040174   3.858729   3.191018
     9  C    8.420059   7.456292   6.151836   5.006489   4.624346
    10  C    9.704675   8.649523   7.433022   6.141940   5.626498
    11  C   10.932849   9.926325   8.619848   7.393891   7.034266
    12  O    2.262555   1.223108   2.447869   2.937539   3.339124
    13  H    0.957735   1.834779   3.183462   4.433395   4.945803
    14  H    2.563963   2.145511   1.089810   2.181326   2.801270
    15  H    2.650886   2.106297   1.089546   2.165759   3.511776
    16  H    4.099452   2.818589   2.180096   1.092700   2.172661
    17  H    4.535569   3.504402   2.155114   1.090836   2.159920
    18  H    4.561237   3.639696   2.829768   2.171576   1.090575
    19  H    4.066384   2.929566   2.808875   2.164600   1.091349
    20  H    6.433022   5.263787   4.747856   3.513240   2.157777
    21  H    6.051052   4.735154   4.264897   2.842258   2.157331
    22  H    7.800296   6.569882   5.642768   4.140447   3.522146
    23  H    6.667153   5.487639   4.355447   2.894721   2.898483
    24  H    7.608780   6.629665   5.613703   4.494479   3.489863
    25  H    6.435125   5.551834   4.308745   3.372013   2.850676
    26  H    8.277369   7.325092   5.935888   4.822346   4.784309
    27  H    8.713056   7.873460   6.533628   5.576110   5.170551
    28  H    9.981093   8.933403   7.812102   6.535178   5.773558
    29  H    9.668441   8.523843   7.379219   5.970745   5.511354
    30  H   10.895364   9.900489   8.537531   7.340529   7.208596
    31  H   11.186911  10.268603   8.927957   7.820110   7.421633
    32  H   11.822659  10.765853   9.511993   8.215408   7.783407
                    6          7          8          9         10
     6  C    0.000000
     7  C    1.543979   0.000000
     8  C    2.592712   1.542906   0.000000
     9  C    3.976369   2.590265   1.541639   0.000000
    10  C    4.621145   3.212007   2.589495   1.540349   0.000000
    11  C    6.101844   4.633175   3.949929   2.558952   1.535186
    12  O    4.496846   5.697339   6.476056   7.805180   8.844159
    13  H    6.357731   7.441820   7.906075   9.178011  10.406503
    14  H    4.268406   4.834003   4.898896   5.993060   7.370266
    15  H    4.751800   5.191287   5.605304   6.524765   7.836199
    16  H    2.795113   3.449510   4.463525   5.545605   6.512348
    17  H    2.839683   2.858777   3.366651   4.266045   5.480575
    18  H    2.173007   2.903002   2.906429   4.345180   5.482946
    19  H    2.146708   3.524109   4.148739   5.633774   6.551296
    20  H    1.091446   2.159387   2.841003   4.269908   4.730743
    21  H    1.091480   2.158646   3.513271   4.744707   5.214483
    22  H    2.145069   1.090440   2.163784   2.822764   2.876351
    23  H    2.173191   1.090687   2.170357   2.811648   3.555019
    24  H    2.812354   2.170374   1.091308   2.166809   2.808479
    25  H    2.827308   2.162173   1.090584   2.145573   3.498022
    26  H    4.257517   2.807850   2.166391   1.091575   2.168231
    27  H    4.737721   3.503923   2.151394   1.091566   2.156186
    28  H    4.714107   3.525636   2.792733   2.167084   1.091368
    29  H    4.324561   2.919031   2.863578   2.172222   1.090661
    30  H    6.352834   4.819334   4.288430   2.825906   2.182837
    31  H    6.633840   5.219275   4.248330   2.828211   2.183328
    32  H    6.707351   5.285769   4.758756   3.506341   2.178288
                   11         12         13         14         15
    11  C    0.000000
    12  O   10.198002   0.000000
    13  H   11.684382   2.251506   0.000000
    14  H    8.521268   3.187063   3.446178   0.000000
    15  H    8.903088   3.052551   3.483515   1.748579   0.000000
    16  H    7.761893   2.793322   4.608939   3.080464   2.538456
    17  H    6.608878   3.977074   5.289565   2.542046   2.402727
    18  H    6.847319   3.964844   5.172225   2.598190   3.767200
    19  H    8.003395   2.728219   4.411613   3.075086   3.828933
    20  H    6.262205   5.026599   6.831175   4.900369   5.624509
    21  H    6.661159   4.340371   6.419622   4.785166   4.952053
    22  H    4.302470   6.475647   8.350391   5.897228   6.178074
    23  H    4.773516   5.601960   7.317396   4.677734   4.695926
    24  H    4.216497   6.824379   8.240969   5.388920   6.314398
    25  H    4.694618   5.995350   7.186005   4.008870   4.864739
    26  H    2.807932   7.731973   9.073233   5.863216   6.133520
    27  H    2.746419   8.339761   9.508873   6.199472   6.903041
    28  H    2.156490   9.072964  10.639052   7.687768   8.338979
    29  H    2.150665   8.596311  10.322127   7.474830   7.763498
    30  H    1.090675  10.214950  11.675307   8.498904   8.689812
    31  H    1.090601  10.632490  11.969523   8.698979   9.222536
    32  H    1.090474  10.952154  12.540527   9.461727   9.822797
                   16         17         18         19         20
    16  H    0.000000
    17  H    1.738601   0.000000
    18  H    3.071599   2.507285   0.000000
    19  H    2.543715   3.057226   1.733981   0.000000
    20  H    3.775047   3.831114   2.487629   2.423103   0.000000
    21  H    2.608788   3.218674   3.059552   2.454258   1.734331
    22  H    4.217756   3.851865   3.875204   4.285670   2.457905
    23  H    3.022693   2.324101   3.308541   3.871492   3.061327
    24  H    5.120971   4.200390   3.076955   4.264247   2.624237
    25  H    4.183499   2.853243   2.313537   3.841573   3.192461
    26  H    5.286890   3.923335   4.622097   5.853850   4.787424
    27  H    6.255743   4.824192   4.677284   6.161103   4.939564
    28  H    6.950753   6.008066   5.553229   6.595193   4.568798
    29  H    6.161862   5.363773   5.580759   6.396615   4.504322
    30  H    7.649311   6.461178   7.092035   8.228544   6.685828
    31  H    8.312573   7.019465   7.079340   8.393973   6.736306
    32  H    8.504699   7.482308   7.659177   8.702429   6.778956
                   21         22         23         24         25
    21  H    0.000000
    22  H    2.419629   0.000000
    23  H    2.491134   1.734263   0.000000
    24  H    3.784354   2.524933   3.069357   0.000000
    25  H    3.825165   3.058563   2.523033   1.739868   0.000000
    26  H    4.902456   3.127178   2.588203   3.064988   2.504637
    27  H    5.614469   3.834629   3.757306   2.511013   2.385733
    28  H    5.363678   3.120323   4.138855   2.569292   3.740356
    29  H    4.708232   2.294592   3.177809   3.181674   3.864907
    30  H    6.838525   4.561864   4.708800   4.789759   4.927296
    31  H    7.316139   5.036856   5.417183   4.409351   4.838075
    32  H    7.174660   4.758063   5.484857   4.898033   5.606221
                   26         27         28         29         30
    26  H    0.000000
    27  H    1.739752   0.000000
    28  H    3.066832   2.532076   0.000000
    29  H    2.510836   3.061175   1.744855   0.000000
    30  H    2.635773   3.093362   3.071791   2.517328   0.000000
    31  H    3.181171   2.572392   2.521329   3.067524   1.762814
    32  H    3.803031   3.754640   2.491375   2.481613   1.759783
                   31         32
    31  H    0.000000
    32  H    1.759518   0.000000
 Stoichiometry    C10H20O2
 Framework group  C1[X(C10H20O2)]
 Deg. of freedom    90
 Full point group                 C1      NOp   1
 Largest Abelian subgroup         C1      NOp   1
 Largest concise Abelian subgroup C1      NOp   1
                         Standard orientation:                         
 ---------------------------------------------------------------------
 Center     Atomic      Atomic             Coordinates (Angstroms)
 Number     Number       Type             X           Y           Z
 ---------------------------------------------------------------------
      1          8           0        5.056942   -1.050274    0.392633
      2          6           0        4.070982   -0.256525   -0.076022
      3          6           0        2.767927   -1.031493   -0.275889
      4          6           0        1.529046   -0.177160   -0.645070
      5          6           0        1.004293    0.702079    0.510253
      6          6           0       -0.194005    1.597970    0.130501
      7          6           0       -1.466763    0.863405   -0.343178
      8          6           0       -2.082666   -0.081119    0.709959
      9          6           0       -3.358224   -0.807735    0.239179
     10          6           0       -4.569965    0.117034    0.017454
     11          6           0       -5.843439   -0.656773   -0.351714
     12          8           0        4.230132    0.931151   -0.321155
     13          1           0        5.810462   -0.464129    0.469434
     14          1           0        2.567364   -1.620002    0.619163
     15          1           0        2.963400   -1.740564   -1.079704
     16          1           0        1.751143    0.447032   -1.514006
     17          1           0        0.733996   -0.851866   -0.965364
     18          1           0        0.744854    0.075288    1.364173
     19          1           0        1.808424    1.349934    0.863383
     20          1           0       -0.447542    2.225631    0.986664
     21          1           0        0.121869    2.292305   -0.650172
     22          1           0       -2.201827    1.618236   -0.624191
     23          1           0       -1.257638    0.309405   -1.259120
     24          1           0       -2.294928    0.474517    1.624926
     25          1           0       -1.347194   -0.837445    0.986412
     26          1           0       -3.145168   -1.362810   -0.676263
     27          1           0       -3.620979   -1.559681    0.985538
     28          1           0       -4.754765    0.703399    0.919180
     29          1           0       -4.353726    0.835866   -0.773788
     30          1           0       -5.709032   -1.226079   -1.272255
     31          1           0       -6.125690   -1.356659    0.435626
     32          1           0       -6.682729    0.022521   -0.504306
 ---------------------------------------------------------------------
 Rotational constants (GHZ):           2.8319761           0.2306782           0.2212785
 Standard basis: 6-31G(d,p) (6D, 7F)
 There are   280 symmetry adapted cartesian basis functions of A   symmetry.
 There are   280 symmetry adapted basis functions of A   symmetry.
   280 basis functions,   476 primitive gaussians,   280 cartesian basis functions
    48 alpha electrons       48 beta electrons
       nuclear repulsion energy       696.2865462948 Hartrees.
 NAtoms=   32 NActive=   32 NUniq=   32 SFac= 1.00D+00 NAtFMM=   60 NAOKFM=F Big=F
 Integral buffers will be    131072 words long.
 Raffenetti 2 integral format.
 Two-electron integral symmetry is turned on.
 Nuclear repulsion after empirical dispersion term =      696.2391978702 Hartrees.
 One-electron integrals computed using PRISM.
 NBasis=   280 RedAO= T EigKep=  3.35D-03  NBF=   280
 NBsUse=   280 1.00D-06 EigRej= -1.00D+00 NBFU=   280
 ExpMin= 1.61D-01 ExpMax= 5.48D+03 ExpMxC= 8.25D+02 IAcc=3 IRadAn=         5 AccDes= 0.00D+00
 Harris functional with IExCor=  402 and IRadAn=       5 diagonalized for initial guess.
 HarFok:  IExCor=  402 AccDes= 0.00D+00 IRadAn=         5 IDoV= 1 UseB2=F ITyADJ=14
 ICtDFT=  3500011 ScaDFX=  1.000000  1.000000  1.000000  1.000000
 FoFCou: FMM=F IPFlag=           0 FMFlag=      100000 FMFlg1=           0
         NFxFlg=           0 DoJE=T BraDBF=F KetDBF=T FulRan=T
         wScrn=  0.000000 ICntrl=       500 IOpCl=  0 I1Cent=   200000004 NGrid=           0
         NMat0=    1 NMatS0=      1 NMatT0=    0 NMatD0=    1 NMtDS0=    0 NMtDT0=    0
 Petite list used in FoFCou.
 Requested convergence on RMS density matrix=1.00D-08 within 128 cycles.
 Requested convergence on MAX density matrix=1.00D-06.
 Requested convergence on             energy=1.00D-06.
 No special actions if energy rises.
 Integral accuracy reduced to 1.0D-05 until final iterations.
 Initial convergence to 1.0D-05 achieved.  Increase integral accuracy.
 SCF Done:  E(RB3LYP) =  -543.665542878     A.U. after   13 cycles
            NFock= 13  Conv=0.69D-08     -V/T= 2.0097

 **********************************************************************

            Population analysis using the SCF Density.

 **********************************************************************

 Orbital symmetries:
       Occupied  (A) (A) (A) (A) (A) (A) (A) (A) (A) (A) (A) (A)
                 (A) (A) (A) (A) (A) (A) (A) (A) (A) (A) (A) (A)
                 (A) (A) (A) (A) (A) (A) (A) (A) (A) (A) (A) (A)
                 (A) (A) (A) (A) (A) (A) (A) (A) (A) (A) (A) (A)
       Virtual   (A) (A) (A) (A) (A) (A) (A) (A) (A) (A) (A) (A)
                 (A) (A) (A) (A) (A) (A) (A) (A) (A) (A) (A) (A)
                 (A) (A) (A) (A) (A) (A) (A) (A) (A) (A) (A) (A)
                 (A) (A) (A) (A) (A) (A) (A) (A) (A) (A) (A) (A)
                 (A) (A) (A) (A) (A) (A) (A) (A) (A) (A) (A) (A)
                 (A) (A) (A) (A) (A) (A) (A) (A) (A) (A) (A) (A)
                 (A) (A) (A) (A) (A) (A) (A) (A) (A) (A) (A) (A)
                 (A) (A) (A) (A) (A) (A) (A) (A) (A) (A) (A) (A)
                 (A) (A) (A) (A) (A) (A) (A) (A) (A) (A) (A) (A)
                 (A) (A) (A) (A) (A) (A) (A) (A) (A) (A) (A) (A)
                 (A) (A) (A) (A) (A) (A) (A) (A) (A) (A) (A) (A)
                 (A) (A) (A) (A) (A) (A) (A) (A) (A) (A) (A) (A)
                 (A) (A) (A) (A) (A) (A) (A) (A) (A) (A) (A) (A)
                 (A) (A) (A) (A) (A) (A) (A) (A) (A) (A) (A) (A)
                 (A) (A) (A) (A) (A) (A) (A) (A) (A) (A) (A) (A)
                 (A) (A) (A) (A) (A) (A) (A) (A) (A) (A) (A) (A)
                 (A) (A) (A) (A) (A) (A) (A) (A) (A) (A) (A) (A)
                 (A) (A) (A) (A) (A) (A) (A) (A) (A) (A) (A) (A)
                 (A) (A) (A) (A) (A) (A) (A) (A) (A) (A) (A) (A)
                 (A) (A) (A) (A)
 The electronic state is 1-A.
 Alpha  occ. eigenvalues --  -19.19941 -19.13914 -10.32238 -10.20163 -10.18463
 Alpha  occ. eigenvalues --  -10.17516 -10.17409 -10.17387 -10.17374 -10.17361
 Alpha  occ. eigenvalues --  -10.17301 -10.16898  -1.10886  -1.01182  -0.80897
 Alpha  occ. eigenvalues --   -0.79241  -0.76454  -0.72693  -0.68685  -0.64595
 Alpha  occ. eigenvalues --   -0.61512  -0.58672  -0.57157  -0.54863  -0.49494
 Alpha  occ. eigenvalues --   -0.48203  -0.47068  -0.45801  -0.45618  -0.44407
 Alpha  occ. eigenvalues --   -0.41793  -0.41566  -0.41033  -0.39765  -0.39415
 Alpha  occ. eigenvalues --   -0.37902  -0.36655  -0.36440  -0.35151  -0.33904
 Alpha  occ. eigenvalues --   -0.33153  -0.32791  -0.32059  -0.31707  -0.31094
 Alpha  occ. eigenvalues --   -0.30327  -0.29955  -0.27288
 Alpha virt. eigenvalues --    0.00918   0.08159   0.08235   0.10150   0.10971
 Alpha virt. eigenvalues --    0.11853   0.12533   0.13671   0.14194   0.15508
 Alpha virt. eigenvalues --    0.16587   0.17225   0.17344   0.17830   0.18391
 Alpha virt. eigenvalues --    0.18922   0.19174   0.19658   0.20337   0.22292
 Alpha virt. eigenvalues --    0.22666   0.22900   0.23951   0.24119   0.24601
 Alpha virt. eigenvalues --    0.25374   0.26284   0.27403   0.28661   0.29476
 Alpha virt. eigenvalues --    0.30860   0.36555   0.48888   0.49817   0.50563
 Alpha virt. eigenvalues --    0.51768   0.52339   0.53484   0.54025   0.54669
 Alpha virt. eigenvalues --    0.55795   0.58769   0.58878   0.61038   0.62575
 Alpha virt. eigenvalues --    0.62634   0.64273   0.65914   0.66772   0.67054
 Alpha virt. eigenvalues --    0.69332   0.69929   0.70529   0.71220   0.73177
 Alpha virt. eigenvalues --    0.74664   0.76907   0.78453   0.80467   0.83660
 Alpha virt. eigenvalues --    0.84000   0.84856   0.85625   0.86071   0.86669
 Alpha virt. eigenvalues --    0.87585   0.87819   0.88910   0.89630   0.90336
 Alpha virt. eigenvalues --    0.90651   0.91018   0.92254   0.93417   0.93874
 Alpha virt. eigenvalues --    0.95097   0.95261   0.96008   0.96937   0.97333
 Alpha virt. eigenvalues --    0.98553   0.99482   1.00728   1.01502   1.02977
 Alpha virt. eigenvalues --    1.06328   1.08302   1.10566   1.13294   1.16295
 Alpha virt. eigenvalues --    1.20726   1.27977   1.28648   1.30974   1.34475
 Alpha virt. eigenvalues --    1.37728   1.38292   1.41117   1.42737   1.45400
 Alpha virt. eigenvalues --    1.46070   1.54209   1.55615   1.56274   1.60850
 Alpha virt. eigenvalues --    1.62205   1.62779   1.62862   1.66002   1.67854
 Alpha virt. eigenvalues --    1.69153   1.70599   1.71137   1.73062   1.74175
 Alpha virt. eigenvalues --    1.76157   1.76622   1.78999   1.81238   1.82375
 Alpha virt. eigenvalues --    1.84955   1.86040   1.87007   1.87487   1.88787
 Alpha virt. eigenvalues --    1.90566   1.91049   1.91309   1.91985   1.97743
 Alpha virt. eigenvalues --    2.00387   2.00803   2.02858   2.03981   2.05777
 Alpha virt. eigenvalues --    2.07917   2.11798   2.12315   2.13078   2.13599
 Alpha virt. eigenvalues --    2.15609   2.15926   2.18325   2.19006   2.20432
 Alpha virt. eigenvalues --    2.22180   2.23565   2.23931   2.25638   2.26708
 Alpha virt. eigenvalues --    2.27024   2.28528   2.28735   2.30133   2.31798
 Alpha virt. eigenvalues --    2.32846   2.34345   2.37948   2.39159   2.40386
 Alpha virt. eigenvalues --    2.42517   2.44605   2.47775   2.49455   2.51158
 Alpha virt. eigenvalues --    2.53863   2.55293   2.55463   2.56260   2.58655
 Alpha virt. eigenvalues --    2.61021   2.61404   2.63551   2.64782   2.66505
 Alpha virt. eigenvalues --    2.68258   2.70933   2.71949   2.74523   2.75413
 Alpha virt. eigenvalues --    2.77109   2.78211   2.80833   2.80878   2.82393
 Alpha virt. eigenvalues --    2.83868   2.84918   2.85108   2.86291   2.89831
 Alpha virt. eigenvalues --    2.90273   2.90789   2.91647   2.92219   2.92580
 Alpha virt. eigenvalues --    2.93126   2.95723   2.98129   3.01594   3.15243
 Alpha virt. eigenvalues --    3.19760   3.25594   3.27863   3.31457   3.32567
 Alpha virt. eigenvalues --    3.34029   3.34350   3.35394   3.36961   3.38833
 Alpha virt. eigenvalues --    3.41783   3.45383   3.46099   3.49018   3.50148
 Alpha virt. eigenvalues --    3.52778   3.54778   3.58509   3.59277   3.60792
 Alpha virt. eigenvalues --    3.92784   4.15015   4.24332   4.26855   4.34355
 Alpha virt. eigenvalues --    4.42275   4.52181   4.58972   4.64039   4.66244
 Alpha virt. eigenvalues --    4.71278   4.74907
          Condensed to atoms (all electrons):
               1          2          3          4          5          6
     1  O    8.113316   0.257279  -0.094274   0.002565  -0.000038  -0.000000
     2  C    0.257279   4.380070   0.325299  -0.033697  -0.003218   0.000024
     3  C   -0.094274   0.325299   5.141896   0.340446  -0.034831   0.003532
     4  C    0.002565  -0.033697   0.340446   4.906091   0.379613  -0.038284
     5  C   -0.000038  -0.003218  -0.034831   0.379613   4.910257   0.373786
     6  C   -0.000000   0.000024   0.003532  -0.038284   0.373786   4.908287
     7  C    0.000000   0.000000   0.000140  -0.004265  -0.043426   0.369293
     8  C    0.000000  -0.000000  -0.000008  -0.001430  -0.004454  -0.039412
     9  C    0.000000  -0.000000   0.000000  -0.000005   0.000117   0.003650
    10  C    0.000000   0.000000  -0.000000  -0.000000  -0.000000   0.000123
    11  C   -0.000000   0.000000   0.000000   0.000000   0.000000  -0.000001
    12  O   -0.080114   0.565298  -0.084801   0.004716  -0.003906  -0.000023
    13  H    0.267701  -0.009219   0.011203  -0.000319   0.000010  -0.000000
    14  H    0.002860  -0.025666   0.365080  -0.035023  -0.005193   0.000014
    15  H    0.001837  -0.026723   0.364921  -0.028054   0.003702  -0.000122
    16  H    0.000111  -0.006067  -0.035798   0.383322  -0.036014  -0.002959
    17  H   -0.000048   0.004648  -0.029526   0.372903  -0.039457  -0.004877
    18  H    0.000001  -0.000364  -0.003495  -0.042743   0.377709  -0.036439
    19  H   -0.000063   0.004376  -0.006324  -0.038853   0.380008  -0.028391
    20  H   -0.000000  -0.000004  -0.000147   0.004700  -0.033611   0.377096
    21  H    0.000000  -0.000011   0.000060  -0.006932  -0.039505   0.378503
    22  H   -0.000000   0.000000  -0.000001   0.000053   0.004946  -0.031508
    23  H   -0.000000  -0.000003  -0.000104   0.003359  -0.007741  -0.037478
    24  H    0.000000  -0.000000   0.000000   0.000088  -0.000909  -0.002532
    25  H   -0.000000   0.000001  -0.000046   0.000264   0.002640  -0.005471
    26  H   -0.000000  -0.000000   0.000000   0.000001  -0.000018   0.000084
    27  H   -0.000000   0.000000  -0.000000   0.000000  -0.000001  -0.000153
    28  H    0.000000  -0.000000   0.000000  -0.000000   0.000000  -0.000021
    29  H    0.000000   0.000000   0.000000   0.000000  -0.000001  -0.000117
    30  H   -0.000000  -0.000000   0.000000  -0.000000   0.000000  -0.000000
    31  H   -0.000000  -0.000000  -0.000000   0.000000  -0.000000   0.000000
    32  H    0.000000   0.000000  -0.000000  -0.000000   0.000000  -0.000000
               7          8          9         10         11         12
     1  O    0.000000   0.000000   0.000000   0.000000  -0.000000  -0.080114
     2  C    0.000000  -0.000000  -0.000000   0.000000   0.000000   0.565298
     3  C    0.000140  -0.000008   0.000000  -0.000000   0.000000  -0.084801
     4  C   -0.004265  -0.001430  -0.000005  -0.000000   0.000000   0.004716
     5  C   -0.043426  -0.004454   0.000117  -0.000000   0.000000  -0.003906
     6  C    0.369293  -0.039412   0.003650   0.000123  -0.000001  -0.000023
     7  C    4.910949   0.381887  -0.037632  -0.005411   0.000171  -0.000001
     8  C    0.381887   4.906035   0.368114  -0.038875   0.003863  -0.000000
     9  C   -0.037632   0.368114   4.896134   0.387359  -0.042109  -0.000000
    10  C   -0.005411  -0.038875   0.387359   4.866018   0.369890  -0.000000
    11  C    0.000171   0.003863  -0.042109   0.369890   4.917925  -0.000000
    12  O   -0.000001  -0.000000  -0.000000  -0.000000  -0.000000   8.044480
    13  H    0.000000  -0.000000  -0.000000   0.000000   0.000000   0.011375
    14  H   -0.000010   0.000001   0.000000  -0.000000  -0.000000   0.001842
    15  H    0.000001   0.000000  -0.000000  -0.000000  -0.000000   0.000596
    16  H   -0.000942   0.000088   0.000000  -0.000000  -0.000000   0.005236
    17  H    0.002865   0.000398  -0.000054   0.000002  -0.000000   0.000249
    18  H   -0.007680   0.003177  -0.000124  -0.000001  -0.000000   0.000122
    19  H    0.004565   0.000088  -0.000001   0.000000  -0.000000   0.007050
    20  H   -0.038784  -0.006803   0.000061  -0.000018  -0.000000  -0.000000
    21  H   -0.034172   0.004651  -0.000146  -0.000002  -0.000000   0.000024
    22  H    0.380325  -0.040811  -0.004454   0.002532  -0.000139   0.000000
    23  H    0.381633  -0.041856  -0.003155  -0.000669  -0.000020  -0.000000
    24  H   -0.041236   0.381640  -0.037959  -0.007781   0.000060   0.000000
    25  H   -0.040174   0.376833  -0.031797   0.004708  -0.000165   0.000000
    26  H   -0.007577  -0.037367   0.380359  -0.040313  -0.003055  -0.000000
    27  H    0.004575  -0.032429   0.377604  -0.042011  -0.004211   0.000000
    28  H   -0.000691  -0.003575  -0.040719   0.386592  -0.038504   0.000000
    29  H    0.001919  -0.003730  -0.038767   0.387595  -0.037893   0.000000
    30  H   -0.000016   0.000079  -0.004662  -0.034785   0.387320   0.000000
    31  H    0.000001   0.000016  -0.004973  -0.034678   0.386956  -0.000000
    32  H    0.000001  -0.000159   0.004177  -0.027686   0.379307  -0.000000
              13         14         15         16         17         18
     1  O    0.267701   0.002860   0.001837   0.000111  -0.000048   0.000001
     2  C   -0.009219  -0.025666  -0.026723  -0.006067   0.004648  -0.000364
     3  C    0.011203   0.365080   0.364921  -0.035798  -0.029526  -0.003495
     4  C   -0.000319  -0.035023  -0.028054   0.383322   0.372903  -0.042743
     5  C    0.000010  -0.005193   0.003702  -0.036014  -0.039457   0.377709
     6  C   -0.000000   0.000014  -0.000122  -0.002959  -0.004877  -0.036439
     7  C    0.000000  -0.000010   0.000001  -0.000942   0.002865  -0.007680
     8  C   -0.000000   0.000001   0.000000   0.000088   0.000398   0.003177
     9  C   -0.000000   0.000000  -0.000000   0.000000  -0.000054  -0.000124
    10  C    0.000000  -0.000000  -0.000000  -0.000000   0.000002  -0.000001
    11  C    0.000000  -0.000000  -0.000000  -0.000000  -0.000000  -0.000000
    12  O    0.011375   0.001842   0.000596   0.005236   0.000249   0.000122
    13  H    0.401003  -0.000390  -0.000381  -0.000012   0.000004  -0.000001
    14  H   -0.000390   0.585912  -0.027448   0.005200  -0.002283   0.005018
    15  H   -0.000381  -0.027448   0.582206  -0.001537  -0.004007   0.000010
    16  H   -0.000012   0.005200  -0.001537   0.612167  -0.040443   0.005964
    17  H    0.000004  -0.002283  -0.004007  -0.040443   0.643645  -0.006432
    18  H   -0.000001   0.005018   0.000010   0.005964  -0.006432   0.653286
    19  H    0.000005  -0.000494   0.000114  -0.005186   0.006045  -0.039689
    20  H    0.000000   0.000000   0.000002   0.000016  -0.000048  -0.003766
    21  H   -0.000000   0.000009   0.000001   0.005000  -0.000274   0.006128
    22  H    0.000000  -0.000000  -0.000000  -0.000034  -0.000072   0.000000
    23  H    0.000000   0.000005   0.000009   0.000503   0.001378   0.000048
    24  H   -0.000000  -0.000001   0.000000  -0.000001  -0.000020   0.000440
    25  H    0.000000   0.000018  -0.000002  -0.000015   0.000863   0.002027
    26  H   -0.000000  -0.000000  -0.000000  -0.000001   0.000035   0.000007
    27  H   -0.000000  -0.000000  -0.000000   0.000000  -0.000002   0.000009
    28  H   -0.000000  -0.000000  -0.000000  -0.000000   0.000000   0.000000
    29  H   -0.000000   0.000000  -0.000000   0.000000  -0.000000  -0.000000
    30  H   -0.000000  -0.000000  -0.000000   0.000000   0.000000   0.000000
    31  H   -0.000000   0.000000   0.000000   0.000000   0.000000   0.000000
    32  H   -0.000000  -0.000000  -0.000000   0.000000   0.000000   0.000000
              19         20         21         22         23         24
     1  O   -0.000063  -0.000000   0.000000  -0.000000  -0.000000   0.000000
     2  C    0.004376  -0.000004  -0.000011   0.000000  -0.000003  -0.000000
     3  C   -0.006324  -0.000147   0.000060  -0.000001  -0.000104   0.000000
     4  C   -0.038853   0.004700  -0.006932   0.000053   0.003359   0.000088
     5  C    0.380008  -0.033611  -0.039505   0.004946  -0.007741  -0.000909
     6  C   -0.028391   0.377096   0.378503  -0.031508  -0.037478  -0.002532
     7  C    0.004565  -0.038784  -0.034172   0.380325   0.381633  -0.041236
     8  C    0.000088  -0.006803   0.004651  -0.040811  -0.041856   0.381640
     9  C   -0.000001   0.000061  -0.000146  -0.004454  -0.003155  -0.037959
    10  C    0.000000  -0.000018  -0.000002   0.002532  -0.000669  -0.007781
    11  C   -0.000000  -0.000000  -0.000000  -0.000139  -0.000020   0.000060
    12  O    0.007050  -0.000000   0.000024   0.000000  -0.000000   0.000000
    13  H    0.000005   0.000000  -0.000000   0.000000   0.000000  -0.000000
    14  H   -0.000494   0.000000   0.000009  -0.000000   0.000005  -0.000001
    15  H    0.000114   0.000002   0.000001  -0.000000   0.000009   0.000000
    16  H   -0.005186   0.000016   0.005000  -0.000034   0.000503  -0.000001
    17  H    0.006045  -0.000048  -0.000274  -0.000072   0.001378  -0.000020
    18  H   -0.039689  -0.003766   0.006128   0.000000   0.000048   0.000440
    19  H    0.614196  -0.003591  -0.004289  -0.000144  -0.000016  -0.000034
    20  H   -0.003591   0.648665  -0.038651  -0.004431   0.006104   0.005028
    21  H   -0.004289  -0.038651   0.643838  -0.003651  -0.003585   0.000002
    22  H   -0.000144  -0.004431  -0.003651   0.643103  -0.040958  -0.005667
    23  H   -0.000016   0.006104  -0.003585  -0.040958   0.647521   0.006211
    24  H   -0.000034   0.005028   0.000002  -0.005667   0.006211   0.647039
    25  H   -0.000065  -0.000307  -0.000011   0.006242  -0.006114  -0.041433
    26  H   -0.000000   0.000009   0.000000  -0.000204   0.005443   0.006094
    27  H   -0.000000   0.000002   0.000003  -0.000013   0.000029  -0.002866
    28  H   -0.000000   0.000001   0.000000   0.000455   0.000068   0.005682
    29  H   -0.000000   0.000011   0.000008   0.002605   0.000390  -0.000202
    30  H   -0.000000  -0.000000   0.000000   0.000010  -0.000000   0.000009
    31  H    0.000000   0.000000   0.000000   0.000000   0.000001   0.000001
    32  H    0.000000   0.000000   0.000000   0.000008  -0.000000  -0.000001
              25         26         27         28         29         30
     1  O   -0.000000  -0.000000  -0.000000   0.000000   0.000000  -0.000000
     2  C    0.000001  -0.000000   0.000000  -0.000000   0.000000  -0.000000
     3  C   -0.000046   0.000000  -0.000000   0.000000   0.000000   0.000000
     4  C    0.000264   0.000001   0.000000  -0.000000   0.000000  -0.000000
     5  C    0.002640  -0.000018  -0.000001   0.000000  -0.000001   0.000000
     6  C   -0.005471   0.000084  -0.000153  -0.000021  -0.000117  -0.000000
     7  C   -0.040174  -0.007577   0.004575  -0.000691   0.001919  -0.000016
     8  C    0.376833  -0.037367  -0.032429  -0.003575  -0.003730   0.000079
     9  C   -0.031797   0.380359   0.377604  -0.040719  -0.038767  -0.004662
    10  C    0.004708  -0.040313  -0.042011   0.386592   0.387595  -0.034785
    11  C   -0.000165  -0.003055  -0.004211  -0.038504  -0.037893   0.387320
    12  O    0.000000  -0.000000   0.000000   0.000000   0.000000   0.000000
    13  H    0.000000  -0.000000  -0.000000  -0.000000  -0.000000  -0.000000
    14  H    0.000018  -0.000000  -0.000000  -0.000000   0.000000  -0.000000
    15  H   -0.000002  -0.000000  -0.000000  -0.000000  -0.000000  -0.000000
    16  H   -0.000015  -0.000001   0.000000  -0.000000   0.000000   0.000000
    17  H    0.000863   0.000035  -0.000002   0.000000  -0.000000   0.000000
    18  H    0.002027   0.000007   0.000009   0.000000  -0.000000   0.000000
    19  H   -0.000065  -0.000000  -0.000000  -0.000000  -0.000000  -0.000000
    20  H   -0.000307   0.000009   0.000002   0.000001   0.000011  -0.000000
    21  H   -0.000011   0.000000   0.000003   0.000000   0.000008   0.000000
    22  H    0.006242  -0.000204  -0.000013   0.000455   0.002605   0.000010
    23  H   -0.006114   0.005443   0.000029   0.000068   0.000390  -0.000000
    24  H   -0.041433   0.006094  -0.002866   0.005682  -0.000202   0.000009
    25  H    0.652341  -0.003067  -0.004796   0.000049  -0.000036   0.000003
    26  H   -0.003067   0.649992  -0.041259   0.006151  -0.006310   0.004605
    27  H   -0.004796  -0.041259   0.654370  -0.005424   0.006162  -0.000492
    28  H    0.000049   0.006151  -0.005424   0.642357  -0.041495   0.005506
    29  H   -0.000036  -0.006310   0.006162  -0.041495   0.635791  -0.005070
    30  H    0.000003   0.004605  -0.000492   0.005506  -0.005070   0.611919
    31  H   -0.000006  -0.000457   0.005268  -0.005051   0.005423  -0.033811
    32  H    0.000003  -0.000047   0.000013  -0.003111  -0.003049  -0.032580
              31         32
     1  O   -0.000000   0.000000
     2  C   -0.000000   0.000000
     3  C   -0.000000  -0.000000
     4  C    0.000000  -0.000000
     5  C   -0.000000   0.000000
     6  C    0.000000  -0.000000
     7  C    0.000001   0.000001
     8  C    0.000016  -0.000159
     9  C   -0.004973   0.004177
    10  C   -0.034678  -0.027686
    11  C    0.386956   0.379307
    12  O   -0.000000  -0.000000
    13  H   -0.000000  -0.000000
    14  H    0.000000  -0.000000
    15  H    0.000000  -0.000000
    16  H    0.000000   0.000000
    17  H    0.000000   0.000000
    18  H    0.000000   0.000000
    19  H    0.000000   0.000000
    20  H    0.000000   0.000000
    21  H    0.000000   0.000000
    22  H    0.000000   0.000008
    23  H    0.000001  -0.000000
    24  H    0.000001  -0.000001
    25  H   -0.000006   0.000003
    26  H   -0.000457  -0.000047
    27  H    0.005268   0.000013
    28  H   -0.005051  -0.003111
    29  H    0.005423  -0.003049
    30  H   -0.033811  -0.032580
    31  H    0.612257  -0.032696
    32  H   -0.032696   0.617143
 Mulliken charges:
               1
     1  O   -0.471132
     2  C    0.567977
     3  C   -0.263223
     4  C   -0.168517
     5  C   -0.180466
     6  C   -0.186601
     7  C   -0.176309
     8  C   -0.175963
     9  C   -0.171018
    10  C   -0.172588
    11  C   -0.319392
    12  O   -0.472145
    13  H    0.319022
    14  H    0.130550
    15  H    0.134877
    16  H    0.111400
    17  H    0.094510
    18  H    0.086787
    19  H    0.110694
    20  H    0.088466
    21  H    0.093002
    22  H    0.091809
    23  H    0.089000
    24  H    0.088349
    25  H    0.087513
    26  H    0.086894
    27  H    0.085622
    28  H    0.091728
    29  H    0.096766
    30  H    0.101966
    31  H    0.101747
    32  H    0.098677
 Sum of Mulliken charges =  -0.00000
 Mulliken charges with hydrogens summed into heavy atoms:
               1
     1  O   -0.152111
     2  C    0.567977
     3  C    0.002204
     4  C    0.037393
     5  C    0.017014
     6  C   -0.005134
     7  C    0.004500
     8  C   -0.000101
     9  C    0.001498
    10  C    0.015906
    11  C   -0.017002
    12  O   -0.472145
 Electronic spatial extent (au):  <R**2>=           4862.4591
 Charge=             -0.0000 electrons
 Dipole moment (field-independent basis, Debye):
    X=             -0.0950    Y=             -1.2987    Z=              0.3025  Tot=              1.3369
 Quadrupole moment (field-independent basis, Debye-Ang):
   XX=            -72.7203   YY=            -79.1958   ZZ=            -75.3502
   XY=             -5.0745   XZ=              1.9235   YZ=              1.5187
 Traceless Quadrupole moment (field-independent basis, Debye-Ang):
   XX=              3.0351   YY=             -3.4404   ZZ=              0.4053
   XY=             -5.0745   XZ=              1.9235   YZ=              1.5187
 Octapole moment (field-independent basis, Debye-Ang**2):
  XXX=            108.6753  YYY=             -0.8806  ZZZ=             -0.2576  XYY=             -1.9444
  XXY=            -12.4233  XXZ=             16.0251  XZZ=             15.3862  YZZ=             -1.0915
  YYZ=             -0.3961  XYZ=              6.9623
 Hexadecapole moment (field-independent basis, Debye-Ang**3):
 XXXX=          -5099.0313 YYYY=           -472.5932 ZZZZ=           -220.0290 XXXY=            -85.6149
 XXXZ=             85.4393 YYYX=             -7.8931 YYYZ=             -0.8044 ZZZX=              0.9944
 ZZZY=             -0.7873 XXYY=          -1098.9659 XXZZ=           -960.4309 YYZZ=           -110.5155
 XXYZ=             23.4119 YYXZ=             -3.0684 ZZXY=             -3.2722
 N-N= 6.962391978702D+02 E-N=-2.655823066964D+03  KE= 5.384608123870D+02
 Calling FoFJK, ICntrl=      2127 FMM=F ISym2X=0 I1Cent= 0 IOpClX= 0 NMat=1 NMatS=1 NMatT=0.
 ***** Axes restored to original set *****
 -------------------------------------------------------------------
 Center     Atomic                   Forces (Hartrees/Bohr)
 Number     Number              X              Y              Z
 -------------------------------------------------------------------
      1        8          -0.000973391   -0.003387234   -0.010230500
      2        6          -0.022796658   -0.002192956   -0.008182830
      3        6          -0.011929074    0.002028142    0.002071183
      4        6           0.001747435   -0.005268938    0.007998644
      5        6          -0.003090741    0.005558427   -0.000402645
      6        6           0.005948249    0.000712091   -0.004555128
      7        6           0.001967907   -0.006860734    0.005180169
      8        6          -0.001223851    0.008895083   -0.004555393
      9        6          -0.007314922   -0.002926123    0.006375695
     10        6           0.007021919    0.001813345   -0.005744523
     11        6          -0.001746658    0.000557966    0.004838033
     12        8           0.016549169   -0.004160779   -0.006656583
     13        1           0.001849713    0.004933660    0.015546353
     14        1           0.003580666   -0.002240701    0.000776714
     15        1           0.004622006    0.002441531   -0.002406921
     16        1          -0.000509603    0.001543880    0.003358605
     17        1           0.003007565   -0.000506453   -0.002964362
     18        1           0.003292656   -0.003103247   -0.003043381
     19        1           0.000049489    0.002437637    0.002746517
     20        1          -0.000474867   -0.004193930    0.001411338
     21        1          -0.001363878    0.004125407    0.000360733
     22        1          -0.003860625   -0.000665526   -0.000865120
     23        1           0.003209074    0.002951897   -0.002408810
     24        1          -0.002911755   -0.003317497    0.002036603
     25        1           0.004051961    0.000701874    0.001526312
     26        1           0.000394559    0.004356296   -0.001922174
     27        1           0.001839314   -0.003709902   -0.001537030
     28        1          -0.000444232   -0.003327246    0.002888455
     29        1          -0.001827913    0.003092466    0.001432087
     30        1           0.001553610    0.002523324   -0.001344727
     31        1           0.002433574   -0.002239944   -0.000473938
     32        1          -0.002650696   -0.000571818   -0.001253376
 -------------------------------------------------------------------
 Cartesian Forces:  Max     0.022796658 RMS     0.005007749

 GradGradGradGradGradGradGradGradGradGradGradGradGradGradGradGradGradGrad
 Berny optimization.
 FormGI is forming the generalized inverse of G from B-inverse, IUseBI=4.
 Internal  Forces:  Max     0.017981466 RMS     0.003108804
 Search for a local minimum.
 Step number   1 out of a maximum of  179
 All quantities printed in internal units (Hartrees-Bohrs-Radians)
 Mixed Optimization -- RFO/linear search
 Second derivative matrix not updated -- first step.
 ITU=  0
     Eigenvalues ---    0.00230   0.00230   0.00230   0.00230   0.00230
     Eigenvalues ---    0.00230   0.00232   0.00300   0.00380   0.00856
     Eigenvalues ---    0.02357   0.03079   0.03227   0.03227   0.03238
     Eigenvalues ---    0.03249   0.03253   0.03440   0.03641   0.04640
     Eigenvalues ---    0.04678   0.04679   0.04687   0.04689   0.04690
     Eigenvalues ---    0.04749   0.05196   0.05408   0.05465   0.08300
     Eigenvalues ---    0.08539   0.08560   0.08579   0.08580   0.08582
     Eigenvalues ---    0.08881   0.09816   0.12188   0.12372   0.12384
     Eigenvalues ---    0.12398   0.12401   0.12402   0.12606   0.13124
     Eigenvalues ---    0.16000   0.16000   0.16000   0.16000   0.21890
     Eigenvalues ---    0.21891   0.21895   0.21899   0.21911   0.21912
     Eigenvalues ---    0.21932   0.22004   0.24998   0.25000   0.27692
     Eigenvalues ---    0.28169   0.28188   0.28201   0.28263   0.28374
     Eigenvalues ---    0.28488   0.28950   0.29497   0.34502   0.34631
     Eigenvalues ---    0.34632   0.34642   0.34646   0.34655   0.34657
     Eigenvalues ---    0.34662   0.34716   0.34733   0.34735   0.34736
     Eigenvalues ---    0.34743   0.34745   0.34746   0.34758   0.34762
     Eigenvalues ---    0.34835   0.34865   0.55077   0.55963   0.94019
 RFO step:  Lambda=-5.44033123D-03 EMin= 2.30000000D-03
 Linear search not attempted -- first point.
 Iteration  1 RMS(Cart)=  0.05506322 RMS(Int)=  0.00041067
 Iteration  2 RMS(Cart)=  0.00070947 RMS(Int)=  0.00011760
 Iteration  3 RMS(Cart)=  0.00000039 RMS(Int)=  0.00011760
 Variable       Old X    -DE/DX   Delta X   Delta X   Delta X     New X
                                 (Linear)    (Quad)   (Total)
    R1        2.55064   0.00285   0.00000   0.00512   0.00512   2.55575
    R2        1.80986   0.01594   0.00000   0.02820   0.02820   1.83806
    R3        2.88978  -0.01051   0.00000  -0.03499  -0.03499   2.85479
    R4        2.31134  -0.01798   0.00000  -0.01902  -0.01902   2.29232
    R5        2.92816  -0.01228   0.00000  -0.04348  -0.04348   2.88469
    R6        2.05944   0.00375   0.00000   0.01061   0.01061   2.07005
    R7        2.05894   0.00519   0.00000   0.01467   0.01467   2.07361
    R8        2.91728  -0.00761   0.00000  -0.02647  -0.02647   2.89081
    R9        2.06490   0.00199   0.00000   0.00569   0.00569   2.07059
   R10        2.06138   0.00333   0.00000   0.00944   0.00944   2.07082
   R11        2.91701  -0.00497   0.00000  -0.01729  -0.01729   2.89972
   R12        2.06089   0.00484   0.00000   0.01373   0.01373   2.07461
   R13        2.06235   0.00288   0.00000   0.00819   0.00819   2.07054
   R14        2.91770  -0.00431   0.00000  -0.01501  -0.01501   2.90268
   R15        2.06253   0.00412   0.00000   0.01171   0.01171   2.07425
   R16        2.06260   0.00411   0.00000   0.01167   0.01167   2.07427
   R17        2.91567  -0.00590   0.00000  -0.02047  -0.02047   2.89520
   R18        2.06063   0.00398   0.00000   0.01128   0.01128   2.07192
   R19        2.06110   0.00463   0.00000   0.01313   0.01313   2.07423
   R20        2.91328  -0.00314   0.00000  -0.01085  -0.01085   2.90243
   R21        2.06227   0.00466   0.00000   0.01324   0.01324   2.07551
   R22        2.06090   0.00434   0.00000   0.01229   0.01229   2.07319
   R23        2.91084  -0.00449   0.00000  -0.01546  -0.01546   2.89538
   R24        2.06278   0.00458   0.00000   0.01302   0.01302   2.07580
   R25        2.06276   0.00429   0.00000   0.01220   0.01220   2.07496
   R26        2.90108  -0.00178   0.00000  -0.00603  -0.00603   2.89505
   R27        2.06239   0.00421   0.00000   0.01195   0.01195   2.07434
   R28        2.06105   0.00377   0.00000   0.01067   0.01067   2.07173
   R29        2.06108   0.00320   0.00000   0.00906   0.00906   2.07014
   R30        2.06094   0.00327   0.00000   0.00926   0.00926   2.07020
   R31        2.06070   0.00297   0.00000   0.00840   0.00840   2.06910
    A1        1.81590   0.00710   0.00000   0.04289   0.04289   1.85879
    A2        1.94960   0.00080   0.00000   0.00305   0.00302   1.95262
    A3        2.14788  -0.00442   0.00000  -0.01738  -0.01741   2.13047
    A4        2.18558   0.00362   0.00000   0.01412   0.01409   2.19967
    A5        2.01863  -0.01019   0.00000  -0.04672  -0.04668   1.97195
    A6        1.89984   0.00170   0.00000  -0.00947  -0.00960   1.89025
    A7        1.84768   0.00319   0.00000   0.01856   0.01909   1.86677
    A8        1.92439   0.00423   0.00000   0.01692   0.01618   1.94057
    A9        1.90338   0.00389   0.00000   0.03053   0.03064   1.93402
   A10        1.86240  -0.00241   0.00000  -0.00714  -0.00746   1.85494
   A11        1.99050  -0.00258   0.00000  -0.01777  -0.01797   1.97253
   A12        1.91975   0.00006   0.00000  -0.01416  -0.01449   1.90526
   A13        1.88774  -0.00067   0.00000  -0.00550  -0.00531   1.88243
   A14        1.91652   0.00025   0.00000  -0.00738  -0.00787   1.90865
   A15        1.90104   0.00235   0.00000   0.02363   0.02362   1.92465
   A16        1.84208   0.00087   0.00000   0.02517   0.02513   1.86721
   A17        1.99360  -0.00176   0.00000  -0.01278  -0.01287   1.98073
   A18        1.91719  -0.00046   0.00000  -0.01272  -0.01280   1.90439
   A19        1.90688  -0.00047   0.00000  -0.00612  -0.00603   1.90085
   A20        1.91933   0.00075   0.00000   0.00113   0.00088   1.92021
   A21        1.88290   0.00135   0.00000   0.01279   0.01273   1.89563
   A22        1.83704   0.00082   0.00000   0.02096   0.02088   1.85792
   A23        2.02559  -0.00180   0.00000  -0.01191  -0.01196   2.01363
   A24        1.89770   0.00001   0.00000  -0.00396  -0.00399   1.89371
   A25        1.89706   0.00049   0.00000   0.00065   0.00063   1.89769
   A26        1.89945   0.00067   0.00000   0.00176   0.00169   1.90114
   A27        1.89841   0.00029   0.00000  -0.00016  -0.00020   1.89821
   A28        1.83636   0.00056   0.00000   0.01650   0.01650   1.85286
   A29        1.99424  -0.00104   0.00000  -0.00715  -0.00722   1.98702
   A30        1.88117   0.00036   0.00000   0.00702   0.00702   1.88819
   A31        1.91903   0.00083   0.00000   0.00065   0.00049   1.91952
   A32        1.90771   0.00054   0.00000   0.00614   0.00618   1.91389
   A33        1.91644  -0.00091   0.00000  -0.01490  -0.01495   1.90149
   A34        1.83842   0.00036   0.00000   0.01023   0.01025   1.84867
   A35        1.99367  -0.00066   0.00000  -0.00475  -0.00482   1.98885
   A36        1.91583  -0.00053   0.00000  -0.01207  -0.01215   1.90369
   A37        1.90537   0.00005   0.00000   0.00366   0.00367   1.90904
   A38        1.91248   0.00018   0.00000  -0.00441  -0.00453   1.90795
   A39        1.88444   0.00078   0.00000   0.01163   0.01163   1.89607
   A40        1.84599   0.00027   0.00000   0.00738   0.00741   1.85340
   A41        1.99531   0.00063   0.00000   0.00108   0.00105   1.99636
   A42        1.91164  -0.00028   0.00000  -0.00497  -0.00501   1.90663
   A43        1.89130   0.00051   0.00000   0.00965   0.00965   1.90095
   A44        1.91571  -0.00077   0.00000  -0.01130  -0.01133   1.90438
   A45        1.89931  -0.00065   0.00000  -0.00199  -0.00201   1.89729
   A46        1.84430   0.00058   0.00000   0.00851   0.00851   1.85281
   A47        1.96553   0.00036   0.00000   0.00129   0.00130   1.96683
   A48        1.91435  -0.00107   0.00000  -0.01157  -0.01158   1.90277
   A49        1.92213  -0.00050   0.00000  -0.00467  -0.00468   1.91744
   A50        1.90608   0.00065   0.00000   0.00635   0.00634   1.91242
   A51        1.89887   0.00036   0.00000   0.00658   0.00658   1.90544
   A52        1.85342   0.00022   0.00000   0.00229   0.00221   1.85562
   A53        1.94318  -0.00058   0.00000  -0.00481  -0.00483   1.93835
   A54        1.94394  -0.00065   0.00000  -0.00504  -0.00506   1.93888
   A55        1.93704   0.00085   0.00000   0.00756   0.00757   1.94461
   A56        1.88203   0.00012   0.00000  -0.00372  -0.00376   1.87827
   A57        1.87748   0.00009   0.00000   0.00261   0.00261   1.88009
   A58        1.87716   0.00019   0.00000   0.00363   0.00364   1.88080
    D1        3.13449  -0.00041   0.00000  -0.01871  -0.01860   3.11589
    D2        0.00951  -0.00029   0.00000  -0.00538  -0.00549   0.00402
    D3        3.01584  -0.00044   0.00000  -0.01110  -0.01078   3.00506
    D4        0.83858   0.00014   0.00000   0.00902   0.00877   0.84735
    D5       -1.15780   0.00053   0.00000   0.01234   0.01238  -1.14542
    D6       -0.14279  -0.00065   0.00000  -0.02513  -0.02489  -0.16767
    D7       -2.32005  -0.00008   0.00000  -0.00501  -0.00534  -2.32539
    D8        1.96675   0.00031   0.00000  -0.00170  -0.00172   1.96503
    D9       -1.23243   0.00166   0.00000   0.04668   0.04654  -1.18589
   D10        0.92941   0.00013   0.00000   0.01276   0.01280   0.94221
   D11        2.93304   0.00082   0.00000   0.03214   0.03203   2.96507
   D12        0.93208  -0.00039   0.00000   0.01196   0.01173   0.94382
   D13        3.09393  -0.00191   0.00000  -0.02196  -0.02201   3.07191
   D14       -1.18563  -0.00122   0.00000  -0.00258  -0.00278  -1.18841
   D15        2.97156   0.00141   0.00000   0.03101   0.03117   3.00273
   D16       -1.14978  -0.00012   0.00000  -0.00291  -0.00257  -1.15235
   D17        0.85385   0.00058   0.00000   0.01647   0.01666   0.87051
   D18        3.10011   0.00003   0.00000  -0.00595  -0.00589   3.09422
   D19       -1.01723  -0.00063   0.00000  -0.02394  -0.02378  -1.04101
   D20        0.98965  -0.00017   0.00000  -0.00929  -0.00923   0.98042
   D21        0.93653   0.00165   0.00000   0.03155   0.03150   0.96803
   D22        3.10238   0.00098   0.00000   0.01356   0.01361   3.11598
   D23       -1.17393   0.00144   0.00000   0.02821   0.02816  -1.14577
   D24       -1.07275  -0.00084   0.00000  -0.00770  -0.00782  -1.08057
   D25        1.09310  -0.00150   0.00000  -0.02570  -0.02572   1.06739
   D26        3.09998  -0.00104   0.00000  -0.01105  -0.01116   3.08882
   D27        1.05987  -0.00032   0.00000  -0.01857  -0.01856   1.04131
   D28       -3.07592  -0.00072   0.00000  -0.02801  -0.02797  -3.10390
   D29       -1.08564   0.00020   0.00000  -0.01031  -0.01029  -1.09593
   D30       -1.10484   0.00100   0.00000   0.00688   0.00691  -1.09793
   D31        1.04256   0.00060   0.00000  -0.00256  -0.00251   1.04005
   D32        3.03284   0.00152   0.00000   0.01514   0.01517   3.04802
   D33       -3.09961  -0.00110   0.00000  -0.02547  -0.02554  -3.12515
   D34       -0.95222  -0.00150   0.00000  -0.03492  -0.03496  -0.98717
   D35        1.03807  -0.00057   0.00000  -0.01721  -0.01728   1.02079
   D36        1.06915  -0.00072   0.00000  -0.02230  -0.02230   1.04685
   D37       -3.09011  -0.00044   0.00000  -0.01403  -0.01405  -3.10416
   D38       -1.09479   0.00060   0.00000   0.00222   0.00223  -1.09257
   D39       -1.07733   0.00003   0.00000  -0.00984  -0.00983  -1.08716
   D40        1.04660   0.00031   0.00000  -0.00157  -0.00158   1.04502
   D41        3.04191   0.00135   0.00000   0.01468   0.01470   3.05661
   D42       -3.06923  -0.00114   0.00000  -0.03014  -0.03014  -3.09937
   D43       -0.94530  -0.00086   0.00000  -0.02188  -0.02189  -0.96719
   D44        1.05001   0.00018   0.00000  -0.00563  -0.00561   1.04440
   D45        3.13551  -0.00024   0.00000  -0.00378  -0.00379   3.13172
   D46        0.97972   0.00041   0.00000   0.01488   0.01480   0.99452
   D47       -1.03629   0.00035   0.00000   0.01068   0.01064  -1.02565
   D48        1.02624  -0.00040   0.00000  -0.01249  -0.01247   1.01377
   D49       -1.12955   0.00026   0.00000   0.00616   0.00612  -1.12343
   D50        3.13763   0.00020   0.00000   0.00197   0.00196   3.13959
   D51       -0.98234  -0.00063   0.00000  -0.01993  -0.01985  -1.00219
   D52       -3.13813   0.00002   0.00000  -0.00128  -0.00126  -3.13939
   D53        1.12905  -0.00004   0.00000  -0.00548  -0.00542   1.12363
   D54       -1.17447   0.00073   0.00000   0.02889   0.02888  -1.14559
   D55        0.98351  -0.00004   0.00000   0.01093   0.01093   0.99444
   D56        2.98743   0.00077   0.00000   0.02364   0.02363   3.01106
   D57        0.98312  -0.00030   0.00000   0.00614   0.00615   0.98927
   D58        3.14110  -0.00108   0.00000  -0.01181  -0.01181   3.12930
   D59       -1.13816  -0.00026   0.00000   0.00090   0.00089  -1.13726
   D60        2.98577   0.00054   0.00000   0.01886   0.01887   3.00463
   D61       -1.13944  -0.00024   0.00000   0.00091   0.00091  -1.13853
   D62        0.86449   0.00058   0.00000   0.01362   0.01361   0.87810
   D63       -3.06925  -0.00040   0.00000  -0.01259  -0.01258  -3.08183
   D64       -0.94267  -0.00009   0.00000  -0.01184  -0.01183  -0.95451
   D65        1.09105  -0.00075   0.00000  -0.01859  -0.01856   1.07249
   D66        1.05815   0.00011   0.00000   0.00198   0.00196   1.06011
   D67       -3.09846   0.00042   0.00000   0.00273   0.00271  -3.09575
   D68       -1.06473  -0.00024   0.00000  -0.00402  -0.00402  -1.06875
   D69       -0.95237   0.00020   0.00000  -0.00091  -0.00092  -0.95329
   D70        1.17420   0.00051   0.00000  -0.00016  -0.00017   1.17403
   D71       -3.07526  -0.00015   0.00000  -0.00691  -0.00690  -3.08215
   D72       -1.04877   0.00015   0.00000   0.00240   0.00238  -1.04639
   D73        1.05255  -0.00053   0.00000  -0.00906  -0.00905   1.04350
   D74       -3.13965  -0.00015   0.00000  -0.00276  -0.00276   3.14077
   D75        3.10317   0.00082   0.00000   0.01177   0.01177   3.11494
   D76       -1.07870   0.00014   0.00000   0.00031   0.00034  -1.07836
   D77        1.01229   0.00051   0.00000   0.00662   0.00663   1.01892
   D78        1.08727   0.00001   0.00000   0.00199   0.00197   1.08924
   D79       -3.09460  -0.00067   0.00000  -0.00946  -0.00946  -3.10406
   D80       -1.00361  -0.00029   0.00000  -0.00316  -0.00317  -1.00678
         Item               Value     Threshold  Converged?
 Maximum Force            0.017981     0.000450     NO 
 RMS     Force            0.003109     0.000300     NO 
 Maximum Displacement     0.205388     0.001800     NO 
 RMS     Displacement     0.055314     0.001200     NO 
 Predicted change in Energy=-2.826536D-03
 GradGradGradGradGradGradGradGradGradGradGradGradGradGradGradGradGradGrad

                          Input orientation:                          
 ---------------------------------------------------------------------
 Center     Atomic      Atomic             Coordinates (Angstroms)
 Number     Number       Type             X           Y           Z
 ---------------------------------------------------------------------
      1          8           0        6.314969   -0.411627    0.823441
      2          6           0        5.087406   -0.417174    0.255840
      3          6           0        5.142340   -0.815597   -1.200330
      4          6           0        3.759938   -1.015003   -1.816313
      5          6           0        3.021936   -2.229114   -1.249364
      6          6           0        1.605156   -2.401619   -1.812884
      7          6           0        1.519993   -2.581543   -3.335964
      8          6           0        2.275529   -3.807854   -3.858049
      9          6           0        2.180552   -3.997785   -5.379196
     10          6           0        0.770876   -4.312141   -5.890599
     11          6           0        0.734734   -4.576292   -7.399218
     12          8           0        4.091627   -0.100187    0.871813
     13          1           0        6.192169   -0.124082    1.744474
     14          1           0        5.748623   -1.723928   -1.285820
     15          1           0        5.693910   -0.026865   -1.727358
     16          1           0        3.158692   -0.114228   -1.649921
     17          1           0        3.886765   -1.119574   -2.899746
     18          1           0        3.615410   -3.132510   -1.441490
     19          1           0        2.955181   -2.127471   -0.160451
     20          1           0        1.139506   -3.267875   -1.325447
     21          1           0        1.003227   -1.529632   -1.526230
     22          1           0        0.461746   -2.654688   -3.613241
     23          1           0        1.902450   -1.685436   -3.841455
     24          1           0        1.892817   -4.706137   -3.355145
     25          1           0        3.333857   -3.729020   -3.579973
     26          1           0        2.551847   -3.093796   -5.880767
     27          1           0        2.853619   -4.811883   -5.678990
     28          1           0        0.382856   -5.187920   -5.354516
     29          1           0        0.095113   -3.481884   -5.654136
     30          1           0        1.092263   -3.705767   -7.959944
     31          1           0        1.371606   -5.426835   -7.665852
     32          1           0       -0.281012   -4.799233   -7.741869
 ---------------------------------------------------------------------
                    Distance matrix (angstroms):
                    1          2          3          4          5
     1  O    0.000000
     2  C    1.352447   0.000000
     3  C    2.373583   1.510691   0.000000
     4  C    3.722975   2.532466   1.526511   0.000000
     5  C    4.294630   3.132879   2.548833   1.529753   0.000000
     6  C    5.752618   4.510400   3.924585   2.562382   1.534464
     7  C    6.708277   5.505632   4.560801   3.127418   2.594984
     8  C    7.054629   6.027226   4.922976   3.764595   3.139233
     9  C    8.272040   7.281772   6.030045   4.907707   4.570737
    10  C    9.540928   8.460609   7.303023   6.033690   5.563033
[...]
 Alpha virt. eigenvalues --    4.09853   4.15457   4.17556   4.18201   4.18359
 Alpha virt. eigenvalues --    4.21235   4.23746   4.25808   4.31050   4.33811
 Alpha virt. eigenvalues --    4.36033   4.37312   4.38888   4.41323   4.42759
 Alpha virt. eigenvalues --    4.43592   4.49767   4.51334   4.53404   4.54430
 Alpha virt. eigenvalues --    4.55509   4.58148   4.59987   4.60891   4.63627
 Alpha virt. eigenvalues --    4.66356   4.67924   4.69903   4.74703   4.76066
 Alpha virt. eigenvalues --    4.77429   4.77930   4.82117   4.83266   4.92077
 Alpha virt. eigenvalues --    4.93572   5.04619   5.12106   5.16951   5.21261
 Alpha virt. eigenvalues --    5.22201   5.38579   5.40915   5.50417   5.59297
 Alpha virt. eigenvalues --    5.74914   5.84489   5.86429   6.15022   6.19138
 Alpha virt. eigenvalues --    6.32752   6.33610   6.44149   6.48758   6.64393
 Alpha virt. eigenvalues --    6.68746   6.73760   6.81802   6.88231   7.07509
 Alpha virt. eigenvalues --    7.09080   7.26693  22.41057  22.49777  22.51347
 Alpha virt. eigenvalues --   22.57543  22.58908  22.59718  22.60674  22.62502
 Alpha virt. eigenvalues --   22.67258  23.27716  43.93973  44.02008
          Condensed to atoms (all electrons):
               1          2          3          4          5          6
     1  O    7.936249   0.380716  -0.128460   0.011133   0.000838  -0.000019
     2  C    0.380716   4.482895   0.246975  -0.030880   0.009222  -0.000543
     3  C   -0.128460   0.246975   5.407496   0.170705  -0.039181   0.009571
     4  C    0.011133  -0.030880   0.170705   5.297929   0.170417  -0.039330
     5  C    0.000838   0.009222  -0.039181   0.170417   5.370269   0.206557
     6  C   -0.000019  -0.000543   0.009571  -0.039330   0.206557   5.205538
     7  C    0.000005   0.000364  -0.002510   0.026884  -0.064323   0.199994
     8  C   -0.000000   0.000013   0.000258  -0.011776   0.032153  -0.041047
     9  C    0.000000  -0.000002   0.000007   0.000030  -0.002287   0.009656
    10  C    0.000000   0.000000  -0.000002   0.000127   0.000012  -0.000746
    11  C    0.000000   0.000000  -0.000000   0.000001   0.000000   0.000020
    12  O   -0.088401   0.649896  -0.113092   0.022274  -0.006308  -0.001114
    13  H    0.289136  -0.029219   0.020978  -0.002112   0.000147  -0.000009
    14  H    0.005527  -0.031849   0.410958  -0.037318  -0.006008  -0.000147
    15  H    0.003090  -0.019557   0.407061  -0.042226   0.007793  -0.000416
    16  H    0.000276  -0.013357  -0.013466   0.418261  -0.057718   0.007280
    17  H   -0.000121   0.008881  -0.046660   0.427156  -0.032966  -0.015359
    18  H   -0.000068  -0.002512   0.004052  -0.066210   0.418921  -0.024898
    19  H   -0.000572   0.004526  -0.007563  -0.035884   0.435639  -0.041614
    20  H   -0.000000  -0.000067  -0.000517   0.011266  -0.068517   0.444069
    21  H    0.000003   0.000145  -0.000489  -0.007334  -0.039814   0.450130
    22  H   -0.000000   0.000009   0.000011  -0.000676   0.011108  -0.045666
    23  H    0.000000  -0.000151   0.000903  -0.000002  -0.013971  -0.028432
    24  H   -0.000000  -0.000007   0.000033   0.000366  -0.005167   0.008853
    25  H   -0.000000   0.000068   0.000182  -0.003339   0.011836  -0.017363
    26  H   -0.000000   0.000000  -0.000006  -0.000166   0.000170  -0.000067
    27  H    0.000000  -0.000000  -0.000002   0.000045  -0.000072  -0.000242
    28  H   -0.000000  -0.000000   0.000000  -0.000014   0.000072  -0.000218
    29  H    0.000000  -0.000000   0.000000   0.000019  -0.000125   0.000921
    30  H   -0.000000   0.000000   0.000000  -0.000001   0.000002  -0.000009
    31  H    0.000000  -0.000000   0.000000   0.000000  -0.000001   0.000005
    32  H    0.000000  -0.000000   0.000000   0.000000  -0.000000  -0.000004
               7          8          9         10         11         12
     1  O    0.000005  -0.000000   0.000000   0.000000   0.000000  -0.088401
     2  C    0.000364   0.000013  -0.000002   0.000000   0.000000   0.649896
     3  C   -0.002510   0.000258   0.000007  -0.000002  -0.000000  -0.113092
     4  C    0.026884  -0.011776   0.000030   0.000127   0.000001   0.022274
     5  C   -0.064323   0.032153  -0.002287   0.000012   0.000000  -0.006308
     6  C    0.199994  -0.041047   0.009656  -0.000746   0.000020  -0.001114
     7  C    5.399505   0.159572  -0.046786   0.014149   0.000047   0.000218
     8  C    0.159572   5.289668   0.235534  -0.051433   0.010027  -0.000017
     9  C   -0.046786   0.235534   5.210776   0.237236  -0.051434   0.000000
    10  C    0.014149  -0.051433   0.237236   5.179363   0.268544   0.000000
    11  C    0.000047   0.010027  -0.051434   0.268544   5.028959   0.000000
    12  O    0.000218  -0.000017   0.000000   0.000000   0.000000   7.852317
    13  H   -0.000001   0.000000  -0.000000   0.000000   0.000000   0.006097
    14  H    0.000249  -0.000129   0.000000   0.000000  -0.000000   0.002883
    15  H    0.000039   0.000016  -0.000001  -0.000000   0.000000   0.001758
    16  H   -0.004467   0.000278   0.000045  -0.000010  -0.000000   0.005322
    17  H    0.011182  -0.003124   0.000032   0.000074   0.000001   0.000348
    18  H   -0.013755  -0.000870   0.000754  -0.000131   0.000001   0.000668
    19  H    0.008988  -0.000181   0.000021   0.000006  -0.000000   0.003970
    20  H   -0.036271  -0.008733  -0.000187   0.000120  -0.000003  -0.000013
    21  H   -0.071266   0.011207  -0.000652  -0.000015  -0.000004   0.000550
    22  H    0.435302  -0.040019  -0.006332  -0.001447   0.000616   0.000001
    23  H    0.424633  -0.066539   0.004400  -0.002332  -0.000090  -0.000004
    24  H   -0.069583   0.430058  -0.027686  -0.011677  -0.000145   0.000000
    25  H   -0.036139   0.427387  -0.044653   0.009173  -0.000425   0.000001
    26  H   -0.013387  -0.028946   0.426826  -0.057360  -0.003429  -0.000000
    27  H    0.010490  -0.051613   0.432313  -0.041445  -0.004340   0.000000
    28  H   -0.003822   0.007347  -0.057233   0.421025  -0.039058  -0.000000
    29  H    0.003295  -0.010113  -0.046633   0.426338  -0.036224   0.000000
    30  H   -0.000012   0.000106  -0.006491  -0.039685   0.412835   0.000000
    31  H   -0.000020  -0.000325  -0.007333  -0.044785   0.419857   0.000000
    32  H    0.000045  -0.000894   0.012754  -0.052288   0.423038  -0.000000
              13         14         15         16         17         18
     1  O    0.289136   0.005527   0.003090   0.000276  -0.000121  -0.000068
     2  C   -0.029219  -0.031849  -0.019557  -0.013357   0.008881  -0.002512
     3  C    0.020978   0.410958   0.407061  -0.013466  -0.046660   0.004052
     4  C   -0.002112  -0.037318  -0.042226   0.418261   0.427156  -0.066210
     5  C    0.000147  -0.006008   0.007793  -0.057718  -0.032966   0.418921
     6  C   -0.000009  -0.000147  -0.000416   0.007280  -0.015359  -0.024898
     7  C   -0.000001   0.000249   0.000039  -0.004467   0.011182  -0.013755
     8  C    0.000000  -0.000129   0.000016   0.000278  -0.003124  -0.000870
     9  C   -0.000000   0.000000  -0.000001   0.000045   0.000032   0.000754
    10  C    0.000000   0.000000  -0.000000  -0.000010   0.000074  -0.000131
    11  C    0.000000  -0.000000   0.000000  -0.000000   0.000001   0.000001
    12  O    0.006097   0.002883   0.001758   0.005322   0.000348   0.000668
    13  H    0.381870  -0.000828  -0.000607  -0.000038   0.000034  -0.000005
    14  H   -0.000828   0.493010  -0.015197   0.005396  -0.002114   0.001213
    15  H   -0.000607  -0.015197   0.489651  -0.002583  -0.005083   0.000100
    16  H   -0.000038   0.005396  -0.002583   0.499113  -0.021613   0.006008
    17  H    0.000034  -0.002114  -0.005083  -0.021613   0.533050  -0.001642
    18  H   -0.000005   0.001213   0.000100   0.006008  -0.001642   0.543443
    19  H    0.000050   0.000304   0.000113  -0.000142   0.003640  -0.018456
    20  H    0.000000   0.000014   0.000010   0.000114  -0.000509  -0.001857
    21  H   -0.000000  -0.000027   0.000036   0.000795   0.001111   0.005662
    22  H    0.000000  -0.000001  -0.000002  -0.000258   0.000606  -0.000755
    23  H   -0.000000   0.000008   0.000011   0.001613  -0.009188   0.002148
    24  H   -0.000000   0.000003  -0.000000   0.000018  -0.000032   0.001549
    25  H    0.000000   0.000201  -0.000018  -0.000060   0.001449  -0.009867
    26  H    0.000000  -0.000002  -0.000000   0.000003   0.000360   0.000016
    27  H   -0.000000   0.000000   0.000000   0.000000  -0.000041   0.000038
    28  H    0.000000  -0.000000  -0.000000   0.000000   0.000002   0.000003
    29  H   -0.000000   0.000000   0.000000   0.000000  -0.000014   0.000006
    30  H   -0.000000  -0.000000  -0.000000   0.000000   0.000000  -0.000000
    31  H   -0.000000   0.000000   0.000000  -0.000000  -0.000000   0.000000
    32  H   -0.000000   0.000000  -0.000000  -0.000000   0.000000  -0.000000
              19         20         21         22         23         24
     1  O   -0.000572  -0.000000   0.000003  -0.000000   0.000000  -0.000000
     2  C    0.004526  -0.000067   0.000145   0.000009  -0.000151  -0.000007
     3  C   -0.007563  -0.000517  -0.000489   0.000011   0.000903   0.000033
     4  C   -0.035884   0.011266  -0.007334  -0.000676  -0.000002   0.000366
     5  C    0.435639  -0.068517  -0.039814   0.011108  -0.013971  -0.005167
     6  C   -0.041614   0.444069   0.450130  -0.045666  -0.028432   0.008853
     7  C    0.008988  -0.036271  -0.071266   0.435302   0.424633  -0.069583
     8  C   -0.000181  -0.008733   0.011207  -0.040019  -0.066539   0.430058
     9  C    0.000021  -0.000187  -0.000652  -0.006332   0.004400  -0.027686
    10  C    0.000006   0.000120  -0.000015  -0.001447  -0.002332  -0.011677
    11  C   -0.000000  -0.000003  -0.000004   0.000616  -0.000090  -0.000145
    12  O    0.003970  -0.000013   0.000550   0.000001  -0.000004   0.000000
    13  H    0.000050   0.000000  -0.000000   0.000000  -0.000000  -0.000000
    14  H    0.000304   0.000014  -0.000027  -0.000001   0.000008   0.000003
    15  H    0.000113   0.000010   0.000036  -0.000002   0.000011  -0.000000
    16  H   -0.000142   0.000114   0.000795  -0.000258   0.001613   0.000018
    17  H    0.003640  -0.000509   0.001111   0.000606  -0.009188  -0.000032
    18  H   -0.018456  -0.001857   0.005662  -0.000755   0.002148   0.001549
    19  H    0.483397  -0.006110  -0.003623  -0.000047  -0.000727  -0.000209
    20  H   -0.006110   0.529775  -0.016513  -0.004030   0.005466   0.001310
    21  H   -0.003623  -0.016513   0.520512  -0.006282  -0.001188   0.000073
    22  H   -0.000047  -0.004030  -0.006282   0.525120  -0.020261   0.000084
    23  H   -0.000727   0.005466  -0.001188  -0.020261   0.535357   0.006694
    24  H   -0.000209   0.001310   0.000073   0.000084   0.006694   0.527979
    25  H    0.000603   0.001262  -0.000551   0.004469  -0.001268  -0.021037
    26  H   -0.000000  -0.000023   0.000022   0.001614   0.002311   0.006071
    27  H   -0.000002   0.000029   0.000015  -0.000511   0.000159  -0.002348
    28  H   -0.000000  -0.000003   0.000012   0.001243   0.000134   0.001704
    29  H   -0.000000   0.000047  -0.000019  -0.006425   0.000569   0.001270
    30  H   -0.000000   0.000000   0.000000   0.000081  -0.000016  -0.000045
    31  H   -0.000000   0.000000  -0.000000  -0.000059   0.000009   0.000124
    32  H   -0.000000   0.000000   0.000000  -0.000004   0.000005   0.000019
              25         26         27         28         29         30
     1  O   -0.000000  -0.000000   0.000000  -0.000000   0.000000  -0.000000
     2  C    0.000068   0.000000  -0.000000  -0.000000  -0.000000   0.000000
     3  C    0.000182  -0.000006  -0.000002   0.000000   0.000000   0.000000
     4  C   -0.003339  -0.000166   0.000045  -0.000014   0.000019  -0.000001
     5  C    0.011836   0.000170  -0.000072   0.000072  -0.000125   0.000002
     6  C   -0.017363  -0.000067  -0.000242  -0.000218   0.000921  -0.000009
     7  C   -0.036139  -0.013387   0.010490  -0.003822   0.003295  -0.000012
     8  C    0.427387  -0.028946  -0.051613   0.007347  -0.010113   0.000106
     9  C   -0.044653   0.426826   0.432313  -0.057233  -0.046633  -0.006491
    10  C    0.009173  -0.057360  -0.041445   0.421025   0.426338  -0.039685
    11  C   -0.000425  -0.003429  -0.004340  -0.039058  -0.036224   0.412835
    12  O    0.000001  -0.000000   0.000000  -0.000000   0.000000   0.000000
    13  H    0.000000   0.000000  -0.000000   0.000000  -0.000000  -0.000000
    14  H    0.000201  -0.000002   0.000000  -0.000000   0.000000  -0.000000
    15  H   -0.000018  -0.000000   0.000000  -0.000000   0.000000  -0.000000
    16  H   -0.000060   0.000003   0.000000   0.000000   0.000000   0.000000
    17  H    0.001449   0.000360  -0.000041   0.000002  -0.000014   0.000000
    18  H   -0.009867   0.000016   0.000038   0.000003   0.000006  -0.000000
    19  H    0.000603  -0.000000  -0.000002  -0.000000  -0.000000  -0.000000
    20  H    0.001262  -0.000023   0.000029  -0.000003   0.000047   0.000000
    21  H   -0.000551   0.000022   0.000015   0.000012  -0.000019   0.000000
    22  H    0.004469   0.001614  -0.000511   0.001243  -0.006425   0.000081
    23  H   -0.001268   0.002311   0.000159   0.000134   0.000569  -0.000016
    24  H   -0.021037   0.006071  -0.002348   0.001704   0.001270  -0.000045
    25  H    0.546452  -0.002800  -0.008672   0.000255  -0.000583   0.000021
    26  H   -0.002800   0.544310  -0.023897   0.007555  -0.002944   0.002467
    27  H   -0.008672  -0.023897   0.544300  -0.003616   0.006404   0.000181
    28  H    0.000255   0.007555  -0.003616   0.568676  -0.033004   0.007668
    29  H   -0.000583  -0.002944   0.006404  -0.033004   0.567920  -0.006205
    30  H    0.000021   0.002467   0.000181   0.007668  -0.006205   0.549922
    31  H   -0.000052   0.000364   0.003193  -0.006167   0.007977  -0.032296
    32  H    0.000017  -0.000195  -0.000095  -0.004184  -0.004457  -0.024546
              31         32
     1  O    0.000000   0.000000
     2  C   -0.000000  -0.000000
     3  C    0.000000   0.000000
     4  C    0.000000   0.000000
     5  C   -0.000001  -0.000000
     6  C    0.000005  -0.000004
     7  C   -0.000020   0.000045
     8  C   -0.000325  -0.000894
     9  C   -0.007333   0.012754
    10  C   -0.044785  -0.052288
    11  C    0.419857   0.423038
    12  O    0.000000  -0.000000
    13  H   -0.000000  -0.000000
    14  H    0.000000   0.000000
    15  H    0.000000  -0.000000
    16  H   -0.000000  -0.000000
    17  H   -0.000000   0.000000
    18  H    0.000000  -0.000000
    19  H   -0.000000  -0.000000
    20  H    0.000000   0.000000
    21  H   -0.000000   0.000000
    22  H   -0.000059  -0.000004
    23  H    0.000009   0.000005
    24  H    0.000124   0.000019
    25  H   -0.000052   0.000017
    26  H    0.000364  -0.000195
    27  H    0.003193  -0.000095
    28  H   -0.006167  -0.004184
    29  H    0.007977  -0.004457
    30  H   -0.032296  -0.024546
    31  H    0.548046  -0.025064
    32  H   -0.025064   0.534448
 Mulliken charges:
               1
     1  O   -0.409332
     2  C    0.344435
     3  C   -0.327243
     4  C   -0.279347
     5  C   -0.338698
     6  C   -0.285352
     7  C   -0.332621
     8  C   -0.287864
     9  C   -0.272673
    10  C   -0.252810
    11  C   -0.428793
    12  O   -0.337354
    13  H    0.334507
    14  H    0.173854
    15  H    0.176013
    16  H    0.169189
    17  H    0.150539
    18  H    0.156446
    19  H    0.173874
    20  H    0.149867
    21  H    0.157506
    22  H    0.152516
    23  H    0.159748
    24  H    0.151728
    25  H    0.143450
    26  H    0.141133
    27  H    0.139729
    28  H    0.131622
    29  H    0.131979
    30  H    0.136021
    31  H    0.136525
    32  H    0.141404
 Sum of Mulliken charges =  -0.00000
 Mulliken charges with hydrogens summed into heavy atoms:
               1
     1  O   -0.074825
     2  C    0.344435
     3  C    0.022624
     4  C    0.040380
     5  C   -0.008378
     6  C    0.022022
     7  C   -0.020357
     8  C    0.007315
     9  C    0.008189
    10  C    0.010792
    11  C   -0.014843
    12  O   -0.337354
 Electronic spatial extent (au):  <R**2>=           4725.2718
 Charge=              0.0000 electrons
 Dipole moment (field-independent basis, Debye):
    X=             -0.2821    Y=             -1.2985    Z=              0.3982  Tot=              1.3871
 Quadrupole moment (field-independent basis, Debye-Ang):
   XX=            -75.2255   YY=            -80.2682   ZZ=            -77.2728
   XY=             -4.8120   XZ=              1.9306   YZ=              1.9793
 Traceless Quadrupole moment (field-independent basis, Debye-Ang):
   XX=              2.3633   YY=             -2.6794   ZZ=              0.3161
   XY=             -4.8120   XZ=              1.9306   YZ=              1.9793
 Octapole moment (field-independent basis, Debye-Ang**2):
  XXX=            101.9899  YYY=             -1.2425  ZZZ=             -0.5674  XYY=             -0.9519
  XXY=             -7.4715  XXZ=             16.7341  XZZ=             12.4028  YZZ=             -1.3885
  YYZ=             -0.4160  XYZ=              9.4771
 Hexadecapole moment (field-independent basis, Debye-Ang**3):
 XXXX=          -5082.1599 YYYY=           -479.6834 ZZZZ=           -234.2781 XXXY=            -65.6794
 XXXZ=             77.2616 YYYX=            -11.4201 YYYZ=             -1.0681 ZZZX=             -2.0865
 ZZZY=             -0.0852 XXYY=          -1088.7579 XXZZ=           -964.1627 YYZZ=           -112.9969
 XXYZ=             31.1500 YYXZ=             -4.2813 ZZXY=             -3.5679
 N-N= 7.026152300152D+02 E-N=-2.670180105649D+03  KE= 5.405751356691D+02
 Unable to Open any file for archive entry.
 1\1\GINC-NOTCH075\SP\RM062X\def2TZVP\C10H20O2\U6032257\05-Feb-2022\0\\
 # M062X/def2tzvp int=(grid=ultrafine) nmr=giao guess=read geom=check\\
 Ac1.xyz\\0,1\O,0,6.2865652309,-0.4131747192,0.8642114239\C,0,5.0780718
 441,-0.3572630351,0.2506716789\C,0,5.1585266249,-0.8409976024,-1.18011
 64287\C,0,3.7870485185,-1.0508851761,-1.8225880759\C,0,3.0306450592,-2
 .2504993613,-1.2423096951\C,0,1.6115923503,-2.4193225641,-1.8037109704
 \C,0,1.5157599067,-2.5890979547,-3.3276861743\C,0,2.2796753311,-3.8008
 407413,-3.8730056881\C,0,2.1699492439,-3.982096591,-5.3931263311\C,0,0
 .7614987372,-4.315747289,-5.8972894108\C,0,0.7181769309,-4.5650230237,
 -7.4064166164\O,0,4.086813548,0.0573590347,0.8110103045\H,0,6.14733004
 28,-0.0628162186,1.7602879032\H,0,5.7581736872,-1.758360143,-1.1980440
 45\H,0,5.7437231424,-0.0929957533,-1.7304372338\H,0,3.1892300485,-0.14
 26852968,-1.686688301\H,0,3.9292486381,-1.1820332368,-2.9007580714\H,0
 ,3.6154657647,-3.1631647136,-1.417233154\H,0,2.9609889819,-2.129836275
 3,-0.1561588378\H,0,1.1455941337,-3.2882848438,-1.3207662279\H,0,1.012
 430679,-1.5485915667,-1.5075785563\H,0,0.4559735446,-2.6726779785,-3.5
 947999126\H,0,1.878690918,-1.6820791425,-3.8293544737\H,0,1.9202514206
 ,-4.7106452266,-3.3710670901\H,0,3.3404323632,-3.7096960862,-3.6093572
 537\H,0,2.5252847062,-3.0697154216,-5.8933180433\H,0,2.8526225079,-4.7
 833940471,-5.7062591811\H,0,0.3916355935,-5.2032319822,-5.3659063743\H
 ,0,0.0718324761,-3.501205166,-5.646044371\H,0,1.0575254264,-3.68280030
 07,-7.960873071\H,0,1.3696190624,-5.4002433423,-7.6872836895\H,0,-0.29
 4676463,-4.8026542352,-7.7467040324\\Version=ES64L-G16RevC.01\State=1-
 A\HF=-543.54316\RMSD=2.788e-09\Dipole=0.4168263,-0.2098731,-0.2829156\
 Quadrupole=1.6138337,-0.844984,-0.7688497,2.3880557,3.1030358,-1.81488
 29\PG=C01 [X(C10H20O2)]\\@
 The archive entry for this job was punched.


 TERRY FORSTER, PORTLY ATLANTA BRAVES RELIEVER,
 ANNOUNCING THAT HE WAS GOING TO A FAT FARM:
 "A WAIST IS A TERRIBLE THING TO MIND."
 Job cpu time:       0 days  0 hours 36 minutes 17.5 seconds.
 Elapsed time:       0 days  0 hours  1 minutes 18.5 seconds.
 File lengths (MBytes):  RWF=    140 Int=      0 D2E=      0 Chk=     24 Scr=      1
 Normal termination of Gaussian 16 at Sat Feb  5 09:00:05 2022.
