 Entering Gaussian System, Link 0=/uufs/chpc.utah.edu/sys/installdir/gaussian16/C01/AVX2/g16/g16
 Input=Ac1_clust-17.com
 Output=Ac1_clust-17.log
 Initial command:
 /uufs/chpc.utah.edu/sys/installdir/gaussian16/C01/AVX2/g16/l1.exe "/scratch/general/lustre/u6032257/3857472/notchpeak.peaks/Gau-182859.inp" -scrdir="/scratch/general/lustre/u6032257/3857472/notchpeak.peaks/"
 Entering Link 1 = /uufs/chpc.utah.edu/sys/installdir/gaussian16/C01/AVX2/g16/l1.exe PID=    182861.
  
 Copyright (c) 1988-2019, Gaussian, Inc.  All Rights Reserved.
  
 This is part of the Gaussian(R) 16 program.  It is based on
 the Gaussian(R) 09 system (copyright 2009, Gaussian, Inc.),
 the Gaussian(R) 03 system (copyright 2003, Gaussian, Inc.),
 the Gaussian(R) 98 system (copyright 1998, Gaussian, Inc.),
 the Gaussian(R) 94 system (copyright 1995, Gaussian, Inc.),
 the Gaussian 92(TM) system (copyright 1992, Gaussian, Inc.),
 the Gaussian 90(TM) system (copyright 1990, Gaussian, Inc.),
 the Gaussian 88(TM) system (copyright 1988, Gaussian, Inc.),
 the Gaussian 86(TM) system (copyright 1986, Carnegie Mellon
 University), and the Gaussian 82(TM) system (copyright 1983,
 Carnegie Mellon University). Gaussian is a federally registered
 trademark of Gaussian, Inc.
  
 This software contains proprietary and confidential information,
 including trade secrets, belonging to Gaussian, Inc.
  
 This software is provided under written license and may be
 used, copied, transmitted, or stored only in accord with that
 written license.
  
 The following legend is applicable only to US Government
 contracts under FAR:
  
                    RESTRICTED RIGHTS LEGEND
  
 Use, reproduction and disclosure by the US Government is
 subject to restrictions as set forth in subparagraphs (a)
 and (c) of the Commercial Computer Software - Restricted
 Rights clause in FAR 52.227-19.
  
 Gaussian, Inc.
 340 Quinnipiac St., Bldg. 40, Wallingford CT 06492
  
  
 ---------------------------------------------------------------
 Warning -- This program may not be used in any manner that
 competes with the business of Gaussian, Inc. or will provide
 assistance to any competitor of Gaussian, Inc.  The licensee
 of this program is prohibited from giving any competitor of
 Gaussian, Inc. access to this program.  By using this program,
 the user acknowledges that Gaussian, Inc. is engaged in the
 business of creating and licensing software in the field of
 computational chemistry and represents and warrants to the
 licensee that it is not a competitor of Gaussian, Inc. and that
 it will not use this program in any manner prohibited above.
 ---------------------------------------------------------------
  

 Cite this work as:
 Gaussian 16, Revision C.01,
 M. J. Frisch, G. W. Trucks, H. B. Schlegel, G. E. Scuseria, 
 M. A. Robb, J. R. Cheeseman, G. Scalmani, V. Barone, 
 G. A. Petersson, H. Nakatsuji, X. Li, M. Caricato, A. V. Marenich, 
 J. Bloino, B. G. Janesko, R. Gomperts, B. Mennucci, H. P. Hratchian, 
 J. V. Ortiz, A. F. Izmaylov, J. L. Sonnenberg, D. Williams-Young, 
 F. Ding, F. Lipparini, F. Egidi, J. Goings, B. Peng, A. Petrone, 
 T. Henderson, D. Ranasinghe, V. G. Zakrzewski, J. Gao, N. Rega, 
 G. Zheng, W. Liang, M. Hada, M. Ehara, K. Toyota, R. Fukuda, 
 J. Hasegawa, M. Ishida, T. Nakajima, Y. Honda, O. Kitao, H. Nakai, 
 T. Vreven, K. Throssell, J. A. Montgomery, Jr., J. E. Peralta, 
 F. Ogliaro, M. J. Bearpark, J. J. Heyd, E. N. Brothers, K. N. Kudin, 
 V. N. Staroverov, T. A. Keith, R. Kobayashi, J. Normand, 
 K. Raghavachari, A. P. Rendell, J. C. Burant, S. S. Iyengar, 
 J. Tomasi, M. Cossi, J. M. Millam, M. Klene, C. Adamo, R. Cammi, 
 J. W. Ochterski, R. L. Martin, K. Morokuma, O. Farkas, 
 J. B. Foresman, and D. J. Fox, Gaussian, Inc., Wallingford CT, 2019.
 
 ******************************************
 Gaussian 16:  ES64L-G16RevC.01  3-Jul-2019
                 3-Feb-2022 
 ******************************************
 %NProcShared=32
 Will use up to   32 processors via shared memory.
 %mem=16GB
 %chk=Ac1_clust-17.chk
 ----------------------------------------------------------------------
 # B3LYP/6-31G(d,p) empiricaldispersion=GD3BJ int=(grid=ultrafine) opt 
 freq=noraman
 ----------------------------------------------------------------------
 1/18=20,19=15,26=4,38=1/1,3;
 2/9=110,12=2,17=6,18=5,40=1/2;
 3/5=1,6=6,7=101,11=2,25=1,30=1,71=1,74=-5,75=-5,124=41/1,2,3;
 4//1;
 5/5=2,38=5/2;
 6/7=2,8=2,9=2,10=2,28=1/1;
 7//1,2,3,16;
 1/18=20,19=15,26=4/3(2);
 2/9=110/2;
 99//99;
 2/9=110/2;
 3/5=1,6=6,7=101,11=2,25=1,30=1,71=1,74=-5,75=-5,124=41/1,2,3;
 4/5=5,16=3,69=1/1;
 5/5=2,38=5/2;
 7//1,2,3,16;
 1/18=20,19=15,26=4/3(-5);
 2/9=110/2;
 6/7=2,8=2,9=2,10=2,19=2,28=1/1;
 99/9=1/99;
 -------
 Ac1.xyz
 -------
 Symbolic Z-matrix:
 Charge =  0 Multiplicity = 1
 O                     5.782    -1.0684   -0.6747 
 C                     4.7074   -0.6252    0.0134 
 C                     3.9472   -1.7506    0.7093 
 C                     3.3672   -2.844    -0.2262 
 C                     2.0381   -2.4834   -0.9302 
 C                     2.1091   -1.3987   -2.028 
 C                     3.0647   -1.6985   -3.2052 
 C                     2.7932   -3.0082   -3.9753 
 C                     1.4142   -3.063    -4.6645 
 C                     1.1489   -4.3681   -5.4398 
 C                     2.0481   -4.5629   -6.6712 
 O                     4.4       0.5552    0.0887 
 H                     6.1627   -0.2731   -1.0479 
 H                     3.1643   -1.3164    1.3308 
 H                     4.6635   -2.2011    1.3956 
 H                     4.1106   -3.1704   -0.9564 
 H                     3.1779   -3.7295    0.3832 
 H                     1.617    -3.3908   -1.3658 
 H                     1.312    -2.1725   -0.1772 
 H                     1.1045   -1.2315   -2.4183 
 H                     2.3853   -0.4443   -1.579 
 H                     3.0289   -0.8626   -3.9059 
 H                     4.0913   -1.715    -2.8382 
 H                     2.9051   -3.8613   -3.3047 
 H                     3.5758   -3.1246   -4.7258 
 H                     0.6322   -2.9519   -3.9123 
 H                     1.3033   -2.21     -5.3362 
 H                     1.2551   -5.2229   -4.7697 
 H                     0.1072   -4.3763   -5.7652 
 H                     1.9689   -3.7195   -7.3581 
 H                     3.0965   -4.6716   -6.3934 
 H                     1.7647   -5.4614   -7.2203 
 

 GradGradGradGradGradGradGradGradGradGradGradGradGradGradGradGradGradGrad
 Berny optimization.
 Initialization pass.
                           ----------------------------
                           !    Initial Parameters    !
                           ! (Angstroms and Degrees)  !
 --------------------------                            --------------------------
 ! Name  Definition              Value          Derivative Info.                !
 --------------------------------------------------------------------------------
 ! R1    R(1,2)                  1.3508         estimate D2E/DX2                !
 ! R2    R(1,13)                 0.9575         estimate D2E/DX2                !
 ! R3    R(2,3)                  1.526          estimate D2E/DX2                !
 ! R4    R(2,12)                 1.2221         estimate D2E/DX2                !
 ! R5    R(3,4)                  1.5515         estimate D2E/DX2                !
 ! R6    R(3,14)                 1.0898         estimate D2E/DX2                !
 ! R7    R(3,15)                 1.0895         estimate D2E/DX2                !
 ! R8    R(4,5)                  1.5467         estimate D2E/DX2                !
 ! R9    R(4,16)                 1.092          estimate D2E/DX2                !
 ! R10   R(4,17)                 1.0915         estimate D2E/DX2                !
 ! R11   R(5,6)                  1.5449         estimate D2E/DX2                !
 ! R12   R(5,18)                 1.0911         estimate D2E/DX2                !
 ! R13   R(5,19)                 1.0913         estimate D2E/DX2                !
 ! R14   R(6,7)                  1.5456         estimate D2E/DX2                !
 ! R15   R(6,20)                 1.0906         estimate D2E/DX2                !
 ! R16   R(6,21)                 1.0903         estimate D2E/DX2                !
 ! R17   R(7,8)                  1.5434         estimate D2E/DX2                !
 ! R18   R(7,22)                 1.0913         estimate D2E/DX2                !
 ! R19   R(7,23)                 1.0904         estimate D2E/DX2                !
 ! R20   R(8,9)                  1.5426         estimate D2E/DX2                !
 ! R21   R(8,24)                 1.0909         estimate D2E/DX2                !
 ! R22   R(8,25)                 1.0905         estimate D2E/DX2                !
 ! R23   R(9,10)                 1.541          estimate D2E/DX2                !
 ! R24   R(9,26)                 1.0907         estimate D2E/DX2                !
 ! R25   R(9,27)                 1.0914         estimate D2E/DX2                !
 ! R26   R(10,11)                1.5372         estimate D2E/DX2                !
 ! R27   R(10,28)                1.0913         estimate D2E/DX2                !
 ! R28   R(10,29)                1.0914         estimate D2E/DX2                !
 ! R29   R(11,30)                1.0906         estimate D2E/DX2                !
 ! R30   R(11,31)                1.09           estimate D2E/DX2                !
 ! R31   R(11,32)                1.0905         estimate D2E/DX2                !
 ! A1    A(2,1,13)             104.0245         estimate D2E/DX2                !
 ! A2    A(1,2,3)              112.7452         estimate D2E/DX2                !
 ! A3    A(1,2,12)             123.2572         estimate D2E/DX2                !
 ! A4    A(3,2,12)             123.9808         estimate D2E/DX2                !
 ! A5    A(2,3,4)              115.5308         estimate D2E/DX2                !
 ! A6    A(2,3,14)             108.9113         estimate D2E/DX2                !
 ! A7    A(2,3,15)             105.3479         estimate D2E/DX2                !
 ! A8    A(4,3,14)             110.86           estimate D2E/DX2                !
 ! A9    A(4,3,15)             109.5236         estimate D2E/DX2                !
 ! A10   A(14,3,15)            106.1293         estimate D2E/DX2                !
 ! A11   A(3,4,5)              115.5564         estimate D2E/DX2                !
 ! A12   A(3,4,16)             111.0611         estimate D2E/DX2                !
 ! A13   A(3,4,17)             107.4536         estimate D2E/DX2                !
 ! A14   A(5,4,16)             110.5084         estimate D2E/DX2                !
 ! A15   A(5,4,17)             107.1124         estimate D2E/DX2                !
 ! A16   A(16,4,17)            104.414          estimate D2E/DX2                !
 ! A17   A(4,5,6)              116.5926         estimate D2E/DX2                !
 ! A18   A(4,5,18)             108.6318         estimate D2E/DX2                !
 ! A19   A(4,5,19)             108.9121         estimate D2E/DX2                !
 ! A20   A(6,5,18)             108.5393         estimate D2E/DX2                !
 ! A21   A(6,5,19)             108.7154         estimate D2E/DX2                !
 ! A22   A(18,5,19)            104.8102         estimate D2E/DX2                !
 ! A23   A(5,6,7)              115.6863         estimate D2E/DX2                !
 ! A24   A(5,6,20)             108.6385         estimate D2E/DX2                !
 ! A25   A(5,6,21)             109.4877         estimate D2E/DX2                !
 ! A26   A(7,6,20)             109.0666         estimate D2E/DX2                !
 ! A27   A(7,6,21)             109.0762         estimate D2E/DX2                !
 ! A28   A(20,6,21)            104.2713         estimate D2E/DX2                !
 ! A29   A(6,7,8)              115.841          estimate D2E/DX2                !
 ! A30   A(6,7,22)             108.6734         estimate D2E/DX2                !
 ! A31   A(6,7,23)             109.1897         estimate D2E/DX2                !
 ! A32   A(8,7,22)             108.8949         estimate D2E/DX2                !
 ! A33   A(8,7,23)             108.707          estimate D2E/DX2                !
 ! A34   A(22,7,23)            104.9863         estimate D2E/DX2                !
 ! A35   A(7,8,9)              114.2252         estimate D2E/DX2                !
 ! A36   A(7,8,24)             109.8064         estimate D2E/DX2                !
 ! A37   A(7,8,25)             107.9219         estimate D2E/DX2                !
 ! A38   A(9,8,24)             109.7896         estimate D2E/DX2                !
 ! A39   A(9,8,25)             109.2845         estimate D2E/DX2                !
 ! A40   A(24,8,25)            105.4248         estimate D2E/DX2                !
 ! A41   A(8,9,10)             114.127          estimate D2E/DX2                !
 ! A42   A(8,9,26)             109.2194         estimate D2E/DX2                !
 ! A43   A(8,9,27)             109.758          estimate D2E/DX2                !
 ! A44   A(10,9,26)            108.0469         estimate D2E/DX2                !
 ! A45   A(10,9,27)            109.5598         estimate D2E/DX2                !
 ! A46   A(26,9,27)            105.7822         estimate D2E/DX2                !
 ! A47   A(9,10,11)            114.1829         estimate D2E/DX2                !
 ! A48   A(9,10,28)            109.7355         estimate D2E/DX2                !
 ! A49   A(9,10,29)            108.7047         estimate D2E/DX2                !
 ! A50   A(11,10,28)           109.6151         estimate D2E/DX2                !
 ! A51   A(11,10,29)           108.5752         estimate D2E/DX2                !
 ! A52   A(28,10,29)           105.6687         estimate D2E/DX2                !
 ! A53   A(10,11,30)           111.3502         estimate D2E/DX2                !
 ! A54   A(10,11,31)           111.7844         estimate D2E/DX2                !
 ! A55   A(10,11,32)           110.8408         estimate D2E/DX2                !
 ! A56   A(30,11,31)           107.9077         estimate D2E/DX2                !
 ! A57   A(30,11,32)           107.5278         estimate D2E/DX2                !
 ! A58   A(31,11,32)           107.2253         estimate D2E/DX2                !
 ! D1    D(13,1,2,3)          -179.5498         estimate D2E/DX2                !
 ! D2    D(13,1,2,12)           -0.9903         estimate D2E/DX2                !
 ! D3    D(1,2,3,4)            -60.6709         estimate D2E/DX2                !
 ! D4    D(1,2,3,14)           173.8242         estimate D2E/DX2                !
 ! D5    D(1,2,3,15)            60.3367         estimate D2E/DX2                !
 ! D6    D(12,2,3,4)           120.7818         estimate D2E/DX2                !
 ! D7    D(12,2,3,14)           -4.7231         estimate D2E/DX2                !
 ! D8    D(12,2,3,15)         -118.2106         estimate D2E/DX2                !
 ! D9    D(2,3,4,5)            -80.2861         estimate D2E/DX2                !
 ! D10   D(2,3,4,16)            46.6039         estimate D2E/DX2                !
 ! D11   D(2,3,4,17)           160.2256         estimate D2E/DX2                !
 ! D12   D(14,3,4,5)            44.212          estimate D2E/DX2                !
 ! D13   D(14,3,4,16)          171.1021         estimate D2E/DX2                !
 ! D14   D(14,3,4,17)          -75.2762         estimate D2E/DX2                !
 ! D15   D(15,3,4,5)           160.9909         estimate D2E/DX2                !
 ! D16   D(15,3,4,16)          -72.1191         estimate D2E/DX2                !
 ! D17   D(15,3,4,17)           41.5026         estimate D2E/DX2                !
 ! D18   D(3,4,5,6)             69.9455         estimate D2E/DX2                !
 ! D19   D(3,4,5,18)          -167.0971         estimate D2E/DX2                !
 ! D20   D(3,4,5,19)           -53.4775         estimate D2E/DX2                !
 ! D21   D(16,4,5,6)           -57.2227         estimate D2E/DX2                !
 ! D22   D(16,4,5,18)           65.7347         estimate D2E/DX2                !
 ! D23   D(16,4,5,19)          179.3543         estimate D2E/DX2                !
 ! D24   D(17,4,5,6)          -170.3793         estimate D2E/DX2                !
 ! D25   D(17,4,5,18)          -47.4219         estimate D2E/DX2                !
 ! D26   D(17,4,5,19)           66.1978         estimate D2E/DX2                !
 ! D27   D(4,5,6,7)             58.2645         estimate D2E/DX2                !
 ! D28   D(4,5,6,20)          -178.7261         estimate D2E/DX2                !
 ! D29   D(4,5,6,21)           -65.4398         estimate D2E/DX2                !
 ! D30   D(18,5,6,7)           -64.7408         estimate D2E/DX2                !
 ! D31   D(18,5,6,20)           58.2686         estimate D2E/DX2                !
 ! D32   D(18,5,6,21)          171.5549         estimate D2E/DX2                !
 ! D33   D(19,5,6,7)          -178.2111         estimate D2E/DX2                !
 ! D34   D(19,5,6,20)          -55.2017         estimate D2E/DX2                !
 ! D35   D(19,5,6,21)           58.0845         estimate D2E/DX2                !
 ! D36   D(5,6,7,8)             57.2934         estimate D2E/DX2                !
 ! D37   D(5,6,7,22)          -179.7855         estimate D2E/DX2                !
 ! D38   D(5,6,7,23)           -65.7916         estimate D2E/DX2                !
 ! D39   D(20,6,7,8)           -65.49           estimate D2E/DX2                !
 ! D40   D(20,6,7,22)           57.4311         estimate D2E/DX2                !
 ! D41   D(20,6,7,23)          171.425          estimate D2E/DX2                !
 ! D42   D(21,6,7,8)          -178.7873         estimate D2E/DX2                !
 ! D43   D(21,6,7,22)          -55.8662         estimate D2E/DX2                !
 ! D44   D(21,6,7,23)           58.1277         estimate D2E/DX2                !
 ! D45   D(6,7,8,9)             62.0748         estimate D2E/DX2                !
 ! D46   D(6,7,8,24)           -61.7497         estimate D2E/DX2                !
 ! D47   D(6,7,8,25)          -176.1804         estimate D2E/DX2                !
 ! D48   D(22,7,8,9)           -60.7296         estimate D2E/DX2                !
 ! D49   D(22,7,8,24)          175.4459         estimate D2E/DX2                !
 ! D50   D(22,7,8,25)           61.0152         estimate D2E/DX2                !
 ! D51   D(23,7,8,9)          -174.587          estimate D2E/DX2                !
 ! D52   D(23,7,8,24)           61.5885         estimate D2E/DX2                !
 ! D53   D(23,7,8,25)          -52.8422         estimate D2E/DX2                !
 ! D54   D(7,8,9,10)           179.6496         estimate D2E/DX2                !
 ! D55   D(7,8,9,26)           -59.3111         estimate D2E/DX2                !
 ! D56   D(7,8,9,27)            56.2372         estimate D2E/DX2                !
 ! D57   D(24,8,9,10)          -56.5168         estimate D2E/DX2                !
 ! D58   D(24,8,9,26)           64.5225         estimate D2E/DX2                !
 ! D59   D(24,8,9,27)         -179.9292         estimate D2E/DX2                !
 ! D60   D(25,8,9,10)           58.6571         estimate D2E/DX2                !
 ! D61   D(25,8,9,26)          179.6964         estimate D2E/DX2                !
 ! D62   D(25,8,9,27)          -64.7553         estimate D2E/DX2                !
 ! D63   D(8,9,10,11)          -66.8002         estimate D2E/DX2                !
 ! D64   D(8,9,10,28)           56.7082         estimate D2E/DX2                !
 ! D65   D(8,9,10,29)          171.8203         estimate D2E/DX2                !
 ! D66   D(26,9,10,11)         171.5119         estimate D2E/DX2                !
 ! D67   D(26,9,10,28)         -64.9797         estimate D2E/DX2                !
 ! D68   D(26,9,10,29)          50.1324         estimate D2E/DX2                !
 ! D69   D(27,9,10,11)          56.7193         estimate D2E/DX2                !
 ! D70   D(27,9,10,28)        -179.7723         estimate D2E/DX2                !
 ! D71   D(27,9,10,29)         -64.6602         estimate D2E/DX2                !
 ! D72   D(9,10,11,30)         -56.0333         estimate D2E/DX2                !
 ! D73   D(9,10,11,31)          64.7475         estimate D2E/DX2                !
 ! D74   D(9,10,11,32)        -175.6901         estimate D2E/DX2                !
 ! D75   D(28,10,11,30)       -179.6067         estimate D2E/DX2                !
 ! D76   D(28,10,11,31)        -58.8259         estimate D2E/DX2                !
 ! D77   D(28,10,11,32)         60.7366         estimate D2E/DX2                !
 ! D78   D(29,10,11,30)         65.4177         estimate D2E/DX2                !
 ! D79   D(29,10,11,31)       -173.8015         estimate D2E/DX2                !
 ! D80   D(29,10,11,32)        -54.2391         estimate D2E/DX2                !
 --------------------------------------------------------------------------------
 Trust Radius=3.00D-01 FncErr=1.00D-07 GrdErr=1.00D-06 EigMax=2.50D+02 EigMin=1.00D-04
 Number of steps in this run=    179 maximum allowed number of steps=    192.
 GradGradGradGradGradGradGradGradGradGradGradGradGradGradGradGradGradGrad

                          Input orientation:                          
 ---------------------------------------------------------------------
 Center     Atomic      Atomic             Coordinates (Angstroms)
 Number     Number       Type             X           Y           Z
 ---------------------------------------------------------------------
      1          8           0        5.782000   -1.068400   -0.674700
      2          6           0        4.707400   -0.625200    0.013400
      3          6           0        3.947200   -1.750600    0.709300
      4          6           0        3.367200   -2.844000   -0.226200
      5          6           0        2.038100   -2.483400   -0.930200
      6          6           0        2.109100   -1.398700   -2.028000
      7          6           0        3.064700   -1.698500   -3.205200
      8          6           0        2.793200   -3.008200   -3.975300
      9          6           0        1.414200   -3.063000   -4.664500
     10          6           0        1.148900   -4.368100   -5.439800
     11          6           0        2.048100   -4.562900   -6.671200
     12          8           0        4.400000    0.555200    0.088700
     13          1           0        6.162700   -0.273100   -1.047900
     14          1           0        3.164300   -1.316400    1.330800
     15          1           0        4.663500   -2.201100    1.395600
     16          1           0        4.110600   -3.170400   -0.956400
     17          1           0        3.177900   -3.729500    0.383200
     18          1           0        1.617000   -3.390800   -1.365800
     19          1           0        1.312000   -2.172500   -0.177200
     20          1           0        1.104500   -1.231500   -2.418300
     21          1           0        2.385300   -0.444300   -1.579000
     22          1           0        3.028900   -0.862600   -3.905900
     23          1           0        4.091300   -1.715000   -2.838200
     24          1           0        2.905100   -3.861300   -3.304700
     25          1           0        3.575800   -3.124600   -4.725800
     26          1           0        0.632200   -2.951900   -3.912300
     27          1           0        1.303300   -2.210000   -5.336200
     28          1           0        1.255100   -5.222900   -4.769700
     29          1           0        0.107200   -4.376300   -5.765200
     30          1           0        1.968900   -3.719500   -7.358100
     31          1           0        3.096500   -4.671600   -6.393400
     32          1           0        1.764700   -5.461400   -7.220300
 ---------------------------------------------------------------------
                    Distance matrix (angstroms):
                    1          2          3          4          5
     1  O    0.000000
     2  C    1.350805   0.000000
     3  C    2.397362   1.526010   0.000000
     4  C    3.030704   2.603194   1.551478   0.000000
     5  C    4.010523   3.386510   2.620996   1.546659   0.000000
     6  C    3.928195   3.393638   3.315910   2.630245   1.544921
     7  C    3.766188   3.769592   4.013082   3.205950   2.616410
     8  C    4.856924   5.025194   4.985855   3.796339   3.180916
     9  C    6.242965   6.218584   6.084095   4.853934   3.830168
    10  C    7.420230   7.510633   7.245220   5.867313   4.967823
    11  C    7.881088   8.201295   8.123262   6.799461   6.106022
    12  O    2.264681   1.222092   2.430409   3.566567   3.981183
    13  H    0.957451   1.835274   3.190486   3.885812   4.680983
    14  H    3.306945   2.143469   1.089828   2.190657   2.782505
    15  H    2.611550   2.096632   1.089515   2.173465   3.518773
    16  H    2.700248   2.788319   2.194787   1.091958   2.183555
    17  H    3.870651   3.480345   2.148071   1.091473   2.139376
    18  H    4.818546   4.370504   3.525071   2.158907   1.091076
    19  H    4.631138   3.736202   2.812145   2.162674   1.091279
    20  H    4.994572   4.388810   4.258203   3.539106   2.157152
    21  H    3.569990   2.821455   3.063049   2.924509   2.167814
    22  H    4.250008   4.270203   4.788725   4.192921   3.530364
    23  H    2.820867   3.114300   3.550604   2.936240   2.906292
    24  H    4.795179   4.972969   4.653302   3.274996   2.878984
    25  H    5.050415   5.476088   5.618374   4.513164   4.145146
    26  H    6.367893   6.118162   5.813049   4.591209   3.330010
    27  H    6.564418   6.535879   6.614327   5.547408   4.475211
    28  H    7.383882   7.478988   7.023084   5.546488   4.781183
    29  H    8.310159   8.284009   7.972393   6.607274   5.539736
    30  H    8.138544   8.450626   8.536579   7.320228   6.546039
    31  H    7.273135   7.746963   7.726854   6.437993   5.979547
    32  H    8.847713   9.185572   9.022854   7.637815   6.964811
                    6          7          8          9         10
     6  C    0.000000
     7  C    1.545591   0.000000
     8  C    2.617338   1.543399   0.000000
     9  C    3.194356   2.591441   1.542608   0.000000
    10  C    4.623819   3.973725   2.588013   1.541026   0.000000
    11  C    5.619180   4.609926   3.200022   2.584255   1.537158
    12  O    3.680539   4.208559   5.638770   6.678269   8.085348
    13  H    4.319635   4.035259   5.234880   6.588747   7.822787
    14  H    3.521613   4.553155   5.581631   6.485143   7.695176
    15  H    4.346245   4.896543   5.744214   6.930053   7.985674
    16  H    2.879800   2.884007   3.297819   4.586078   5.505182
    17  H    3.519779   4.124850   4.434500   5.388333   6.199353
    18  H    2.156185   2.888444   2.887788   3.321145   4.215650
    19  H    2.158610   3.530640   4.161479   4.575948   5.704579
    20  H    1.090647   2.163258   2.903897   2.914742   4.355421
    21  H    1.090306   2.163129   3.533018   4.161843   5.641867
    22  H    2.158690   1.091325   2.159623   2.832753   4.263306
    23  H    2.164622   1.090353   2.156485   3.509892   4.739724
    24  H    2.885824   2.170962   1.090874   2.170051   2.810647
    25  H    3.522508   2.146441   1.090533   2.163346   2.818853
    26  H    2.853813   2.826315   2.162651   1.090721   2.146126
    27  H    3.500244   2.811641   2.170017   1.091370   2.166095
    28  H    4.782336   4.259543   2.811000   2.168305   1.091327
    29  H    5.180769   4.740361   3.505715   2.155121   1.091371
    30  H    5.815130   4.746767   3.553696   2.827395   2.184710
    31  H    5.544687   4.359467   2.950610   2.899452   2.189660
    32  H    6.601827   5.654241   4.195954   3.522398   2.178232
                   11         12         13         14         15
    11  C    0.000000
    12  O    8.799013   0.000000
    13  H    8.182531   2.255006   0.000000
    14  H    8.707334   2.563719   3.967000   0.000000
    15  H    8.802936   3.061798   3.454776   1.741980   0.000000
    16  H    6.233129   3.880217   3.551596   3.092585   2.603295
    17  H    7.192744   4.465301   4.785789   2.592524   2.359654
    18  H    5.450407   5.042973   5.521277   3.737502   4.280406
    19  H    6.959015   4.128776   5.281584   2.537319   3.702306
    20  H    5.484138   4.509730   5.327468   4.278520   5.305887
    21  H    6.557978   2.799864   3.818393   3.135974   4.138211
    22  H    4.722401   4.454986   4.282100   5.258069   5.706961
    23  H    5.193947   3.716967   3.094341   4.289379   4.299857
    24  H    3.544011   5.766746   5.346053   5.294484   5.285930
    25  H    2.861321   6.115525   5.324477   6.334139   6.285498
    26  H    3.494513   6.519514   6.779911   6.047850   6.707375
    27  H    2.805903   6.831209   6.764234   6.979307   7.523839
    28  H    2.163366   8.178074   7.901699   7.491454   7.665467
    29  H    2.150058   8.775874   8.703922   8.310359   8.761759
    30  H    1.090609   8.924020   8.323716   9.094001   9.284055
    31  H    1.090014   8.428296   7.571179   8.421712   8.320299
    32  H    1.090472   9.826788   9.184736   9.605270   9.657449
                   16         17         18         19         20
    16  H    0.000000
    17  H    1.725413   0.000000
    18  H    2.536578   2.368571   0.000000
    19  H    3.071664   2.493969   1.729176   0.000000
    20  H    3.864340   4.288052   2.456214   2.439481   0.000000
    21  H    3.285713   3.907810   3.052475   2.470565   1.721789
    22  H    3.898149   5.161172   3.851930   4.308920   2.460154
    23  H    2.379019   3.907675   3.331430   3.874885   3.054679
    24  H    2.728568   3.700324   2.374848   3.895031   3.308128
    25  H    3.807425   5.160049   3.898379   5.169240   3.875011
    26  H    4.569940   5.053372   2.765344   3.875637   2.326989
    27  H    5.290175   6.207620   4.154127   5.159144   3.084011
    28  H    5.187282   5.699104   3.882537   5.513550   4.634980
    29  H    6.372281   6.902925   4.754516   6.126502   4.699587
    30  H    6.772751   7.835146   6.011617   7.374961   5.598121
    31  H    5.730879   6.842257   5.395010   6.933331   5.621723
    32  H    7.070245   7.925265   6.211632   7.786338   6.433282
                   21         22         23         24         25
    21  H    0.000000
    22  H    2.450237   0.000000
    23  H    2.471983   1.730683   0.000000
    24  H    3.863175   3.060877   2.496256   0.000000
    25  H    4.301587   2.467383   2.411586   1.735538   0.000000
    26  H    3.847818   3.179526   3.827399   2.522352   3.058821
    27  H    4.290102   2.615137   3.775973   3.069128   2.524547
    28  H    5.856017   4.785889   4.907146   2.592813   3.128968
    29  H    6.178562   4.933499   5.614526   3.761320   3.831226
    30  H    6.655698   4.604689   5.380715   4.162527   3.140866
    31  H    6.446264   4.549803   4.729752   3.198951   2.324613
    32  H    7.575005   5.807961   6.217023   4.380954   3.868236
                   26         27         28         29         30
    26  H    0.000000
    27  H    1.740196   0.000000
    28  H    2.506109   3.066074   0.000000
    29  H    2.395366   2.511484   1.739375   0.000000
    30  H    3.774853   2.609539   3.077261   2.536660   0.000000
    31  H    3.896922   3.223773   2.516165   3.068836   1.763129
    32  H    4.303837   3.786070   2.514362   2.458061   1.759233
                   31         32
    31  H    0.000000
    32  H    1.755346   0.000000
 Stoichiometry    C10H20O2
 Framework group  C1[X(C10H20O2)]
 Deg. of freedom    90
 Full point group                 C1      NOp   1
 Largest Abelian subgroup         C1      NOp   1
 Largest concise Abelian subgroup C1      NOp   1
                         Standard orientation:                         
 ---------------------------------------------------------------------
 Center     Atomic      Atomic             Coordinates (Angstroms)
 Number     Number       Type             X           Y           Z
 ---------------------------------------------------------------------
      1          8           0       -2.917209   -1.509481   -0.880146
      2          6           0       -3.249015   -0.516240   -0.026888
      3          6           0       -3.018065    0.871406   -0.618332
      4          6           0       -1.553364    1.193612   -1.015721
      5          6           0       -0.624465    1.616884    0.146235
      6          6           0       -0.243543    0.517581    1.162705
      7          6           0        0.466705   -0.722387    0.573740
      8          6           0        1.772671   -0.445071   -0.200616
      9          6           0        2.892316    0.186357    0.652224
     10          6           0        4.198034    0.454428   -0.121079
     11          6           0        4.927794   -0.816661   -0.584369
     12          8           0       -3.710433   -0.715832    1.087008
     13          1           0       -3.115106   -2.309632   -0.393005
     14          1           0       -3.406009    1.619130    0.073140
     15          1           0       -3.653680    0.917675   -1.502015
     16          1           0       -1.109705    0.370607   -1.579814
     17          1           0       -1.581295    2.024098   -1.723413
     18          1           0        0.292199    2.033255   -0.274252
     19          1           0       -1.086468    2.446345    0.684228
     20          1           0        0.390440    0.959182    1.932488
     21          1           0       -1.135173    0.195290    1.701120
     22          1           0        0.678200   -1.421803    1.384344
     23          1           0       -0.223511   -1.252464   -0.083139
     24          1           0        1.563364    0.188951   -1.063293
     25          1           0        2.124801   -1.390680   -0.614245
     26          1           0        2.540916    1.134580    1.060956
     27          1           0        3.102166   -0.448971    1.514436
     28          1           0        3.992107    1.092967   -0.981810
     29          1           0        4.871427    1.028695    0.517554
     30          1           0        5.141780   -1.479776    0.254629
     31          1           0        4.341808   -1.376646   -1.313182
     32          1           0        5.878466   -0.567757   -1.057018
 ---------------------------------------------------------------------
 Rotational constants (GHZ):           1.8662857           0.3242455           0.3119906
 Standard basis: 6-31G(d,p) (6D, 7F)
 There are   280 symmetry adapted cartesian basis functions of A   symmetry.
 There are   280 symmetry adapted basis functions of A   symmetry.
   280 basis functions,   476 primitive gaussians,   280 cartesian basis functions
    48 alpha electrons       48 beta electrons
       nuclear repulsion energy       730.6095926483 Hartrees.
 NAtoms=   32 NActive=   32 NUniq=   32 SFac= 1.00D+00 NAtFMM=   60 NAOKFM=F Big=F
 Integral buffers will be    131072 words long.
 Raffenetti 2 integral format.
 Two-electron integral symmetry is turned on.
 Nuclear repulsion after empirical dispersion term =      730.5594697578 Hartrees.
 One-electron integrals computed using PRISM.
 NBasis=   280 RedAO= T EigKep=  3.34D-03  NBF=   280
 NBsUse=   280 1.00D-06 EigRej= -1.00D+00 NBFU=   280
 ExpMin= 1.61D-01 ExpMax= 5.48D+03 ExpMxC= 8.25D+02 IAcc=3 IRadAn=         5 AccDes= 0.00D+00
 Harris functional with IExCor=  402 and IRadAn=       5 diagonalized for initial guess.
 HarFok:  IExCor=  402 AccDes= 0.00D+00 IRadAn=         5 IDoV= 1 UseB2=F ITyADJ=14
 ICtDFT=  3500011 ScaDFX=  1.000000  1.000000  1.000000  1.000000
 FoFCou: FMM=F IPFlag=           0 FMFlag=      100000 FMFlg1=           0
         NFxFlg=           0 DoJE=T BraDBF=F KetDBF=T FulRan=T
         wScrn=  0.000000 ICntrl=       500 IOpCl=  0 I1Cent=   200000004 NGrid=           0
         NMat0=    1 NMatS0=      1 NMatT0=    0 NMatD0=    1 NMtDS0=    0 NMtDT0=    0
 Petite list used in FoFCou.
 Requested convergence on RMS density matrix=1.00D-08 within 128 cycles.
 Requested convergence on MAX density matrix=1.00D-06.
 Requested convergence on             energy=1.00D-06.
 No special actions if energy rises.
 Integral accuracy reduced to 1.0D-05 until final iterations.
 Initial convergence to 1.0D-05 achieved.  Increase integral accuracy.
 SCF Done:  E(RB3LYP) =  -543.663964905     A.U. after   13 cycles
            NFock= 13  Conv=0.79D-08     -V/T= 2.0096

 **********************************************************************

            Population analysis using the SCF Density.

 **********************************************************************

 Orbital symmetries:
       Occupied  (A) (A) (A) (A) (A) (A) (A) (A) (A) (A) (A) (A)
                 (A) (A) (A) (A) (A) (A) (A) (A) (A) (A) (A) (A)
                 (A) (A) (A) (A) (A) (A) (A) (A) (A) (A) (A) (A)
                 (A) (A) (A) (A) (A) (A) (A) (A) (A) (A) (A) (A)
       Virtual   (A) (A) (A) (A) (A) (A) (A) (A) (A) (A) (A) (A)
                 (A) (A) (A) (A) (A) (A) (A) (A) (A) (A) (A) (A)
                 (A) (A) (A) (A) (A) (A) (A) (A) (A) (A) (A) (A)
                 (A) (A) (A) (A) (A) (A) (A) (A) (A) (A) (A) (A)
                 (A) (A) (A) (A) (A) (A) (A) (A) (A) (A) (A) (A)
                 (A) (A) (A) (A) (A) (A) (A) (A) (A) (A) (A) (A)
                 (A) (A) (A) (A) (A) (A) (A) (A) (A) (A) (A) (A)
                 (A) (A) (A) (A) (A) (A) (A) (A) (A) (A) (A) (A)
                 (A) (A) (A) (A) (A) (A) (A) (A) (A) (A) (A) (A)
                 (A) (A) (A) (A) (A) (A) (A) (A) (A) (A) (A) (A)
                 (A) (A) (A) (A) (A) (A) (A) (A) (A) (A) (A) (A)
                 (A) (A) (A) (A) (A) (A) (A) (A) (A) (A) (A) (A)
                 (A) (A) (A) (A) (A) (A) (A) (A) (A) (A) (A) (A)
                 (A) (A) (A) (A) (A) (A) (A) (A) (A) (A) (A) (A)
                 (A) (A) (A) (A) (A) (A) (A) (A) (A) (A) (A) (A)
                 (A) (A) (A) (A) (A) (A) (A) (A) (A) (A) (A) (A)
                 (A) (A) (A) (A) (A) (A) (A) (A) (A) (A) (A) (A)
                 (A) (A) (A) (A) (A) (A) (A) (A) (A) (A) (A) (A)
                 (A) (A) (A) (A) (A) (A) (A) (A) (A) (A) (A) (A)
                 (A) (A) (A) (A)
 The electronic state is 1-A.
 Alpha  occ. eigenvalues --  -19.20157 -19.13695 -10.32115 -10.20026 -10.19144
 Alpha  occ. eigenvalues --  -10.18050 -10.17633 -10.17365 -10.17351 -10.17337
 Alpha  occ. eigenvalues --  -10.17297 -10.16896  -1.10939  -1.01157  -0.81164
 Alpha  occ. eigenvalues --   -0.79305  -0.76333  -0.72525  -0.68622  -0.65322
 Alpha  occ. eigenvalues --   -0.61727  -0.59754  -0.57092  -0.54264  -0.48879
 Alpha  occ. eigenvalues --   -0.48472  -0.47579  -0.45494  -0.44719  -0.44285
 Alpha  occ. eigenvalues --   -0.42845  -0.41826  -0.41369  -0.39555  -0.39289
 Alpha  occ. eigenvalues --   -0.38430  -0.37222  -0.35990  -0.35490  -0.34719
 Alpha  occ. eigenvalues --   -0.33030  -0.32781  -0.32505  -0.31719  -0.31070
 Alpha  occ. eigenvalues --   -0.30328  -0.29740  -0.26841
 Alpha virt. eigenvalues --    0.00714   0.06838   0.08334   0.10676   0.11439
 Alpha virt. eigenvalues --    0.11922   0.12807   0.13239   0.14487   0.15389
 Alpha virt. eigenvalues --    0.16038   0.17098   0.17234   0.17428   0.18058
 Alpha virt. eigenvalues --    0.18322   0.19974   0.20188   0.20771   0.22323
 Alpha virt. eigenvalues --    0.22391   0.22595   0.23518   0.23955   0.24837
 Alpha virt. eigenvalues --    0.25265   0.25889   0.26360   0.28307   0.30945
 Alpha virt. eigenvalues --    0.32238   0.36977   0.47964   0.49813   0.50098
 Alpha virt. eigenvalues --    0.51397   0.52263   0.52766   0.53820   0.55000
 Alpha virt. eigenvalues --    0.56398   0.57973   0.59329   0.60791   0.63237
 Alpha virt. eigenvalues --    0.64283   0.64975   0.65821   0.67056   0.67758
 Alpha virt. eigenvalues --    0.68891   0.69630   0.70845   0.71828   0.73051
 Alpha virt. eigenvalues --    0.75569   0.76100   0.78459   0.79961   0.81340
 Alpha virt. eigenvalues --    0.83505   0.84541   0.85368   0.85867   0.86826
 Alpha virt. eigenvalues --    0.87106   0.87728   0.87992   0.89467   0.89842
 Alpha virt. eigenvalues --    0.90898   0.91972   0.92836   0.93285   0.94532
 Alpha virt. eigenvalues --    0.95334   0.96264   0.97003   0.97738   0.97831
 Alpha virt. eigenvalues --    0.99025   1.00165   1.01787   1.04668   1.05232
 Alpha virt. eigenvalues --    1.06954   1.08614   1.11158   1.13293   1.16162
 Alpha virt. eigenvalues --    1.17924   1.27309   1.28364   1.30554   1.34787
 Alpha virt. eigenvalues --    1.35950   1.38215   1.40867   1.44032   1.48263
 Alpha virt. eigenvalues --    1.49449   1.51763   1.53962   1.56685   1.58538
 Alpha virt. eigenvalues --    1.59418   1.61222   1.62633   1.63995   1.65619
 Alpha virt. eigenvalues --    1.69604   1.71013   1.73220   1.75367   1.76249
 Alpha virt. eigenvalues --    1.77325   1.78385   1.79443   1.81791   1.82444
 Alpha virt. eigenvalues --    1.83478   1.85650   1.86699   1.87946   1.88777
 Alpha virt. eigenvalues --    1.89809   1.90921   1.93616   1.94334   1.95540
 Alpha virt. eigenvalues --    2.00724   2.01536   2.02805   2.06101   2.07632
 Alpha virt. eigenvalues --    2.08909   2.11674   2.13359   2.14066   2.15695
 Alpha virt. eigenvalues --    2.16454   2.17792   2.19624   2.20277   2.20584
 Alpha virt. eigenvalues --    2.23253   2.24133   2.25315   2.26221   2.27147
 Alpha virt. eigenvalues --    2.28173   2.28515   2.29699   2.30871   2.32090
 Alpha virt. eigenvalues --    2.34225   2.35299   2.37133   2.38228   2.40734
 Alpha virt. eigenvalues --    2.40816   2.44768   2.45758   2.47408   2.49547
 Alpha virt. eigenvalues --    2.51818   2.52371   2.54702   2.55422   2.57813
 Alpha virt. eigenvalues --    2.59555   2.61499   2.62521   2.64394   2.66691
 Alpha virt. eigenvalues --    2.68568   2.70023   2.70967   2.72562   2.73967
 Alpha virt. eigenvalues --    2.75116   2.76315   2.77118   2.81806   2.82802
 Alpha virt. eigenvalues --    2.83895   2.85499   2.86527   2.88931   2.89710
 Alpha virt. eigenvalues --    2.90183   2.91018   2.91760   2.92294   2.92889
 Alpha virt. eigenvalues --    2.93167   2.93743   2.96031   3.02543   3.11048
 Alpha virt. eigenvalues --    3.20394   3.27194   3.29677   3.32022   3.33304
 Alpha virt. eigenvalues --    3.34444   3.35172   3.35800   3.37290   3.39689
 Alpha virt. eigenvalues --    3.43445   3.45296   3.46593   3.47928   3.50679
 Alpha virt. eigenvalues --    3.53605   3.56299   3.57378   3.58255   3.60807
 Alpha virt. eigenvalues --    3.92557   4.13256   4.24815   4.30207   4.35216
 Alpha virt. eigenvalues --    4.43805   4.53955   4.62532   4.66567   4.67259
 Alpha virt. eigenvalues --    4.73009   4.75310
          Condensed to atoms (all electrons):
               1          2          3          4          5          6
     1  O    8.117680   0.242833  -0.098110   0.001829  -0.000013   0.000124
     2  C    0.242833   4.389060   0.349995  -0.027541  -0.001072   0.001131
     3  C   -0.098110   0.349995   5.085809   0.340987  -0.044325  -0.001691
     4  C    0.001829  -0.027541   0.340987   4.920086   0.373908  -0.042990
     5  C   -0.000013  -0.001072  -0.044325   0.373908   4.911659   0.371641
     6  C    0.000124   0.001131  -0.001691  -0.042990   0.371641   4.938613
     7  C   -0.002307   0.000317  -0.000603  -0.002938  -0.044777   0.372711
     8  C    0.000028   0.000001   0.000079  -0.001817  -0.003153  -0.043987
     9  C   -0.000000  -0.000000  -0.000001   0.000104  -0.001686  -0.004144
    10  C    0.000000  -0.000000   0.000000  -0.000000   0.000002   0.000098
    11  C   -0.000000  -0.000000   0.000000   0.000000  -0.000000  -0.000000
    12  O   -0.082793   0.553933  -0.072582   0.000690   0.000568  -0.002876
    13  H    0.268349  -0.008827   0.010705  -0.000269  -0.000043   0.000030
    14  H    0.003213  -0.031419   0.377190  -0.032874  -0.006170  -0.000380
    15  H    0.002028  -0.027906   0.356810  -0.023519   0.004277  -0.000083
    16  H    0.004358  -0.008859  -0.037189   0.386117  -0.036816  -0.007232
    17  H   -0.000006   0.003488  -0.030662   0.375565  -0.036343   0.004996
    18  H   -0.000003  -0.000035   0.004848  -0.035678   0.381080  -0.038281
    19  H   -0.000002  -0.000381  -0.007417  -0.039278   0.379094  -0.034263
    20  H   -0.000002  -0.000055  -0.000055   0.004971  -0.033946   0.375723
    21  H   -0.000470   0.002919   0.002355  -0.006524  -0.037138   0.376795
    22  H    0.000024  -0.000018   0.000009   0.000031   0.005062  -0.033681
    23  H    0.008133   0.000459  -0.001030   0.003235  -0.006994  -0.038498
    24  H    0.000000  -0.000003   0.000007   0.000210   0.003552  -0.008040
    25  H   -0.000001   0.000000  -0.000001   0.000015   0.000016   0.004960
    26  H    0.000000  -0.000000   0.000000   0.000002   0.000148   0.002669
    27  H    0.000000  -0.000000   0.000000  -0.000002   0.000097  -0.000870
    28  H   -0.000000  -0.000000   0.000000  -0.000001   0.000000  -0.000018
    29  H   -0.000000   0.000000  -0.000000   0.000000   0.000000   0.000000
    30  H   -0.000000  -0.000000  -0.000000   0.000000  -0.000000   0.000000
    31  H    0.000000   0.000000  -0.000000  -0.000000   0.000000  -0.000000
    32  H    0.000000   0.000000  -0.000000  -0.000000   0.000000   0.000000
               7          8          9         10         11         12
     1  O   -0.002307   0.000028  -0.000000   0.000000  -0.000000  -0.082793
     2  C    0.000317   0.000001  -0.000000  -0.000000  -0.000000   0.553933
     3  C   -0.000603   0.000079  -0.000001   0.000000   0.000000  -0.072582
     4  C   -0.002938  -0.001817   0.000104  -0.000000   0.000000   0.000690
     5  C   -0.044777  -0.003153  -0.001686   0.000002  -0.000000   0.000568
     6  C    0.372711  -0.043987  -0.004144   0.000098  -0.000000  -0.002876
     7  C    4.933952   0.366710  -0.038683   0.003754   0.000082   0.000063
     8  C    0.366710   4.910132   0.381798  -0.039001  -0.005001  -0.000000
     9  C   -0.038683   0.381798   4.895239   0.377696  -0.045757   0.000000
    10  C    0.003754  -0.039001   0.377696   4.872835   0.375854   0.000000
    11  C    0.000082  -0.005001  -0.045757   0.375854   4.915194  -0.000000
    12  O    0.000063  -0.000000   0.000000   0.000000  -0.000000   8.054230
    13  H    0.000151  -0.000001   0.000000  -0.000000  -0.000000   0.011328
    14  H    0.000051  -0.000001   0.000000  -0.000000   0.000000   0.001416
    15  H   -0.000002  -0.000000   0.000000  -0.000000   0.000000   0.002241
    16  H    0.003195   0.000286  -0.000006   0.000000   0.000000   0.000053
    17  H   -0.000034   0.000029  -0.000002  -0.000000   0.000000  -0.000080
    18  H   -0.007350   0.003433   0.000298  -0.000048   0.000002  -0.000002
    19  H    0.004981   0.000019   0.000013   0.000001  -0.000000   0.000007
    20  H   -0.038297  -0.007276   0.003237  -0.000125  -0.000000   0.000046
    21  H   -0.032212   0.004572   0.000096  -0.000001   0.000000   0.006758
    22  H    0.377397  -0.038389  -0.006998   0.000064  -0.000015  -0.000004
    23  H    0.371449  -0.032659   0.004456  -0.000148  -0.000001  -0.000209
    24  H   -0.038171   0.381902  -0.041812  -0.003073  -0.000615  -0.000000
    25  H   -0.031840   0.380596  -0.040544  -0.004732   0.002764  -0.000000
    26  H   -0.005286  -0.039940   0.380254  -0.033370   0.005058  -0.000000
    27  H   -0.002760  -0.041265   0.381579  -0.038374  -0.007161  -0.000000
    28  H    0.000080  -0.007492  -0.038022   0.384544  -0.039930  -0.000000
    29  H   -0.000156   0.004597  -0.032868   0.381353  -0.040125  -0.000000
    30  H   -0.000020  -0.000589  -0.004757  -0.035767   0.387132   0.000000
    31  H   -0.000127   0.002129  -0.004586  -0.034794   0.388360   0.000000
    32  H    0.000000   0.000146   0.004309  -0.028241   0.380945   0.000000
              13         14         15         16         17         18
     1  O    0.268349   0.003213   0.002028   0.004358  -0.000006  -0.000003
     2  C   -0.008827  -0.031419  -0.027906  -0.008859   0.003488  -0.000035
     3  C    0.010705   0.377190   0.356810  -0.037189  -0.030662   0.004848
     4  C   -0.000269  -0.032874  -0.023519   0.386117   0.375565  -0.035678
     5  C   -0.000043  -0.006170   0.004277  -0.036816  -0.036343   0.381080
     6  C    0.000030  -0.000380  -0.000083  -0.007232   0.004996  -0.038281
     7  C    0.000151   0.000051  -0.000002   0.003195  -0.000034  -0.007350
     8  C   -0.000001  -0.000001  -0.000000   0.000286   0.000029   0.003433
     9  C    0.000000   0.000000   0.000000  -0.000006  -0.000002   0.000298
    10  C   -0.000000  -0.000000  -0.000000   0.000000  -0.000000  -0.000048
    11  C   -0.000000   0.000000   0.000000   0.000000   0.000000   0.000002
    12  O    0.011328   0.001416   0.002241   0.000053  -0.000080  -0.000002
    13  H    0.399548  -0.000311  -0.000513  -0.000263   0.000021  -0.000000
    14  H   -0.000311   0.583898  -0.032218   0.004785  -0.001358   0.000093
    15  H   -0.000513  -0.032218   0.601636  -0.000549  -0.009186  -0.000169
    16  H   -0.000263   0.004785  -0.000549   0.604989  -0.036672  -0.002825
    17  H    0.000021  -0.001358  -0.009186  -0.036672   0.639807  -0.004736
    18  H   -0.000000   0.000093  -0.000169  -0.002825  -0.004736   0.639516
    19  H    0.000000   0.005140   0.000042   0.005669  -0.003145  -0.038609
    20  H    0.000000  -0.000040   0.000003   0.000031  -0.000175  -0.005548
    21  H   -0.000047   0.000361   0.000055  -0.000067  -0.000043   0.005684
    22  H   -0.000005   0.000000   0.000000  -0.000100  -0.000000  -0.000000
    23  H    0.000000  -0.000006   0.000005   0.001072  -0.000033  -0.000207
    24  H    0.000000   0.000001   0.000000   0.001158  -0.000021   0.001237
    25  H   -0.000000   0.000000  -0.000000  -0.000032   0.000001  -0.000067
    26  H   -0.000000   0.000000  -0.000000  -0.000002   0.000000   0.001210
    27  H   -0.000000  -0.000000  -0.000000   0.000001   0.000000  -0.000019
    28  H   -0.000000  -0.000000  -0.000000  -0.000000   0.000000   0.000050
    29  H    0.000000  -0.000000   0.000000  -0.000000   0.000000  -0.000004
    30  H    0.000000  -0.000000  -0.000000  -0.000000   0.000000   0.000000
    31  H    0.000000   0.000000  -0.000000   0.000000   0.000000  -0.000000
    32  H   -0.000000   0.000000  -0.000000   0.000000  -0.000000  -0.000000
              19         20         21         22         23         24
     1  O   -0.000002  -0.000002  -0.000470   0.000024   0.008133   0.000000
     2  C   -0.000381  -0.000055   0.002919  -0.000018   0.000459  -0.000003
     3  C   -0.007417  -0.000055   0.002355   0.000009  -0.001030   0.000007
     4  C   -0.039278   0.004971  -0.006524   0.000031   0.003235   0.000210
     5  C    0.379094  -0.033946  -0.037138   0.005062  -0.006994   0.003552
     6  C   -0.034263   0.375723   0.376795  -0.033681  -0.038498  -0.008040
     7  C    0.004981  -0.038297  -0.032212   0.377397   0.371449  -0.038171
     8  C    0.000019  -0.007276   0.004572  -0.038389  -0.032659   0.381902
     9  C    0.000013   0.003237   0.000096  -0.006998   0.004456  -0.041812
    10  C    0.000001  -0.000125  -0.000001   0.000064  -0.000148  -0.003073
    11  C   -0.000000  -0.000000   0.000000  -0.000015  -0.000001  -0.000615
    12  O    0.000007   0.000046   0.006758  -0.000004  -0.000209  -0.000000
    13  H    0.000000   0.000000  -0.000047  -0.000005   0.000000   0.000000
    14  H    0.005140  -0.000040   0.000361   0.000000  -0.000006   0.000001
    15  H    0.000042   0.000003   0.000055   0.000000   0.000005   0.000000
    16  H    0.005669   0.000031  -0.000067  -0.000100   0.001072   0.001158
    17  H   -0.003145  -0.000175  -0.000043  -0.000000  -0.000033  -0.000021
    18  H   -0.038609  -0.005548   0.005684  -0.000000  -0.000207   0.001237
    19  H    0.644138  -0.003090  -0.004015  -0.000158  -0.000040  -0.000082
    20  H   -0.003090   0.644105  -0.035339  -0.004536   0.005996  -0.000038
    21  H   -0.004015  -0.035339   0.616212  -0.003036  -0.005094   0.000004
    22  H   -0.000158  -0.004536  -0.003036   0.646873  -0.038180   0.006148
    23  H   -0.000040   0.005996  -0.005094  -0.038180   0.645935  -0.003783
    24  H   -0.000082  -0.000038   0.000004   0.006148  -0.003783   0.647885
    25  H   -0.000001  -0.000011  -0.000146  -0.004131  -0.003727  -0.041145
    26  H   -0.000047   0.001869  -0.000074  -0.000325  -0.000001  -0.006140
    27  H   -0.000000   0.000451  -0.000028   0.005033   0.000003   0.006180
    28  H    0.000000   0.000007  -0.000000   0.000009   0.000000   0.005441
    29  H   -0.000000   0.000008  -0.000000   0.000001   0.000003   0.000018
    30  H    0.000000   0.000000  -0.000000   0.000002   0.000000   0.000072
    31  H    0.000000  -0.000000  -0.000000   0.000009   0.000008   0.000359
    32  H    0.000000  -0.000000  -0.000000  -0.000000  -0.000000  -0.000021
              25         26         27         28         29         30
     1  O   -0.000001   0.000000   0.000000  -0.000000  -0.000000  -0.000000
     2  C    0.000000  -0.000000  -0.000000  -0.000000   0.000000  -0.000000
     3  C   -0.000001   0.000000   0.000000   0.000000  -0.000000  -0.000000
     4  C    0.000015   0.000002  -0.000002  -0.000001   0.000000   0.000000
     5  C    0.000016   0.000148   0.000097   0.000000   0.000000  -0.000000
     6  C    0.004960   0.002669  -0.000870  -0.000018   0.000000   0.000000
     7  C   -0.031840  -0.005286  -0.002760   0.000080  -0.000156  -0.000020
     8  C    0.380596  -0.039940  -0.041265  -0.007492   0.004597  -0.000589
     9  C   -0.040544   0.380254   0.381579  -0.038022  -0.032868  -0.004757
    10  C   -0.004732  -0.033370  -0.038374   0.384544   0.381353  -0.035767
    11  C    0.002764   0.005058  -0.007161  -0.039930  -0.040125   0.387132
    12  O   -0.000000  -0.000000  -0.000000  -0.000000  -0.000000   0.000000
    13  H   -0.000000  -0.000000  -0.000000  -0.000000   0.000000   0.000000
    14  H    0.000000   0.000000  -0.000000  -0.000000  -0.000000  -0.000000
    15  H   -0.000000  -0.000000  -0.000000  -0.000000   0.000000  -0.000000
    16  H   -0.000032  -0.000002   0.000001  -0.000000  -0.000000  -0.000000
    17  H    0.000001   0.000000   0.000000   0.000000   0.000000   0.000000
    18  H   -0.000067   0.001210  -0.000019   0.000050  -0.000004   0.000000
    19  H   -0.000001  -0.000047  -0.000000   0.000000  -0.000000   0.000000
    20  H   -0.000011   0.001869   0.000451   0.000007   0.000008   0.000000
    21  H   -0.000146  -0.000074  -0.000028  -0.000000  -0.000000  -0.000000
    22  H   -0.004131  -0.000325   0.005033   0.000009   0.000001   0.000002
    23  H   -0.003727  -0.000001   0.000003   0.000000   0.000003   0.000000
    24  H   -0.041145  -0.006140   0.006180   0.005441   0.000018   0.000072
    25  H    0.644549   0.006195  -0.005657  -0.000263  -0.000001   0.000381
    26  H    0.006195   0.645386  -0.040912  -0.003222  -0.004452   0.000035
    27  H   -0.005657  -0.040912   0.647110   0.006089  -0.003005   0.005422
    28  H   -0.000263  -0.003222   0.006089   0.644529  -0.040133   0.005528
    29  H   -0.000001  -0.004452  -0.003005  -0.040133   0.647767  -0.004368
    30  H    0.000381   0.000035   0.005422   0.005528  -0.004368   0.611520
    31  H    0.002261  -0.000016  -0.000158  -0.005310   0.005532  -0.033989
    32  H   -0.000139  -0.000185   0.000009  -0.002541  -0.004195  -0.032491
              31         32
     1  O    0.000000   0.000000
     2  C    0.000000   0.000000
     3  C   -0.000000  -0.000000
     4  C   -0.000000  -0.000000
     5  C    0.000000   0.000000
     6  C   -0.000000   0.000000
     7  C   -0.000127   0.000000
     8  C    0.002129   0.000146
     9  C   -0.004586   0.004309
    10  C   -0.034794  -0.028241
    11  C    0.388360   0.380945
    12  O    0.000000   0.000000
    13  H    0.000000  -0.000000
    14  H    0.000000   0.000000
    15  H   -0.000000  -0.000000
    16  H    0.000000   0.000000
    17  H    0.000000  -0.000000
    18  H   -0.000000  -0.000000
    19  H    0.000000   0.000000
    20  H   -0.000000  -0.000000
    21  H   -0.000000  -0.000000
    22  H    0.000009  -0.000000
    23  H    0.000008  -0.000000
    24  H    0.000359  -0.000021
    25  H    0.002261  -0.000139
    26  H   -0.000016  -0.000185
    27  H   -0.000158   0.000009
    28  H   -0.005310  -0.002541
    29  H    0.005532  -0.004195
    30  H   -0.033989  -0.032491
    31  H    0.607412  -0.032189
    32  H   -0.032189   0.615285
 Mulliken charges:
               1
     1  O   -0.464893
     2  C    0.561982
     3  C   -0.235129
     4  C   -0.194318
     5  C   -0.178629
     6  C   -0.192456
     7  C   -0.189332
     8  C   -0.175883
     9  C   -0.169214
    10  C   -0.178527
    11  C   -0.316785
    12  O   -0.472787
    13  H    0.320148
    14  H    0.128630
    15  H    0.127048
    16  H    0.118900
    17  H    0.098587
    18  H    0.096131
    19  H    0.091426
    20  H    0.092085
    21  H    0.108422
    22  H    0.088914
    23  H    0.089855
    24  H    0.088767
    25  H    0.090699
    26  H    0.091144
    27  H    0.088238
    28  H    0.090654
    29  H    0.090028
    30  H    0.101888
    31  H    0.105098
    32  H    0.099308
 Sum of Mulliken charges =  -0.00000
 Mulliken charges with hydrogens summed into heavy atoms:
               1
     1  O   -0.144745
     2  C    0.561982
     3  C    0.020550
     4  C    0.023169
     5  C    0.008928
     6  C    0.008051
     7  C   -0.010562
     8  C    0.003583
     9  C    0.010168
    10  C    0.002154
    11  C   -0.010490
    12  O   -0.472787
 Electronic spatial extent (au):  <R**2>=           3695.1212
 Charge=             -0.0000 electrons
 Dipole moment (field-independent basis, Debye):
    X=              0.7456    Y=              0.1409    Z=             -1.4710  Tot=              1.6552
 Quadrupole moment (field-independent basis, Debye-Ang):
   XX=            -80.8373   YY=            -71.0448   ZZ=            -79.4991
   XY=             -0.0183   XZ=              6.9002   YZ=             -0.1387
 Traceless Quadrupole moment (field-independent basis, Debye-Ang):
   XX=             -3.7102   YY=              6.0822   ZZ=             -2.3720
   XY=             -0.0183   XZ=              6.9002   YZ=             -0.1387
 Octapole moment (field-independent basis, Debye-Ang**2):
  XXX=             -9.3290  YYY=            -23.5874  ZZZ=             -1.9997  XYY=            -26.8988
  XXY=             -0.2996  XXZ=            -26.6746  XZZ=              2.6990  YZZ=              1.6823
  YYZ=             -0.5445  XYZ=             -2.6395
 Hexadecapole moment (field-independent basis, Debye-Ang**3):
 XXXX=          -4039.2830 YYYY=           -495.9358 ZZZZ=           -382.6017 XXXY=             32.3142
 XXXZ=            115.5532 YYYX=             77.5351 YYYZ=              6.1837 ZZZX=              7.5378
 ZZZY=             -0.8027 XXYY=           -698.3550 XXZZ=           -759.3576 YYZZ=           -154.6303
 XXYZ=              9.0143 YYXZ=              5.1473 ZZXY=             -5.8200
 N-N= 7.305594697578D+02 E-N=-2.724388134908D+03  KE= 5.384706205386D+02
 Calling FoFJK, ICntrl=      2127 FMM=F ISym2X=0 I1Cent= 0 IOpClX= 0 NMat=1 NMatS=1 NMatT=0.
 ***** Axes restored to original set *****
 -------------------------------------------------------------------
 Center     Atomic                   Forces (Hartrees/Bohr)
 Number     Number              X              Y              Z
 -------------------------------------------------------------------
      1        8          -0.006398398   -0.008299375    0.004443904
      2        6          -0.022416270    0.008372458    0.012476904
      3        6           0.004638312   -0.000600891   -0.009470527
      4        6          -0.005178622    0.000609676    0.000093659
      5        6           0.005926117    0.004348159   -0.004348225
      6        6           0.003543769   -0.002777019   -0.000107816
      7        6          -0.003511990   -0.004387644    0.003601767
      8        6          -0.004854412    0.007336478   -0.001410083
      9        6           0.004899096   -0.007734875    0.004165042
     10        6           0.003893995    0.005870606   -0.004366657
     11        6          -0.002543023   -0.001425001    0.004894560
     12        8           0.009093840   -0.013653460   -0.005320766
     13        1           0.008988398    0.011278379   -0.008055458
     14        1          -0.001587014    0.003833677   -0.002494228
     15        1           0.003494750   -0.004925650    0.001436250
     16        1           0.002928709    0.003223989   -0.001309853
     17        1          -0.000952076   -0.001429172    0.003573592
     18        1           0.000878834   -0.004478158   -0.001501338
     19        1          -0.001601823    0.002559912    0.003364485
     20        1          -0.004338335   -0.001751955   -0.001071216
     21        1           0.003778329    0.002809028    0.001806890
     22        1          -0.001978499    0.003239212   -0.002538671
     23        1           0.003973609   -0.001142849    0.002115157
     24        1          -0.001326895   -0.003790163    0.002933626
     25        1           0.002656353   -0.000027354   -0.002929044
     26        1          -0.002544501    0.000598851    0.003343346
     27        1           0.000912026    0.003457023   -0.003321885
     28        1           0.001527379   -0.002774508    0.003198331
     29        1          -0.003693479    0.000641873   -0.001075910
     30        1          -0.000345827    0.003076900   -0.001406180
     31        1           0.002893696    0.000380434    0.000706774
     32        1          -0.000756050   -0.002438580   -0.001426431
 -------------------------------------------------------------------
 Cartesian Forces:  Max     0.022416270 RMS     0.004964428

 GradGradGradGradGradGradGradGradGradGradGradGradGradGradGradGradGradGrad
 Berny optimization.
 FormGI is forming the generalized inverse of G from B-inverse, IUseBI=4.
 Internal  Forces:  Max     0.016081772 RMS     0.003117235
 Search for a local minimum.
 Step number   1 out of a maximum of  179
 All quantities printed in internal units (Hartrees-Bohrs-Radians)
 Mixed Optimization -- RFO/linear search
 Second derivative matrix not updated -- first step.
 ITU=  0
     Eigenvalues ---    0.00230   0.00230   0.00230   0.00230   0.00230
     Eigenvalues ---    0.00230   0.00230   0.00274   0.00422   0.00898
     Eigenvalues ---    0.02343   0.03020   0.03041   0.03073   0.03088
     Eigenvalues ---    0.03235   0.03259   0.03267   0.03632   0.04621
     Eigenvalues ---    0.04622   0.04637   0.04676   0.04681   0.04691
     Eigenvalues ---    0.04704   0.05164   0.05344   0.05459   0.08542
     Eigenvalues ---    0.08566   0.08573   0.08832   0.08855   0.08860
     Eigenvalues ---    0.08986   0.09857   0.12372   0.12387   0.12395
     Eigenvalues ---    0.12588   0.12592   0.12610   0.12677   0.13135
     Eigenvalues ---    0.16000   0.16000   0.16000   0.16000   0.21886
     Eigenvalues ---    0.21895   0.21898   0.21907   0.21910   0.21918
     Eigenvalues ---    0.21928   0.21975   0.24995   0.25000   0.27526
     Eigenvalues ---    0.27937   0.28029   0.28087   0.28220   0.28289
     Eigenvalues ---    0.28428   0.28772   0.29795   0.34587   0.34643
     Eigenvalues ---    0.34655   0.34655   0.34660   0.34660   0.34665
     Eigenvalues ---    0.34689   0.34712   0.34729   0.34738   0.34742
     Eigenvalues ---    0.34751   0.34758   0.34772   0.34777   0.34811
     Eigenvalues ---    0.34833   0.34869   0.54851   0.56025   0.94462
 RFO step:  Lambda=-7.62949922D-03 EMin= 2.30000000D-03
 Linear search not attempted -- first point.
 Iteration  1 RMS(Cart)=  0.15930187 RMS(Int)=  0.00360689
 Iteration  2 RMS(Cart)=  0.00810615 RMS(Int)=  0.00032063
 Iteration  3 RMS(Cart)=  0.00002683 RMS(Int)=  0.00032017
 Iteration  4 RMS(Cart)=  0.00000002 RMS(Int)=  0.00032017
 Variable       Old X    -DE/DX   Delta X   Delta X   Delta X     New X
                                 (Linear)    (Quad)   (Total)
    R1        2.55265   0.00292   0.00000   0.00526   0.00526   2.55791
    R2        1.80932   0.01608   0.00000   0.02832   0.02832   1.83764
    R3        2.88374  -0.00866   0.00000  -0.02834  -0.02834   2.85540
    R4        2.30942  -0.01580   0.00000  -0.01660  -0.01660   2.29282
    R5        2.93187  -0.00859   0.00000  -0.03037  -0.03037   2.90150
    R6        2.05948   0.00125   0.00000   0.00350   0.00350   2.06298
    R7        2.05889   0.00524   0.00000   0.01470   0.01470   2.07359
    R8        2.92276  -0.00809   0.00000  -0.02818  -0.02818   2.89458
    R9        2.06350   0.00191   0.00000   0.00539   0.00539   2.06889
   R10        2.06258   0.00332   0.00000   0.00938   0.00938   2.07196
   R11        2.91948  -0.00555   0.00000  -0.01922  -0.01922   2.90025
   R12        2.06184   0.00398   0.00000   0.01124   0.01124   2.07307
   R13        2.06222   0.00412   0.00000   0.01162   0.01162   2.07384
   R14        2.92074  -0.00560   0.00000  -0.01945  -0.01945   2.90130
   R15        2.06102   0.00411   0.00000   0.01158   0.01158   2.07260
   R16        2.06038   0.00416   0.00000   0.01171   0.01171   2.07209
   R17        2.91660  -0.00446   0.00000  -0.01540  -0.01540   2.90120
   R18        2.06231   0.00418   0.00000   0.01179   0.01179   2.07409
   R19        2.06047   0.00447   0.00000   0.01258   0.01258   2.07305
   R20        2.91511  -0.00589   0.00000  -0.02027  -0.02027   2.89484
   R21        2.06145   0.00463   0.00000   0.01306   0.01306   2.07451
   R22        2.06081   0.00393   0.00000   0.01105   0.01105   2.07186
   R23        2.91212  -0.00325   0.00000  -0.01114  -0.01114   2.90098
   R24        2.06116   0.00419   0.00000   0.01181   0.01181   2.07297
   R25        2.06239   0.00465   0.00000   0.01314   0.01314   2.07553
   R26        2.90481  -0.00261   0.00000  -0.00882  -0.00882   2.89598
   R27        2.06231   0.00429   0.00000   0.01210   0.01210   2.07441
   R28        2.06239   0.00384   0.00000   0.01085   0.01085   2.07324
   R29        2.06095   0.00329   0.00000   0.00926   0.00926   2.07022
   R30        2.05983   0.00293   0.00000   0.00823   0.00823   2.06805
   R31        2.06069   0.00292   0.00000   0.00823   0.00823   2.06893
    A1        1.81557   0.00682   0.00000   0.04068   0.04068   1.85625
    A2        1.96777  -0.00246   0.00000  -0.00912  -0.00965   1.95812
    A3        2.15124  -0.00672   0.00000  -0.02563  -0.02614   2.12510
    A4        2.16387   0.00920   0.00000   0.03613   0.03557   2.19945
    A5        2.01639  -0.00438   0.00000  -0.02699  -0.02745   1.98894
    A6        1.90086  -0.00190   0.00000  -0.03451  -0.03505   1.86581
    A7        1.83867   0.00432   0.00000   0.03605   0.03628   1.87495
    A8        1.93487   0.00268   0.00000   0.00346   0.00235   1.93723
    A9        1.91155  -0.00158   0.00000  -0.00446  -0.00425   1.90730
   A10        1.85231   0.00137   0.00000   0.03334   0.03362   1.88593
   A11        2.01684  -0.00609   0.00000  -0.03537  -0.03632   1.98052
   A12        1.93838  -0.00080   0.00000  -0.03599  -0.03728   1.90110
   A13        1.87542   0.00184   0.00000   0.02221   0.02290   1.89832
   A14        1.92873   0.00241   0.00000  -0.00683  -0.00908   1.91966
   A15        1.86946   0.00298   0.00000   0.03688   0.03716   1.90662
   A16        1.82237   0.00048   0.00000   0.03059   0.03083   1.85320
   A17        2.03492  -0.00595   0.00000  -0.03208  -0.03225   2.00268
   A18        1.89598  -0.00011   0.00000  -0.00661  -0.00638   1.88960
   A19        1.90088   0.00203   0.00000   0.00158   0.00127   1.90214
   A20        1.89437   0.00368   0.00000   0.02509   0.02495   1.91931
   A21        1.89744   0.00080   0.00000  -0.00406  -0.00442   1.89303
   A22        1.82928   0.00015   0.00000   0.02189   0.02181   1.85109
   A23        2.01911  -0.00306   0.00000  -0.01951  -0.01964   1.99946
   A24        1.89610  -0.00051   0.00000  -0.00664  -0.00657   1.88952
   A25        1.91092   0.00149   0.00000   0.00277   0.00252   1.91344
   A26        1.90357   0.00209   0.00000   0.01395   0.01389   1.91746
   A27        1.90374  -0.00044   0.00000  -0.01068  -0.01082   1.89291
   A28        1.81988   0.00084   0.00000   0.02493   0.02496   1.84484
   A29        2.02181  -0.00251   0.00000  -0.01493  -0.01499   2.00682
   A30        1.89671  -0.00014   0.00000  -0.00653  -0.00657   1.89014
   A31        1.90572   0.00103   0.00000   0.00466   0.00464   1.91036
   A32        1.90058   0.00118   0.00000   0.00422   0.00410   1.90467
   A33        1.89730   0.00029   0.00000  -0.00004  -0.00006   1.89724
   A34        1.83236   0.00043   0.00000   0.01571   0.01570   1.84806
   A35        1.99361  -0.00095   0.00000  -0.00645  -0.00651   1.98710
   A36        1.91648   0.00091   0.00000   0.00181   0.00166   1.91815
   A37        1.88359   0.00020   0.00000   0.00545   0.00545   1.88904
   A38        1.91619  -0.00103   0.00000  -0.01499  -0.01502   1.90117
   A39        1.90737   0.00064   0.00000   0.00657   0.00660   1.91398
   A40        1.84001   0.00035   0.00000   0.00938   0.00939   1.84940
   A41        1.99189  -0.00057   0.00000  -0.00436  -0.00443   1.98746
   A42        1.90624   0.00003   0.00000   0.00331   0.00332   1.90956
   A43        1.91564  -0.00058   0.00000  -0.01191  -0.01197   1.90366
   A44        1.88577   0.00074   0.00000   0.01094   0.01095   1.89672
   A45        1.91218   0.00014   0.00000  -0.00439  -0.00450   1.90767
   A46        1.84625   0.00033   0.00000   0.00780   0.00782   1.85407
   A47        1.99287  -0.00012   0.00000  -0.00241  -0.00246   1.99041
   A48        1.91525  -0.00061   0.00000  -0.01046  -0.01051   1.90474
   A49        1.89725  -0.00011   0.00000   0.00181   0.00181   1.89907
   A50        1.91314  -0.00001   0.00000  -0.00419  -0.00427   1.90888
   A51        1.89500   0.00046   0.00000   0.00802   0.00802   1.90302
   A52        1.84427   0.00045   0.00000   0.00842   0.00844   1.85270
   A53        1.94343  -0.00114   0.00000  -0.00843  -0.00844   1.93499
   A54        1.95101   0.00012   0.00000   0.00026   0.00024   1.95124
   A55        1.93454   0.00030   0.00000   0.00384   0.00384   1.93838
   A56        1.88335   0.00009   0.00000  -0.00324  -0.00327   1.88008
   A57        1.87671   0.00053   0.00000   0.00397   0.00398   1.88070
   A58        1.87144   0.00016   0.00000   0.00403   0.00402   1.87545
    D1       -3.13373  -0.00078   0.00000  -0.03575  -0.03483   3.11462
    D2       -0.01728   0.00040   0.00000   0.02363   0.02271   0.00542
    D3       -1.05891   0.00087   0.00000   0.04088   0.04168  -1.01723
    D4        3.03381   0.00217   0.00000   0.08547   0.08521   3.11902
    D5        1.05307  -0.00068   0.00000   0.04489   0.04521   1.09829
    D6        2.10804  -0.00005   0.00000  -0.01795  -0.01773   2.09031
    D7       -0.08243   0.00125   0.00000   0.02663   0.02580  -0.05663
    D8       -2.06316  -0.00159   0.00000  -0.01395  -0.01420  -2.07736
    D9       -1.40126   0.00358   0.00000   0.12411   0.12357  -1.27769
   D10        0.81339   0.00111   0.00000   0.05296   0.05357   0.86697
   D11        2.79646   0.00229   0.00000   0.08325   0.08316   2.87962
   D12        0.77165  -0.00021   0.00000   0.05871   0.05818   0.82982
   D13        2.98630  -0.00268   0.00000  -0.01245  -0.01182   2.97448
   D14       -1.31382  -0.00150   0.00000   0.01785   0.01777  -1.29605
   D15        2.80982   0.00208   0.00000   0.09878   0.09825   2.90807
   D16       -1.25871  -0.00039   0.00000   0.02762   0.02825  -1.23047
   D17        0.72436   0.00079   0.00000   0.05792   0.05783   0.78219
   D18        1.22078  -0.00287   0.00000  -0.10844  -0.10828   1.11250
   D19       -2.91640  -0.00238   0.00000  -0.10368  -0.10339  -3.01978
   D20       -0.93336  -0.00121   0.00000  -0.08054  -0.08039  -1.01374
   D21       -0.99872   0.00117   0.00000  -0.02309  -0.02317  -1.02190
   D22        1.14729   0.00167   0.00000  -0.01833  -0.01828   1.12901
   D23        3.13032   0.00283   0.00000   0.00481   0.00472   3.13504
   D24       -2.97368  -0.00219   0.00000  -0.07556  -0.07577  -3.04944
   D25       -0.82767  -0.00169   0.00000  -0.07080  -0.07087  -0.89854
   D26        1.15537  -0.00052   0.00000  -0.04766  -0.04787   1.10750
   D27        1.01691  -0.00096   0.00000  -0.02459  -0.02479   0.99212
   D28       -3.11936  -0.00079   0.00000  -0.02538  -0.02550   3.13833
   D29       -1.14214   0.00070   0.00000   0.00199   0.00182  -1.14032
   D30       -1.12994   0.00050   0.00000  -0.01295  -0.01285  -1.14279
   D31        1.01698   0.00067   0.00000  -0.01374  -0.01356   1.00341
   D32        2.99420   0.00216   0.00000   0.01362   0.01376   3.00795
   D33       -3.11037  -0.00198   0.00000  -0.04949  -0.04950   3.12331
   D34       -0.96345  -0.00181   0.00000  -0.05028  -0.05021  -1.01366
   D35        1.01377  -0.00031   0.00000  -0.02291  -0.02289   0.99088
   D36        0.99996  -0.00046   0.00000  -0.01411  -0.01425   0.98571
   D37       -3.13785  -0.00081   0.00000  -0.02443  -0.02449   3.12084
   D38       -1.14828   0.00016   0.00000  -0.00689  -0.00699  -1.15527
   D39       -1.14302   0.00076   0.00000  -0.00235  -0.00235  -1.14536
   D40        1.00236   0.00041   0.00000  -0.01267  -0.01260   0.98977
   D41        2.99193   0.00138   0.00000   0.00487   0.00490   2.99684
   D42       -3.12043  -0.00110   0.00000  -0.03352  -0.03349   3.12927
   D43       -0.97505  -0.00145   0.00000  -0.04384  -0.04374  -1.01879
   D44        1.01452  -0.00048   0.00000  -0.02630  -0.02624   0.98828
   D45        1.08341  -0.00095   0.00000  -0.02542  -0.02544   1.05797
   D46       -1.07774   0.00039   0.00000  -0.00231  -0.00231  -1.08005
   D47       -3.07493  -0.00061   0.00000  -0.01730  -0.01732  -3.09225
   D48       -1.05993   0.00010   0.00000  -0.00939  -0.00938  -1.06931
   D49        3.06211   0.00145   0.00000   0.01372   0.01375   3.07585
   D50        1.06492   0.00044   0.00000  -0.00127  -0.00127   1.06365
   D51       -3.04712  -0.00117   0.00000  -0.03008  -0.03009  -3.07720
   D52        1.07492   0.00017   0.00000  -0.00698  -0.00696   1.06796
   D53       -0.92227  -0.00083   0.00000  -0.02196  -0.02197  -0.94424
   D54        3.13548  -0.00030   0.00000  -0.00400  -0.00401   3.13147
   D55       -1.03517   0.00029   0.00000   0.00957   0.00953  -1.02564
   D56        0.98152   0.00038   0.00000   0.01415   0.01408   0.99560
   D57       -0.98640  -0.00060   0.00000  -0.01808  -0.01800  -1.00440
   D58        1.12613  -0.00001   0.00000  -0.00452  -0.00446   1.12167
   D59       -3.14036   0.00008   0.00000   0.00007   0.00009  -3.14027
   D60        1.02376  -0.00039   0.00000  -0.01147  -0.01145   1.01230
   D61        3.13629   0.00020   0.00000   0.00209   0.00209   3.13838
   D62       -1.13019   0.00029   0.00000   0.00667   0.00663  -1.12356
   D63       -1.16588   0.00084   0.00000   0.02745   0.02743  -1.13846
   D64        0.98974   0.00026   0.00000   0.01206   0.01208   1.00182
   D65        2.99883   0.00041   0.00000   0.01744   0.01743   3.01626
   D66        2.99345   0.00065   0.00000   0.01814   0.01812   3.01157
   D67       -1.13411   0.00007   0.00000   0.00275   0.00277  -1.13134
   D68        0.87498   0.00022   0.00000   0.00812   0.00812   0.88310
   D69        0.98994  -0.00022   0.00000   0.00528   0.00527   0.99520
   D70       -3.13762  -0.00080   0.00000  -0.01011  -0.01009   3.13548
   D71       -1.12853  -0.00065   0.00000  -0.00473  -0.00473  -1.13327
   D72       -0.97797  -0.00015   0.00000  -0.00939  -0.00940  -0.98737
   D73        1.13006  -0.00075   0.00000  -0.01925  -0.01925   1.11081
   D74       -3.06637  -0.00027   0.00000  -0.01139  -0.01138  -3.07775
   D75       -3.13473   0.00075   0.00000   0.00936   0.00935  -3.12538
   D76       -1.02670   0.00015   0.00000  -0.00050  -0.00050  -1.02721
   D77        1.06005   0.00063   0.00000   0.00736   0.00737   1.06742
   D78        1.14175  -0.00003   0.00000  -0.00282  -0.00282   1.13893
   D79       -3.03341  -0.00064   0.00000  -0.01267  -0.01267  -3.04608
   D80       -0.94665  -0.00015   0.00000  -0.00481  -0.00480  -0.95145
         Item               Value     Threshold  Converged?
 Maximum Force            0.016082     0.000450     NO 
 RMS     Force            0.003117     0.000300     NO 
 Maximum Displacement     0.965676     0.001800     NO 
 RMS     Displacement     0.161836     0.001200     NO 
 Predicted change in Energy=-4.330174D-03
 GradGradGradGradGradGradGradGradGradGradGradGradGradGradGradGradGradGrad

                          Input orientation:                          
 ---------------------------------------------------------------------
 Center     Atomic      Atomic             Coordinates (Angstroms)
 Number     Number       Type             X           Y           Z
 ---------------------------------------------------------------------
      1          8           0        5.525475   -1.166627   -1.054064
      2          6           0        4.559135   -0.698133   -0.230113
      3          6           0        3.932958   -1.796342    0.597533
      4          6           0        3.303951   -2.922832   -0.234842
      5          6           0        1.992752   -2.519049   -0.915990
      6          6           0        2.128373   -1.401696   -1.959341
      7          6           0        3.121771   -1.702168   -3.090722
      8          6           0        2.839862   -2.991008   -3.875840
      9          6           0        1.478210   -3.003609   -4.577558
     10          6           0        1.201721   -4.286325   -5.374316
     11          6           0        2.138501   -4.493143   -6.569385
     12          8           0        4.241598    0.472838   -0.219190
     13          1           0        5.849611   -0.401320   -1.558914
     14          1           0        3.188901   -1.323551    1.241438
     15          1           0        4.719899   -2.214843    1.237561
     16          1           0        4.028019   -3.256776   -0.985053
     17          1           0        3.121426   -3.784331    0.418360
     18          1           0        1.556252   -3.412785   -1.378768
     19          1           0        1.277667   -2.193991   -0.149610
     20          1           0        1.135158   -1.200980   -2.379046
     21          1           0        2.435329   -0.471969   -1.465683
     22          1           0        3.121951   -0.851369   -3.784111
     23          1           0        4.137753   -1.755323   -2.680373
     24          1           0        2.903181   -3.858216   -3.205714
     25          1           0        3.637654   -3.123163   -4.616187
     26          1           0        0.683140   -2.874429   -3.832899
     27          1           0        1.412874   -2.137491   -5.249782
     28          1           0        1.273884   -5.150532   -4.701299
     29          1           0        0.164845   -4.263892   -5.732135
     30          1           0        2.097992   -3.635609   -7.249928
     31          1           0        3.178695   -4.618759   -6.253385
     32          1           0        1.858361   -5.385078   -7.139142
 ---------------------------------------------------------------------
                    Distance matrix (angstroms):
                    1          2          3          4          5
     1  O    0.000000
     2  C    1.353586   0.000000
     3  C    2.379164   1.511012   0.000000
     4  C    2.947973   2.554368   1.535408   0.000000
     5  C    3.785266   3.220634   2.564655   1.531746   0.000000
     6  C    3.523505   3.064937   3.154343   2.582583   1.534748
     7  C    3.195711   3.355173   3.777581   3.111151   2.582912
     8  C    4.301547   4.637295   4.757431   3.671088   3.114651
     9  C    5.671848   5.805824   5.853618   4.711585   3.729159
[...]
 Alpha virt. eigenvalues --    4.08754   4.10259   4.15241   4.17481   4.18525
 Alpha virt. eigenvalues --    4.20460   4.22730   4.24986   4.27381   4.28657
 Alpha virt. eigenvalues --    4.34893   4.37095   4.39958   4.41709   4.43649
 Alpha virt. eigenvalues --    4.45841   4.47809   4.49395   4.51429   4.56037
 Alpha virt. eigenvalues --    4.56933   4.57654   4.60776   4.61589   4.64218
 Alpha virt. eigenvalues --    4.65522   4.67724   4.72099   4.73318   4.75895
 Alpha virt. eigenvalues --    4.76319   4.80705   4.81999   4.85287   4.88923
 Alpha virt. eigenvalues --    4.96112   4.98703   5.06182   5.17258   5.20672
 Alpha virt. eigenvalues --    5.22759   5.39417   5.40300   5.51292   5.59345
 Alpha virt. eigenvalues --    5.73565   5.84885   5.87444   6.16253   6.19891
 Alpha virt. eigenvalues --    6.33390   6.34065   6.45484   6.48686   6.64544
 Alpha virt. eigenvalues --    6.71011   6.74235   6.83109   6.89380   7.07104
 Alpha virt. eigenvalues --    7.08003   7.28089  22.41970  22.53478  22.56832
 Alpha virt. eigenvalues --   22.57816  22.60569  22.62402  22.64479  22.64959
 Alpha virt. eigenvalues --   22.72760  23.29646  43.97817  44.06032
          Condensed to atoms (all electrons):
               1          2          3          4          5          6
     1  O    7.982661   0.331635  -0.111067   0.002752   0.004767  -0.006054
     2  C    0.331635   4.561903   0.239683  -0.015118   0.013567  -0.010934
     3  C   -0.111067   0.239683   5.323882   0.196726  -0.065014   0.043140
     4  C    0.002752  -0.015118   0.196726   5.246376   0.213872  -0.061651
     5  C    0.004767   0.013567  -0.065014   0.213872   5.311940   0.155541
     6  C   -0.006054  -0.010934   0.043140  -0.061651   0.155541   5.496510
     7  C   -0.007993   0.013453  -0.023392   0.051304  -0.065403   0.113150
     8  C    0.001261  -0.001226   0.002814  -0.017665   0.049887  -0.055501
     9  C   -0.000048   0.000098  -0.000044   0.001248  -0.015907   0.031911
    10  C    0.000001  -0.000002  -0.000000   0.000107   0.000016  -0.001674
    11  C   -0.000000  -0.000000   0.000001  -0.000035   0.000148   0.000029
    12  O   -0.092912   0.665546  -0.092243   0.000737   0.004804  -0.016363
    13  H    0.288433  -0.022349   0.015664  -0.000968  -0.000298   0.000878
    14  H    0.004599  -0.051386   0.427446  -0.034440   0.001745  -0.005282
    15  H    0.003182  -0.018344   0.396934  -0.045485   0.010011  -0.001933
    16  H    0.002272  -0.006185  -0.044247   0.430542  -0.036557  -0.015195
    17  H   -0.000027   0.003001  -0.035174   0.432928  -0.053410   0.010421
    18  H    0.000007  -0.000026   0.008856  -0.061262   0.429619  -0.024046
    19  H   -0.000089  -0.000665  -0.007600  -0.032563   0.436949  -0.062442
    20  H   -0.000107   0.000178  -0.000623   0.008455  -0.054600   0.422486
    21  H   -0.001002   0.001708   0.000974  -0.008872  -0.035459   0.436981
    22  H    0.000299  -0.000380   0.000206  -0.000868   0.010834  -0.059999
    23  H    0.007152   0.002668  -0.003700  -0.000221  -0.006085  -0.038022
    24  H    0.000020   0.000099  -0.000442  -0.000654   0.008106  -0.021952
    25  H   -0.000031   0.000000   0.000005   0.000222  -0.001695   0.011456
    26  H    0.000001  -0.000006   0.000039  -0.000176  -0.004115   0.013118
    27  H    0.000001   0.000005  -0.000009  -0.000001   0.000848  -0.005803
    28  H   -0.000000   0.000000  -0.000001   0.000060  -0.000364   0.000230
    29  H   -0.000000   0.000000  -0.000000  -0.000001   0.000049  -0.000055
    30  H    0.000000   0.000000  -0.000000   0.000002  -0.000019   0.000066
    31  H    0.000000  -0.000000   0.000000  -0.000008   0.000047  -0.000147
    32  H    0.000000  -0.000000   0.000000  -0.000000   0.000001   0.000001
               7          8          9         10         11         12
     1  O   -0.007993   0.001261  -0.000048   0.000001  -0.000000  -0.092912
     2  C    0.013453  -0.001226   0.000098  -0.000002  -0.000000   0.665546
     3  C   -0.023392   0.002814  -0.000044  -0.000000   0.000001  -0.092243
     4  C    0.051304  -0.017665   0.001248   0.000107  -0.000035   0.000737
     5  C   -0.065403   0.049887  -0.015907   0.000016   0.000148   0.004804
     6  C    0.113150  -0.055501   0.031911  -0.001674   0.000029  -0.016363
     7  C    5.397526   0.154738  -0.043600   0.009165  -0.000762   0.002084
     8  C    0.154738   5.394717   0.174062  -0.047170   0.015507  -0.000086
     9  C   -0.043600   0.174062   5.293262   0.248424  -0.058217   0.000003
    10  C    0.009165  -0.047170   0.248424   5.106043   0.259569  -0.000000
    11  C   -0.000762   0.015507  -0.058217   0.259569   5.082387  -0.000000
    12  O    0.002084  -0.000086   0.000003  -0.000000  -0.000000   7.827313
    13  H   -0.000011   0.000034   0.000005   0.000000   0.000000   0.006307
    14  H    0.001044  -0.000043  -0.000007  -0.000000  -0.000000   0.007091
    15  H    0.000603  -0.000082   0.000003  -0.000000  -0.000000   0.002789
    16  H    0.007433  -0.000109  -0.000278  -0.000019   0.000013   0.000311
    17  H   -0.001905   0.000390   0.000018  -0.000003   0.000000  -0.000330
    18  H   -0.016200   0.005004  -0.000064  -0.000113   0.000044  -0.000038
    19  H    0.011556  -0.001214   0.000070  -0.000016   0.000001  -0.000165
    20  H   -0.025772  -0.010975  -0.001519   0.000728  -0.000109   0.000215
    21  H   -0.056889   0.007942   0.000050   0.000005   0.000004   0.008587
    22  H    0.430513  -0.028043  -0.009023  -0.000128   0.000164   0.000036
    23  H    0.444275  -0.067748   0.010101  -0.000508  -0.000007  -0.001192
    24  H   -0.017847   0.412763  -0.060908   0.002998  -0.002154  -0.000001
    25  H   -0.044272   0.433774  -0.041050  -0.006659  -0.000969   0.000000
    26  H   -0.016561  -0.036717   0.422244  -0.040870   0.009311  -0.000000
    27  H    0.010012  -0.075505   0.433720  -0.028265  -0.011291  -0.000000
    28  H   -0.000320  -0.012260  -0.039323   0.430126  -0.053318  -0.000000
    29  H   -0.000458   0.012300  -0.061902   0.439244  -0.039742   0.000000
    30  H   -0.000270  -0.004732   0.005290  -0.048874   0.408425  -0.000000
    31  H    0.000936   0.006192  -0.013023  -0.039530   0.417277   0.000000
    32  H    0.000037  -0.000393   0.011467  -0.043988   0.416090   0.000000
              13         14         15         16         17         18
     1  O    0.288433   0.004599   0.003182   0.002272  -0.000027   0.000007
     2  C   -0.022349  -0.051386  -0.018344  -0.006185   0.003001  -0.000026
     3  C    0.015664   0.427446   0.396934  -0.044247  -0.035174   0.008856
     4  C   -0.000968  -0.034440  -0.045485   0.430542   0.432928  -0.061262
     5  C   -0.000298   0.001745   0.010011  -0.036557  -0.053410   0.429619
     6  C    0.000878  -0.005282  -0.001933  -0.015195   0.010421  -0.024046
     7  C   -0.000011   0.001044   0.000603   0.007433  -0.001905  -0.016200
     8  C    0.000034  -0.000043  -0.000082  -0.000109   0.000390   0.005004
     9  C    0.000005  -0.000007   0.000003  -0.000278   0.000018  -0.000064
    10  C    0.000000  -0.000000  -0.000000  -0.000019  -0.000003  -0.000113
    11  C    0.000000  -0.000000  -0.000000   0.000013   0.000000   0.000044
    12  O    0.006307   0.007091   0.002789   0.000311  -0.000330  -0.000038
    13  H    0.375708  -0.000722  -0.000771  -0.000336   0.000073  -0.000004
    14  H   -0.000722   0.492818  -0.015507   0.004920  -0.002222   0.000091
    15  H   -0.000771  -0.015507   0.513158  -0.000093  -0.009955  -0.000294
    16  H   -0.000336   0.004920  -0.000093   0.495208  -0.016815  -0.001785
    17  H    0.000073  -0.002222  -0.009955  -0.016815   0.533058  -0.006705
    18  H   -0.000004   0.000091  -0.000294  -0.001785  -0.006705   0.531037
    19  H    0.000011   0.002017  -0.000117   0.004943  -0.002927  -0.016319
    20  H    0.000007  -0.000173   0.000031  -0.000583  -0.000234  -0.003904
    21  H   -0.000418   0.001402   0.000481   0.001760  -0.000566   0.003712
    22  H    0.000006  -0.000001  -0.000001   0.000328   0.000031  -0.000728
    23  H   -0.000776  -0.000102  -0.000069  -0.008696   0.000294   0.001371
    24  H   -0.000003   0.000006   0.000008   0.001311  -0.000098  -0.009169
    25  H    0.000000   0.000000  -0.000001   0.000092  -0.000008   0.000496
    26  H   -0.000000  -0.000001   0.000000   0.000097  -0.000015   0.001380
    27  H   -0.000000   0.000000  -0.000000  -0.000003  -0.000000  -0.000015
    28  H   -0.000000   0.000000  -0.000000  -0.000022   0.000002   0.000497
    29  H    0.000000   0.000000   0.000000   0.000001   0.000000  -0.000027
    30  H   -0.000000   0.000000   0.000000  -0.000001   0.000000   0.000003
    31  H    0.000000  -0.000000  -0.000000   0.000007  -0.000000  -0.000013
    32  H   -0.000000  -0.000000  -0.000000  -0.000000  -0.000000  -0.000000
              19         20         21         22         23         24
     1  O   -0.000089  -0.000107  -0.001002   0.000299   0.007152   0.000020
     2  C   -0.000665   0.000178   0.001708  -0.000380   0.002668   0.000099
     3  C   -0.007600  -0.000623   0.000974   0.000206  -0.003700  -0.000442
     4  C   -0.032563   0.008455  -0.008872  -0.000868  -0.000221  -0.000654
     5  C    0.436949  -0.054600  -0.035459   0.010834  -0.006085   0.008106
     6  C   -0.062442   0.422486   0.436981  -0.059999  -0.038022  -0.021952
     7  C    0.011556  -0.025772  -0.056889   0.430513   0.444275  -0.017847
     8  C   -0.001214  -0.010975   0.007942  -0.028043  -0.067748   0.412763
     9  C    0.000070  -0.001519   0.000050  -0.009023   0.010101  -0.060908
    10  C   -0.000016   0.000728   0.000005  -0.000128  -0.000508   0.002998
    11  C    0.000001  -0.000109   0.000004   0.000164  -0.000007  -0.002154
    12  O   -0.000165   0.000215   0.008587   0.000036  -0.001192  -0.000001
    13  H    0.000011   0.000007  -0.000418   0.000006  -0.000776  -0.000003
    14  H    0.002017  -0.000173   0.001402  -0.000001  -0.000102   0.000006
    15  H   -0.000117   0.000031   0.000481  -0.000001  -0.000069   0.000008
    16  H    0.004943  -0.000583   0.001760   0.000328  -0.008696   0.001311
    17  H   -0.002927  -0.000234  -0.000566   0.000031   0.000294  -0.000098
    18  H   -0.016319  -0.003904   0.003712  -0.000728   0.001371  -0.009169
    19  H    0.521014  -0.006675  -0.000868  -0.000202  -0.000897   0.000368
    20  H   -0.006675   0.519616  -0.009612  -0.002258   0.003999   0.001834
    21  H   -0.000868  -0.009612   0.468232  -0.005667  -0.002709  -0.000711
    22  H   -0.000202  -0.002258  -0.005667   0.522018  -0.014330   0.005224
    23  H   -0.000897   0.003999  -0.002709  -0.014330   0.514727  -0.002988
    24  H    0.000368   0.001834  -0.000711   0.005224  -0.002988   0.543865
    25  H    0.000035  -0.000664  -0.000087  -0.003926  -0.006276  -0.020933
    26  H    0.000136  -0.008295   0.000514   0.001378  -0.000511  -0.001403
    27  H    0.000007   0.001333  -0.000216   0.001216  -0.000058   0.007103
    28  H   -0.000006   0.000021  -0.000001  -0.000028   0.000016   0.002273
    29  H   -0.000001   0.000009  -0.000002   0.000033   0.000016  -0.000003
    30  H   -0.000000   0.000004  -0.000000  -0.000018   0.000012   0.000161
    31  H    0.000000   0.000003  -0.000000   0.000060  -0.000016   0.000317
    32  H   -0.000000   0.000001  -0.000000  -0.000004  -0.000002  -0.000060
              25         26         27         28         29         30
     1  O   -0.000031   0.000001   0.000001  -0.000000  -0.000000   0.000000
     2  C    0.000000  -0.000006   0.000005   0.000000   0.000000   0.000000
     3  C    0.000005   0.000039  -0.000009  -0.000001  -0.000000  -0.000000
     4  C    0.000222  -0.000176  -0.000001   0.000060  -0.000001   0.000002
     5  C   -0.001695  -0.004115   0.000848  -0.000364   0.000049  -0.000019
     6  C    0.011456   0.013118  -0.005803   0.000230  -0.000055   0.000066
     7  C   -0.044272  -0.016561   0.010012  -0.000320  -0.000458  -0.000270
     8  C    0.433774  -0.036717  -0.075505  -0.012260   0.012300  -0.004732
     9  C   -0.041050   0.422244   0.433720  -0.039323  -0.061902   0.005290
    10  C   -0.006659  -0.040870  -0.028265   0.430126   0.439244  -0.048874
    11  C   -0.000969   0.009311  -0.011291  -0.053318  -0.039742   0.408425
    12  O    0.000000  -0.000000  -0.000000  -0.000000   0.000000  -0.000000
    13  H    0.000000  -0.000000  -0.000000  -0.000000   0.000000  -0.000000
    14  H    0.000000  -0.000001   0.000000   0.000000   0.000000   0.000000
    15  H   -0.000001   0.000000  -0.000000  -0.000000   0.000000   0.000000
    16  H    0.000092   0.000097  -0.000003  -0.000022   0.000001  -0.000001
    17  H   -0.000008  -0.000015  -0.000000   0.000002   0.000000   0.000000
    18  H    0.000496   0.001380  -0.000015   0.000497  -0.000027   0.000003
    19  H    0.000035   0.000136   0.000007  -0.000006  -0.000001  -0.000000
    20  H   -0.000664  -0.008295   0.001333   0.000021   0.000009   0.000004
    21  H   -0.000087   0.000514  -0.000216  -0.000001  -0.000002  -0.000000
    22  H   -0.003926   0.001378   0.001216  -0.000028   0.000033  -0.000018
    23  H   -0.006276  -0.000511  -0.000058   0.000016   0.000016   0.000012
    24  H   -0.020933  -0.001403   0.007103   0.002273  -0.000003   0.000161
    25  H    0.530219   0.004729  -0.000266   0.001625  -0.000464   0.001090
    26  H    0.004729   0.544892  -0.021066  -0.002518  -0.007691   0.000195
    27  H   -0.000266  -0.021066   0.530639   0.006534  -0.002941   0.002482
    28  H    0.001625  -0.002518   0.006534   0.557460  -0.024836   0.007554
    29  H   -0.000464  -0.007691  -0.002941  -0.024836   0.553372  -0.003606
    30  H    0.001090   0.000195   0.002482   0.007554  -0.003606   0.548435
    31  H   -0.006799  -0.000571   0.001093  -0.003295   0.006375  -0.030576
    32  H    0.000272  -0.000316  -0.000189  -0.003787  -0.005586  -0.023533
              31         32
     1  O    0.000000   0.000000
     2  C   -0.000000  -0.000000
     3  C    0.000000   0.000000
     4  C   -0.000008  -0.000000
     5  C    0.000047   0.000001
     6  C   -0.000147   0.000001
     7  C    0.000936   0.000037
     8  C    0.006192  -0.000393
     9  C   -0.013023   0.011467
    10  C   -0.039530  -0.043988
    11  C    0.417277   0.416090
    12  O    0.000000   0.000000
    13  H    0.000000  -0.000000
    14  H   -0.000000  -0.000000
    15  H   -0.000000  -0.000000
    16  H    0.000007  -0.000000
    17  H   -0.000000  -0.000000
    18  H   -0.000013  -0.000000
    19  H    0.000000  -0.000000
    20  H    0.000003   0.000001
    21  H   -0.000000  -0.000000
    22  H    0.000060  -0.000004
    23  H   -0.000016  -0.000002
    24  H    0.000317  -0.000060
    25  H   -0.006799   0.000272
    26  H   -0.000571  -0.000316
    27  H    0.001093  -0.000189
    28  H   -0.003295  -0.003787
    29  H    0.006375  -0.005586
    30  H   -0.030576  -0.023533
    31  H    0.545838  -0.024403
    32  H   -0.024403   0.531683
 Mulliken charges:
               1
     1  O   -0.409713
     2  C    0.293075
     3  C   -0.272814
     4  C   -0.305345
     5  C   -0.313825
     6  C   -0.348863
     7  C   -0.326175
     8  C   -0.311916
     9  C   -0.287064
    10  C   -0.238608
    11  C   -0.442364
    12  O   -0.322494
    13  H    0.339530
    14  H    0.166704
    15  H    0.165452
    16  H    0.181687
    17  H    0.150181
    18  H    0.158593
    19  H    0.155659
    20  H    0.167185
    21  H    0.190730
    22  H    0.153259
    23  H    0.170281
    24  H    0.152869
    25  H    0.150084
    26  H    0.142797
    27  H    0.150636
    28  H    0.133680
    29  H    0.135916
    30  H    0.137911
    31  H    0.140239
    32  H    0.142711
 Sum of Mulliken charges =  -0.00000
 Mulliken charges with hydrogens summed into heavy atoms:
               1
     1  O   -0.070183
     2  C    0.293075
     3  C    0.059342
     4  C    0.026523
     5  C    0.000427
     6  C    0.009052
     7  C   -0.002636
     8  C   -0.008962
     9  C    0.006370
    10  C    0.030988
    11  C   -0.021503
    12  O   -0.322494
 Electronic spatial extent (au):  <R**2>=           3544.0933
 Charge=             -0.0000 electrons
 Dipole moment (field-independent basis, Debye):
    X=              0.9307    Y=              0.4676    Z=             -1.4628  Tot=              1.7957
 Quadrupole moment (field-independent basis, Debye-Ang):
   XX=            -83.1819   YY=            -72.4183   ZZ=            -80.8310
   XY=             -1.3642   XZ=              7.1788   YZ=              0.0339
 Traceless Quadrupole moment (field-independent basis, Debye-Ang):
   XX=             -4.3715   YY=              6.3921   ZZ=             -2.0206
   XY=             -1.3642   XZ=              7.1788   YZ=              0.0339
 Octapole moment (field-independent basis, Debye-Ang**2):
  XXX=             -1.2995  YYY=            -22.6807  ZZZ=             -1.9901  XYY=            -25.2133
  XXY=              6.6505  XXZ=            -26.5352  XZZ=              2.1591  YZZ=              2.4578
  YYZ=             -1.9186  XYZ=             -3.5992
 Hexadecapole moment (field-independent basis, Debye-Ang**3):
 XXXX=          -3948.4963 YYYY=           -509.6898 ZZZZ=           -393.5385 XXXY=             11.3739
 XXXZ=            118.2135 YYYX=             69.3393 YYYZ=              7.6115 ZZZX=             10.0663
 ZZZY=             -2.0609 XXYY=           -695.1213 XXZZ=           -736.7039 YYZZ=           -156.9837
 XXYZ=             10.1525 YYXZ=              9.9049 ZZXY=             -7.6966
 N-N= 7.398217944274D+02 E-N=-2.744506230062D+03  KE= 5.405679691081D+02
 Unable to Open any file for archive entry.
 1\1\GINC-NOTCH075\SP\RM062X\def2TZVP\C10H20O2\U6032257\03-Feb-2022\0\\
 # M062X/def2tzvp int=(grid=ultrafine) nmr=giao guess=read geom=check\\
 Ac1.xyz\\0,1\O,0,5.6530642014,-1.1227501056,-0.8161732425\C,0,4.618188
 2614,-0.6659390663,-0.0607609989\C,0,3.9134167767,-1.7910900635,0.6588
 611388\C,0,3.3197858025,-2.8847757164,-0.2524663\C,0,2.0223137292,-2.4
 880489103,-0.972505104\C,0,2.1413725314,-1.3765181729,-2.026974923\C,0
 ,3.1079703736,-1.6771141262,-3.1850779046\C,0,2.8341640684,-2.98149351
 48,-3.9484262781\C,0,1.4456966263,-3.052921655,-4.593022657\C,0,1.1801
 894037,-4.349142394,-5.3718852775\C,0,2.0691659153,-4.5347447086,-6.60
 50737232\O,0,4.3483881037,0.5128266265,0.0109420825\H,0,6.0387522226,-
 0.3370772708,-1.2389350051\H,0,3.1385682162,-1.3387693263,1.282381237\
 H,0,4.6564462797,-2.2497294754,1.3221941206\H,0,4.0809290503,-3.204750
 8975,-0.9712074472\H,0,3.1085559265,-3.7556133446,0.3781689997\H,0,1.6
 075262986,-3.3881640937,-1.4424768811\H,0,1.2863131029,-2.1780813261,-
 0.2191226009\H,0,1.1396286325,-1.1859977821,-2.4300743617\H,0,2.446318
 5392,-0.4411836151,-1.5460484658\H,0,3.0673510853,-0.8374942236,-3.891
 5702265\H,0,4.1353628855,-1.7020282464,-2.8057076133\H,0,2.9606559927,
 -3.8414714006,-3.2766315945\H,0,3.6036138002,-3.0924767981,-4.72132320
 48\H,0,0.6783242998,-2.9498043237,-3.81633844\H,0,1.3154258885,-2.1922
 644594,-5.2648697766\H,0,1.3077205127,-5.2062531449,-4.6965732516\H,0,
 0.1287772957,-4.3636486948,-5.6849077614\H,0,1.9697734637,-3.685223668
 3,-7.2905555188\H,0,3.1264967703,-4.6202036474,-6.3364170035\H,0,1.796
 6439435,-5.4405524541,-7.1559220169\\Version=ES64L-G16RevC.01\State=1-
 A\HF=-543.540591\RMSD=3.080e-09\Dipole=0.077577,-0.6938622,-0.108072\Q
 uadrupole=3.2484167,-4.8101464,1.5617297,0.926485,-0.490842,-5.2966481
 \PG=C01 [X(C10H20O2)]\\@
 The archive entry for this job was punched.


 ABSOLUTISM, OBSOLETISM -- IF IT WORKS, IT'S OUT OF DATE

                          -- STAFFORD BEER
 Job cpu time:       0 days  0 hours 42 minutes 23.0 seconds.
 Elapsed time:       0 days  0 hours  1 minutes 30.6 seconds.
 File lengths (MBytes):  RWF=    140 Int=      0 D2E=      0 Chk=     24 Scr=      1
 Normal termination of Gaussian 16 at Thu Feb  3 07:33:06 2022.
