 Entering Gaussian System, Link 0=/uufs/chpc.utah.edu/sys/installdir/gaussian16/C01/AVX2/g16/g16
 Input=Ac1_clust-4.com
 Output=Ac1_clust-4.log
 Initial command:
 /uufs/chpc.utah.edu/sys/installdir/gaussian16/C01/AVX2/g16/l1.exe "/scratch/general/lustre/u6032257/3867912/notchpeak.peaks/Gau-285952.inp" -scrdir="/scratch/general/lustre/u6032257/3867912/notchpeak.peaks/"
 Entering Link 1 = /uufs/chpc.utah.edu/sys/installdir/gaussian16/C01/AVX2/g16/l1.exe PID=    285954.
  
 Copyright (c) 1988-2019, Gaussian, Inc.  All Rights Reserved.
  
 This is part of the Gaussian(R) 16 program.  It is based on
 the Gaussian(R) 09 system (copyright 2009, Gaussian, Inc.),
 the Gaussian(R) 03 system (copyright 2003, Gaussian, Inc.),
 the Gaussian(R) 98 system (copyright 1998, Gaussian, Inc.),
 the Gaussian(R) 94 system (copyright 1995, Gaussian, Inc.),
 the Gaussian 92(TM) system (copyright 1992, Gaussian, Inc.),
 the Gaussian 90(TM) system (copyright 1990, Gaussian, Inc.),
 the Gaussian 88(TM) system (copyright 1988, Gaussian, Inc.),
 the Gaussian 86(TM) system (copyright 1986, Carnegie Mellon
 University), and the Gaussian 82(TM) system (copyright 1983,
 Carnegie Mellon University). Gaussian is a federally registered
 trademark of Gaussian, Inc.
  
 This software contains proprietary and confidential information,
 including trade secrets, belonging to Gaussian, Inc.
  
 This software is provided under written license and may be
 used, copied, transmitted, or stored only in accord with that
 written license.
  
 The following legend is applicable only to US Government
 contracts under FAR:
  
                    RESTRICTED RIGHTS LEGEND
  
 Use, reproduction and disclosure by the US Government is
 subject to restrictions as set forth in subparagraphs (a)
 and (c) of the Commercial Computer Software - Restricted
 Rights clause in FAR 52.227-19.
  
 Gaussian, Inc.
 340 Quinnipiac St., Bldg. 40, Wallingford CT 06492
  
  
 ---------------------------------------------------------------
 Warning -- This program may not be used in any manner that
 competes with the business of Gaussian, Inc. or will provide
 assistance to any competitor of Gaussian, Inc.  The licensee
 of this program is prohibited from giving any competitor of
 Gaussian, Inc. access to this program.  By using this program,
 the user acknowledges that Gaussian, Inc. is engaged in the
 business of creating and licensing software in the field of
 computational chemistry and represents and warrants to the
 licensee that it is not a competitor of Gaussian, Inc. and that
 it will not use this program in any manner prohibited above.
 ---------------------------------------------------------------
  

 Cite this work as:
 Gaussian 16, Revision C.01,
 M. J. Frisch, G. W. Trucks, H. B. Schlegel, G. E. Scuseria, 
 M. A. Robb, J. R. Cheeseman, G. Scalmani, V. Barone, 
 G. A. Petersson, H. Nakatsuji, X. Li, M. Caricato, A. V. Marenich, 
 J. Bloino, B. G. Janesko, R. Gomperts, B. Mennucci, H. P. Hratchian, 
 J. V. Ortiz, A. F. Izmaylov, J. L. Sonnenberg, D. Williams-Young, 
 F. Ding, F. Lipparini, F. Egidi, J. Goings, B. Peng, A. Petrone, 
 T. Henderson, D. Ranasinghe, V. G. Zakrzewski, J. Gao, N. Rega, 
 G. Zheng, W. Liang, M. Hada, M. Ehara, K. Toyota, R. Fukuda, 
 J. Hasegawa, M. Ishida, T. Nakajima, Y. Honda, O. Kitao, H. Nakai, 
 T. Vreven, K. Throssell, J. A. Montgomery, Jr., J. E. Peralta, 
 F. Ogliaro, M. J. Bearpark, J. J. Heyd, E. N. Brothers, K. N. Kudin, 
 V. N. Staroverov, T. A. Keith, R. Kobayashi, J. Normand, 
 K. Raghavachari, A. P. Rendell, J. C. Burant, S. S. Iyengar, 
 J. Tomasi, M. Cossi, J. M. Millam, M. Klene, C. Adamo, R. Cammi, 
 J. W. Ochterski, R. L. Martin, K. Morokuma, O. Farkas, 
 J. B. Foresman, and D. J. Fox, Gaussian, Inc., Wallingford CT, 2019.
 
 ******************************************
 Gaussian 16:  ES64L-G16RevC.01  3-Jul-2019
                 5-Feb-2022 
 ******************************************
 %NProcShared=32
 Will use up to   32 processors via shared memory.
 %mem=16GB
 %chk=Ac1_clust-4.chk
 ----------------------------------------------------------------------
 # B3LYP/6-31G(d,p) empiricaldispersion=GD3BJ int=(grid=ultrafine) opt 
 freq=noraman
 ----------------------------------------------------------------------
 1/18=20,19=15,26=4,38=1/1,3;
 2/9=110,12=2,17=6,18=5,40=1/2;
 3/5=1,6=6,7=101,11=2,25=1,30=1,71=1,74=-5,75=-5,124=41/1,2,3;
 4//1;
 5/5=2,38=5/2;
 6/7=2,8=2,9=2,10=2,28=1/1;
 7//1,2,3,16;
 1/18=20,19=15,26=4/3(2);
 2/9=110/2;
 99//99;
 2/9=110/2;
 3/5=1,6=6,7=101,11=2,25=1,30=1,71=1,74=-5,75=-5,124=41/1,2,3;
 4/5=5,16=3,69=1/1;
 5/5=2,38=5/2;
 7//1,2,3,16;
 1/18=20,19=15,26=4/3(-5);
 2/9=110/2;
 6/7=2,8=2,9=2,10=2,19=2,28=1/1;
 99/9=1/99;
 -------
 Ac1.xyz
 -------
 Symbolic Z-matrix:
 Charge =  0 Multiplicity = 1
 O                     4.9032    0.315    -1.4959 
 C                     4.7919   -0.9033   -0.9259 
 C                     3.6557   -0.9498    0.0969 
 C                     3.2387   -2.3647    0.5809 
 C                     2.6823   -3.3098   -0.5071 
 C                     1.368    -2.8279   -1.1577 
 C                     0.8739   -3.7283   -2.3114 
 C                     1.3146   -3.2836   -3.7233 
 C                     2.8385   -3.2812   -3.9595 
 C                     3.2485   -3.0229   -5.4217 
 C                     2.8909   -1.6178   -5.9319 
 O                     5.5376   -1.8351   -1.1935 
 H                     5.639     0.2205   -2.1016 
 H                     2.797    -0.4193   -0.3118 
 H                     3.9918   -0.3643    0.9517 
 H                     4.0962   -2.8452    1.0579 
 H                     2.4943   -2.2632    1.3726 
 H                     3.4466   -3.4805   -1.2639 
 H                     2.5104   -4.2902   -0.0597 
 H                     0.5995   -2.7898   -0.3838 
 H                     1.4657   -1.804    -1.5195 
 H                     1.1656   -4.7655   -2.1368 
 H                    -0.2174   -3.7357   -2.2958 
 H                     0.9119   -2.2899   -3.924 
 H                     0.8447   -3.9447   -4.4534 
 H                     3.3109   -2.5312   -3.3236 
 H                     3.2497   -4.2425   -3.6468 
 H                     4.3269   -3.1641   -5.5127 
 H                     2.7966   -3.775    -6.0706 
 H                     3.3288   -0.8436   -5.3008 
 H                     3.2628   -1.466    -6.9456 
 H                     1.8124   -1.4604   -5.9551 
 

 GradGradGradGradGradGradGradGradGradGradGradGradGradGradGradGradGradGrad
 Berny optimization.
 Initialization pass.
                           ----------------------------
                           !    Initial Parameters    !
                           ! (Angstroms and Degrees)  !
 --------------------------                            --------------------------
 ! Name  Definition              Value          Derivative Info.                !
 --------------------------------------------------------------------------------
 ! R1    R(1,2)                  1.3496         estimate D2E/DX2                !
 ! R2    R(1,13)                 0.9577         estimate D2E/DX2                !
 ! R3    R(2,3)                  1.5295         estimate D2E/DX2                !
 ! R4    R(2,12)                 1.2231         estimate D2E/DX2                !
 ! R5    R(3,4)                  1.5524         estimate D2E/DX2                !
 ! R6    R(3,14)                 1.089          estimate D2E/DX2                !
 ! R7    R(3,15)                 1.0892         estimate D2E/DX2                !
 ! R8    R(4,5)                  1.5448         estimate D2E/DX2                !
 ! R9    R(4,16)                 1.0926         estimate D2E/DX2                !
 ! R10   R(4,17)                 1.0914         estimate D2E/DX2                !
 ! R11   R(5,6)                  1.5437         estimate D2E/DX2                !
 ! R12   R(5,18)                 1.0891         estimate D2E/DX2                !
 ! R13   R(5,19)                 1.0913         estimate D2E/DX2                !
 ! R14   R(6,7)                  1.5446         estimate D2E/DX2                !
 ! R15   R(6,20)                 1.0913         estimate D2E/DX2                !
 ! R16   R(6,21)                 1.0903         estimate D2E/DX2                !
 ! R17   R(7,8)                  1.5445         estimate D2E/DX2                !
 ! R18   R(7,22)                 1.0915         estimate D2E/DX2                !
 ! R19   R(7,23)                 1.0914         estimate D2E/DX2                !
 ! R20   R(8,9)                  1.5421         estimate D2E/DX2                !
 ! R21   R(8,24)                 1.0908         estimate D2E/DX2                !
 ! R22   R(8,25)                 1.0913         estimate D2E/DX2                !
 ! R23   R(9,10)                 1.5404         estimate D2E/DX2                !
 ! R24   R(9,26)                 1.0909         estimate D2E/DX2                !
 ! R25   R(9,27)                 1.0913         estimate D2E/DX2                !
 ! R26   R(10,11)                1.537          estimate D2E/DX2                !
 ! R27   R(10,28)                1.0914         estimate D2E/DX2                !
 ! R28   R(10,29)                1.0913         estimate D2E/DX2                !
 ! R29   R(11,30)                1.0906         estimate D2E/DX2                !
 ! R30   R(11,31)                1.0904         estimate D2E/DX2                !
 ! R31   R(11,32)                1.0902         estimate D2E/DX2                !
 ! A1    A(2,1,13)             103.9687         estimate D2E/DX2                !
 ! A2    A(1,2,3)              111.7857         estimate D2E/DX2                !
 ! A3    A(1,2,12)             123.0262         estimate D2E/DX2                !
 ! A4    A(3,2,12)             125.1751         estimate D2E/DX2                !
 ! A5    A(2,3,4)              115.8325         estimate D2E/DX2                !
 ! A6    A(2,3,14)             108.6631         estimate D2E/DX2                !
 ! A7    A(2,3,15)             106.2144         estimate D2E/DX2                !
 ! A8    A(4,3,14)             110.4383         estimate D2E/DX2                !
 ! A9    A(4,3,15)             109.1549         estimate D2E/DX2                !
 ! A10   A(14,3,15)            106.0207         estimate D2E/DX2                !
 ! A11   A(3,4,5)              115.7692         estimate D2E/DX2                !
 ! A12   A(3,4,16)             109.0334         estimate D2E/DX2                !
 ! A13   A(3,4,17)             108.9409         estimate D2E/DX2                !
 ! A14   A(5,4,16)             108.7294         estimate D2E/DX2                !
 ! A15   A(5,4,17)             108.7908         estimate D2E/DX2                !
 ! A16   A(16,4,17)            105.0408         estimate D2E/DX2                !
 ! A17   A(4,5,6)              114.3617         estimate D2E/DX2                !
 ! A18   A(4,5,18)             109.423          estimate D2E/DX2                !
 ! A19   A(4,5,19)             108.5186         estimate D2E/DX2                !
 ! A20   A(6,5,18)             110.7061         estimate D2E/DX2                !
 ! A21   A(6,5,19)             108.6106         estimate D2E/DX2                !
 ! A22   A(18,5,19)            104.7517         estimate D2E/DX2                !
 ! A23   A(5,6,7)              113.902          estimate D2E/DX2                !
 ! A24   A(5,6,20)             108.1547         estimate D2E/DX2                !
 ! A25   A(5,6,21)             110.899          estimate D2E/DX2                !
 ! A26   A(7,6,20)             108.951          estimate D2E/DX2                !
 ! A27   A(7,6,21)             109.1612         estimate D2E/DX2                !
 ! A28   A(20,6,21)            105.4043         estimate D2E/DX2                !
 ! A29   A(6,7,8)              115.067          estimate D2E/DX2                !
 ! A30   A(6,7,22)             110.4237         estimate D2E/DX2                !
 ! A31   A(6,7,23)             108.2473         estimate D2E/DX2                !
 ! A32   A(8,7,22)             110.0952         estimate D2E/DX2                !
 ! A33   A(8,7,23)             107.4768         estimate D2E/DX2                !
 ! A34   A(22,7,23)            104.9802         estimate D2E/DX2                !
 ! A35   A(7,8,9)              114.9886         estimate D2E/DX2                !
 ! A36   A(7,8,24)             108.9746         estimate D2E/DX2                !
 ! A37   A(7,8,25)             108.3188         estimate D2E/DX2                !
 ! A38   A(9,8,24)             109.5857         estimate D2E/DX2                !
 ! A39   A(9,8,25)             108.9038         estimate D2E/DX2                !
 ! A40   A(24,8,25)            105.6527         estimate D2E/DX2                !
 ! A41   A(8,9,10)             114.1217         estimate D2E/DX2                !
 ! A42   A(8,9,26)             109.8597         estimate D2E/DX2                !
 ! A43   A(8,9,27)             109.0921         estimate D2E/DX2                !
 ! A44   A(10,9,26)            108.8312         estimate D2E/DX2                !
 ! A45   A(10,9,27)            108.627          estimate D2E/DX2                !
 ! A46   A(26,9,27)            105.9866         estimate D2E/DX2                !
 ! A47   A(9,10,11)            113.982          estimate D2E/DX2                !
 ! A48   A(9,10,28)            108.6898         estimate D2E/DX2                !
 ! A49   A(9,10,29)            109.7942         estimate D2E/DX2                !
 ! A50   A(11,10,28)           108.6917         estimate D2E/DX2                !
 ! A51   A(11,10,29)           109.6519         estimate D2E/DX2                !
 ! A52   A(28,10,29)           105.6892         estimate D2E/DX2                !
 ! A53   A(10,11,30)           111.312          estimate D2E/DX2                !
 ! A54   A(10,11,31)           110.8858         estimate D2E/DX2                !
 ! A55   A(10,11,32)           111.6672         estimate D2E/DX2                !
 ! A56   A(30,11,31)           107.5896         estimate D2E/DX2                !
 ! A57   A(30,11,32)           107.881          estimate D2E/DX2                !
 ! A58   A(31,11,32)           107.3096         estimate D2E/DX2                !
 ! D1    D(13,1,2,3)           179.6262         estimate D2E/DX2                !
 ! D2    D(13,1,2,12)            0.8799         estimate D2E/DX2                !
 ! D3    D(1,2,3,4)            167.1346         estimate D2E/DX2                !
 ! D4    D(1,2,3,14)            42.1737         estimate D2E/DX2                !
 ! D5    D(1,2,3,15)           -71.504          estimate D2E/DX2                !
 ! D6    D(12,2,3,4)           -14.1514         estimate D2E/DX2                !
 ! D7    D(12,2,3,14)         -139.1123         estimate D2E/DX2                !
 ! D8    D(12,2,3,15)          107.21           estimate D2E/DX2                !
 ! D9    D(2,3,4,5)            -62.5017         estimate D2E/DX2                !
 ! D10   D(2,3,4,16)            60.4355         estimate D2E/DX2                !
 ! D11   D(2,3,4,17)           174.5535         estimate D2E/DX2                !
 ! D12   D(14,3,4,5)            61.542          estimate D2E/DX2                !
 ! D13   D(14,3,4,16)         -175.5208         estimate D2E/DX2                !
 ! D14   D(14,3,4,17)          -61.4028         estimate D2E/DX2                !
 ! D15   D(15,3,4,5)           177.7245         estimate D2E/DX2                !
 ! D16   D(15,3,4,16)          -59.3382         estimate D2E/DX2                !
 ! D17   D(15,3,4,17)           54.7797         estimate D2E/DX2                !
 ! D18   D(3,4,5,6)            -63.4604         estimate D2E/DX2                !
 ! D19   D(3,4,5,18)            61.3751         estimate D2E/DX2                !
 ! D20   D(3,4,5,19)           175.1315         estimate D2E/DX2                !
 ! D21   D(16,4,5,6)           173.4424         estimate D2E/DX2                !
 ! D22   D(16,4,5,18)          -61.7221         estimate D2E/DX2                !
 ! D23   D(16,4,5,19)           52.0343         estimate D2E/DX2                !
 ! D24   D(17,4,5,6)            59.5634         estimate D2E/DX2                !
 ! D25   D(17,4,5,18)         -175.6011         estimate D2E/DX2                !
 ! D26   D(17,4,5,19)          -61.8447         estimate D2E/DX2                !
 ! D27   D(4,5,6,7)            175.9262         estimate D2E/DX2                !
 ! D28   D(4,5,6,20)           -62.7981         estimate D2E/DX2                !
 ! D29   D(4,5,6,21)            52.3171         estimate D2E/DX2                !
 ! D30   D(18,5,6,7)            51.7728         estimate D2E/DX2                !
 ! D31   D(18,5,6,20)          173.0484         estimate D2E/DX2                !
 ! D32   D(18,5,6,21)          -71.8363         estimate D2E/DX2                !
 ! D33   D(19,5,6,7)           -62.7163         estimate D2E/DX2                !
 ! D34   D(19,5,6,20)           58.5593         estimate D2E/DX2                !
 ! D35   D(19,5,6,21)          173.6746         estimate D2E/DX2                !
 ! D36   D(5,6,7,8)            -94.1941         estimate D2E/DX2                !
 ! D37   D(5,6,7,22)            31.1805         estimate D2E/DX2                !
 ! D38   D(5,6,7,23)           145.5865         estimate D2E/DX2                !
 ! D39   D(20,6,7,8)           144.9741         estimate D2E/DX2                !
 ! D40   D(20,6,7,22)          -89.6513         estimate D2E/DX2                !
 ! D41   D(20,6,7,23)           24.7547         estimate D2E/DX2                !
 ! D42   D(21,6,7,8)            30.3517         estimate D2E/DX2                !
 ! D43   D(21,6,7,22)          155.7263         estimate D2E/DX2                !
 ! D44   D(21,6,7,23)          -89.8678         estimate D2E/DX2                !
 ! D45   D(6,7,8,9)             62.3044         estimate D2E/DX2                !
 ! D46   D(6,7,8,24)           -61.1543         estimate D2E/DX2                !
 ! D47   D(6,7,8,25)          -175.6343         estimate D2E/DX2                !
 ! D48   D(22,7,8,9)           -63.2405         estimate D2E/DX2                !
 ! D49   D(22,7,8,24)          173.3009         estimate D2E/DX2                !
 ! D50   D(22,7,8,25)           58.8209         estimate D2E/DX2                !
 ! D51   D(23,7,8,9)          -177.0535         estimate D2E/DX2                !
 ! D52   D(23,7,8,24)           59.4879         estimate D2E/DX2                !
 ! D53   D(23,7,8,25)          -54.9921         estimate D2E/DX2                !
 ! D54   D(7,8,9,10)           172.0684         estimate D2E/DX2                !
 ! D55   D(7,8,9,26)           -65.4001         estimate D2E/DX2                !
 ! D56   D(7,8,9,27)            50.3784         estimate D2E/DX2                !
 ! D57   D(24,8,9,10)          -64.7985         estimate D2E/DX2                !
 ! D58   D(24,8,9,26)           57.733          estimate D2E/DX2                !
 ! D59   D(24,8,9,27)          173.5116         estimate D2E/DX2                !
 ! D60   D(25,8,9,10)           50.3235         estimate D2E/DX2                !
 ! D61   D(25,8,9,26)          172.855          estimate D2E/DX2                !
 ! D62   D(25,8,9,27)          -71.3665         estimate D2E/DX2                !
 ! D63   D(8,9,10,11)           65.6553         estimate D2E/DX2                !
 ! D64   D(8,9,10,28)         -172.961          estimate D2E/DX2                !
 ! D65   D(8,9,10,29)          -57.8009         estimate D2E/DX2                !
 ! D66   D(26,9,10,11)         -57.4362         estimate D2E/DX2                !
 ! D67   D(26,9,10,28)          63.9475         estimate D2E/DX2                !
 ! D68   D(26,9,10,29)         179.1076         estimate D2E/DX2                !
 ! D69   D(27,9,10,11)        -172.3986         estimate D2E/DX2                !
 ! D70   D(27,9,10,28)         -51.0149         estimate D2E/DX2                !
 ! D71   D(27,9,10,29)          64.1452         estimate D2E/DX2                !
 ! D72   D(9,10,11,30)          56.3948         estimate D2E/DX2                !
 ! D73   D(9,10,11,31)         176.1341         estimate D2E/DX2                !
 ! D74   D(9,10,11,32)         -64.2443         estimate D2E/DX2                !
 ! D75   D(28,10,11,30)        -64.9879         estimate D2E/DX2                !
 ! D76   D(28,10,11,31)         54.7515         estimate D2E/DX2                !
 ! D77   D(28,10,11,32)        174.3731         estimate D2E/DX2                !
 ! D78   D(29,10,11,30)        179.9281         estimate D2E/DX2                !
 ! D79   D(29,10,11,31)        -60.3325         estimate D2E/DX2                !
 ! D80   D(29,10,11,32)         59.289          estimate D2E/DX2                !
 --------------------------------------------------------------------------------
 Trust Radius=3.00D-01 FncErr=1.00D-07 GrdErr=1.00D-06 EigMax=2.50D+02 EigMin=1.00D-04
 Number of steps in this run=    179 maximum allowed number of steps=    192.
 GradGradGradGradGradGradGradGradGradGradGradGradGradGradGradGradGradGrad

                          Input orientation:                          
 ---------------------------------------------------------------------
 Center     Atomic      Atomic             Coordinates (Angstroms)
 Number     Number       Type             X           Y           Z
 ---------------------------------------------------------------------
      1          8           0        4.903200    0.315000   -1.495900
      2          6           0        4.791900   -0.903300   -0.925900
      3          6           0        3.655700   -0.949800    0.096900
      4          6           0        3.238700   -2.364700    0.580900
      5          6           0        2.682300   -3.309800   -0.507100
      6          6           0        1.368000   -2.827900   -1.157700
      7          6           0        0.873900   -3.728300   -2.311400
      8          6           0        1.314600   -3.283600   -3.723300
      9          6           0        2.838500   -3.281200   -3.959500
     10          6           0        3.248500   -3.022900   -5.421700
     11          6           0        2.890900   -1.617800   -5.931900
     12          8           0        5.537600   -1.835100   -1.193500
     13          1           0        5.639000    0.220500   -2.101600
     14          1           0        2.797000   -0.419300   -0.311800
     15          1           0        3.991800   -0.364300    0.951700
     16          1           0        4.096200   -2.845200    1.057900
     17          1           0        2.494300   -2.263200    1.372600
     18          1           0        3.446600   -3.480500   -1.263900
     19          1           0        2.510400   -4.290200   -0.059700
     20          1           0        0.599500   -2.789800   -0.383800
     21          1           0        1.465700   -1.804000   -1.519500
     22          1           0        1.165600   -4.765500   -2.136800
     23          1           0       -0.217400   -3.735700   -2.295800
     24          1           0        0.911900   -2.289900   -3.924000
     25          1           0        0.844700   -3.944700   -4.453400
     26          1           0        3.310900   -2.531200   -3.323600
     27          1           0        3.249700   -4.242500   -3.646800
     28          1           0        4.326900   -3.164100   -5.512700
     29          1           0        2.796600   -3.775000   -6.070600
     30          1           0        3.328800   -0.843600   -5.300800
     31          1           0        3.262800   -1.466000   -6.945600
     32          1           0        1.812400   -1.460400   -5.955100
 ---------------------------------------------------------------------
                    Distance matrix (angstroms):
                    1          2          3          4          5
     1  O    0.000000
     2  C    1.349645   0.000000
     3  C    2.385998   1.529455   0.000000
     4  C    3.776831   2.611238   1.552445   0.000000
     5  C    4.364550   3.227545   2.623342   1.544843   0.000000
     6  C    4.742345   3.934578   3.214786   2.595535   1.543662
     7  C    5.766158   5.025033   4.610681   3.977070   2.588620
     8  C    5.548809   5.057953   5.051861   4.803403   3.495030
     9  C    4.823377   4.321216   4.749487   4.649233   3.456050
    10  C    5.412164   5.204518   5.909188   6.038587   4.955420
    11  C    5.240531   5.402254   6.113720   6.564708   5.686373
    12  O    2.262043   1.223082   2.447537   2.951934   3.286126
    13  H    0.957708   1.833787   3.183784   4.431761   4.873143
    14  H    2.525345   2.142662   1.088959   2.185542   2.899360
    15  H    2.698675   2.110939   1.089246   2.169390   3.538200
    16  H    4.142464   2.861894   2.170277   1.092573   2.159674
    17  H    4.547330   3.522981   2.168244   1.091431   2.159627
    18  H    4.072018   2.926779   2.880962   2.165991   1.089054
    19  H    5.384796   4.174522   3.534757   2.156001   1.091284
    20  H    5.422028   4.629144   3.599588   2.841959   2.150269
    21  H    4.038208   3.496745   2.852807   2.805280   2.184606
    22  H    6.339707   5.434420   5.074404   4.177018   2.659956
    23  H    6.577884   5.915421   5.337336   4.701029   3.433526
    24  H    5.348986   5.095651   5.048955   5.070869   3.981170
    25  H    6.585080   6.105224   6.129957   5.794119   4.399222
    26  H    3.738551   3.254594   3.784116   3.908715   2.988984
    27  H    5.303889   4.575143   5.002199   4.625981   3.324092
    28  H    5.345179   5.134800   6.068051   6.241409   5.270860
    29  H    6.487969   6.220597   6.837972   6.813725   5.584085
    30  H    4.277657   4.613456   5.408633   6.075875   5.429518
    31  H    5.963397   6.236310   7.072315   7.580003   6.722415
    32  H    5.708726   5.872021   6.347060   6.750658   5.818738
                    6          7          8          9         10
     6  C    0.000000
     7  C    1.544629   0.000000
     8  C    2.606303   1.544486   0.000000
     9  C    3.196550   2.603034   1.542098   0.000000
    10  C    4.664333   3.976214   2.586986   1.540405   0.000000
    11  C    5.155245   4.650862   3.183948   2.580699   1.537039
    12  O    4.286315   5.155968   5.131449   4.126391   4.952628
    13  H    5.331522   6.192190   5.797332   4.853503   5.220843
    14  H    2.925567   4.318124   4.694684   4.636584   5.752709
    15  H    4.171717   5.628998   6.127425   5.827374   6.945565
    16  H    3.514578   4.745025   5.548817   5.190974   6.537231
    17  H    2.826633   4.282998   5.329269   5.439310   6.878116
    18  H    2.181225   2.788807   3.260804   2.770517   4.187594
    19  H    2.156155   2.839721   3.983108   4.041555   5.558946
    20  H    1.091313   2.161416   3.450720   4.247379   5.696663
    21  H    1.090328   2.163392   2.658718   3.165486   4.459962
    22  H    2.180343   1.091493   2.176054   2.885130   4.262123
    23  H    2.152409   1.091437   2.142236   3.508987   4.721419
    24  H    2.854801   2.161231   1.090820   2.166962   2.870556
    25  H    3.518909   2.153101   1.091286   2.158566   2.750559
    26  H    2.924725   2.897683   2.170502   1.090885   2.155849
    27  H    3.426005   2.773467   2.161008   1.091313   2.153531
    28  H    5.275807   4.742347   3.505736   2.154409   1.091405
    29  H    5.203315   4.222623   2.819152   2.168487   1.091302
    30  H    4.994743   4.825406   3.535408   2.825132   2.184128
    31  H    6.240579   5.683366   4.181192   3.520195   2.178626
    32  H    5.008253   4.393256   2.924516   2.889743   2.188220
                   11         12         13         14         15
    11  C    0.000000
    12  O    5.431821   0.000000
    13  H    5.059901   2.249537   0.000000
    14  H    5.747238   3.208235   3.419019   0.000000
    15  H    7.082880   3.025662   3.518224   1.739829   0.000000
    16  H    7.198372   2.857751   4.664889   3.073921   2.485366
    17  H    7.343674   4.003725   5.303581   2.515710   2.454686
    18  H    5.056548   2.661687   4.382438   3.270997   3.862231
    19  H    6.462912   4.059182   5.856954   3.889674   4.316268
    20  H    6.116005   5.094301   6.116315   3.233181   4.378848
    21  H    4.640597   4.085047   4.674813   2.268985   3.815855
    22  H    5.223740   5.347097   6.698712   4.988140   6.074274
    23  H    5.231468   6.160144   7.070124   4.901160   6.295233
    24  H    2.898245   5.390693   5.654089   4.483384   6.079981
    25  H    3.433273   6.091032   6.772383   5.778648   7.206845
    26  H    2.795340   3.159126   3.805941   3.714183   4.841205
    27  H    3.498495   4.129012   5.292898   5.093527   6.061134
    28  H    2.151480   4.678410   4.981237   6.076502   7.052634
    29  H    2.163710   5.921351   6.308424   6.665171   7.897726
    30  H    1.090610   4.767786   4.087079   5.035173   6.305795
    31  H    1.090386   6.196580   5.652870   6.732002   8.007030
    32  H    1.090172   6.057256   5.684871   5.822384   7.324965
                   16         17         18         19         20
    16  H    0.000000
    17  H    1.733160   0.000000
    18  H    2.493259   3.056113   0.000000
    19  H    2.419053   2.482030   1.726900   0.000000
    20  H    3.782655   2.636762   3.059023   2.451077   0.000000
    21  H    3.827090   3.103728   2.607671   3.066530   1.735488
    22  H    4.741527   4.510303   2.759736   2.519671   2.701272
    23  H    5.536013   4.793614   3.815081   3.570505   2.284250
    24  H    5.938641   5.527990   3.862430   4.635646   3.588943
    25  H    6.492733   6.284178   4.142255   4.711531   4.237400
    26  H    4.462380   4.774197   2.271992   3.793142   4.007616
    27  H    4.980282   5.448177   2.509507   3.662803   4.447591
    28  H    6.582378   7.181741   4.350556   5.856875   6.351317
    29  H    7.305409   7.601194   4.859382   6.039724   6.175562
    30  H    6.710318   6.873567   4.823244   6.325975   5.950938
    31  H    8.164114   8.391577   6.031062   7.480497   7.204362
    32  H    7.504371   7.403017   5.362720   6.576527   5.854726
                   21         22         23         24         25
    21  H    0.000000
    22  H    3.040000   0.000000
    23  H    2.677113   1.731606   0.000000
    24  H    2.514839   3.063828   2.452894   0.000000
    25  H    3.684563   2.478573   2.413913   1.738719   0.000000
    26  H    2.681112   3.317062   3.867311   2.484735   3.058852
    27  H    3.695178   2.626233   3.755373   3.058561   2.554078
    28  H    5.097253   4.894385   5.596949   3.866577   3.722522
    29  H    5.135041   4.372189   4.830616   3.219551   2.540482
    30  H    4.323394   5.483761   5.474468   3.135087   4.062716
    31  H    5.725939   6.197540   6.235701   3.916071   4.266406
    32  H    4.462377   5.091311   4.763145   2.371569   3.059950
                   26         27         28         29         30
    26  H    0.000000
    27  H    1.742628   0.000000
    28  H    2.494990   2.409334   0.000000
    29  H    3.059012   2.509714   1.739618   0.000000
    30  H    2.599545   3.780806   2.534921   3.077163   0.000000
    31  H    3.775692   4.311752   2.463545   2.512857   1.759859
    32  H    3.211994   3.890265   3.069368   2.517809   1.762958
                   31         32
    31  H    0.000000
    32  H    1.756355   0.000000
 Stoichiometry    C10H20O2
 Framework group  C1[X(C10H20O2)]
 Deg. of freedom    90
 Full point group                 C1      NOp   1
 Largest Abelian subgroup         C1      NOp   1
 Largest concise Abelian subgroup C1      NOp   1
                         Standard orientation:                         
 ---------------------------------------------------------------------
 Center     Atomic      Atomic             Coordinates (Angstroms)
 Number     Number       Type             X           Y           Z
 ---------------------------------------------------------------------
      1          8           0        2.034472   -2.335652   -0.830657
      2          6           0        2.139664   -1.319734    0.051606
      3          6           0        2.633344   -0.035916   -0.617218
      4          6           0        2.496152    1.261268    0.224553
      5          6           0        1.053974    1.670224    0.597936
      6          6           0        0.156419    2.013387   -0.610173
      7          6           0       -1.308858    2.324120   -0.232964
      8          6           0       -2.274794    1.121769   -0.315153
      9          6           0       -1.946784   -0.043831    0.639757
     10          6           0       -3.023494   -1.144608    0.682585
     11          6           0       -3.185395   -1.911913   -0.639352
     12          8           0        1.888396   -1.442192    1.242319
     13          1           0        1.728082   -3.071776   -0.300138
     14          1           0        2.125446    0.076115   -1.573942
     15          1           0        3.684210   -0.200061   -0.852149
     16          1           0        3.079086    1.153767    1.142347
     17          1           0        2.966680    2.085125   -0.314972
     18          1           0        0.600901    0.887073    1.204102
     19          1           0        1.099589    2.539586    1.255986
     20          1           0        0.583843    2.880933   -1.115779
     21          1           0        0.173544    1.210692   -1.347874
     22          1           0       -1.358881    2.778277    0.758296
     23          1           0       -1.681726    3.091271   -0.913907
     24          1           0       -2.299957    0.756621   -1.342734
     25          1           0       -3.284557    1.477985   -0.104453
     26          1           0       -0.993371   -0.494513    0.360617
     27          1           0       -1.809604    0.349024    1.648623
     28          1           0       -2.766190   -1.855056    1.470128
     29          1           0       -3.981846   -0.712946    0.976131
     30          1           0       -2.241217   -2.354345   -0.959057
     31          1           0       -3.909052   -2.720625   -0.533298
     32          1           0       -3.539289   -1.262983   -1.440678
 ---------------------------------------------------------------------
 Rotational constants (GHZ):           0.9311994           0.5471195           0.3930649
 Standard basis: 6-31G(d,p) (6D, 7F)
 There are   280 symmetry adapted cartesian basis functions of A   symmetry.
 There are   280 symmetry adapted basis functions of A   symmetry.
   280 basis functions,   476 primitive gaussians,   280 cartesian basis functions
    48 alpha electrons       48 beta electrons
       nuclear repulsion energy       742.2753805277 Hartrees.
 NAtoms=   32 NActive=   32 NUniq=   32 SFac= 1.00D+00 NAtFMM=   60 NAOKFM=F Big=F
 Integral buffers will be    131072 words long.
 Raffenetti 2 integral format.
 Two-electron integral symmetry is turned on.
 Nuclear repulsion after empirical dispersion term =      742.2258159310 Hartrees.
 One-electron integrals computed using PRISM.
 NBasis=   280 RedAO= T EigKep=  3.39D-03  NBF=   280
 NBsUse=   280 1.00D-06 EigRej= -1.00D+00 NBFU=   280
 ExpMin= 1.61D-01 ExpMax= 5.48D+03 ExpMxC= 8.25D+02 IAcc=3 IRadAn=         5 AccDes= 0.00D+00
 Harris functional with IExCor=  402 and IRadAn=       5 diagonalized for initial guess.
 HarFok:  IExCor=  402 AccDes= 0.00D+00 IRadAn=         5 IDoV= 1 UseB2=F ITyADJ=14
 ICtDFT=  3500011 ScaDFX=  1.000000  1.000000  1.000000  1.000000
 FoFCou: FMM=F IPFlag=           0 FMFlag=      100000 FMFlg1=           0
         NFxFlg=           0 DoJE=T BraDBF=F KetDBF=T FulRan=T
         wScrn=  0.000000 ICntrl=       500 IOpCl=  0 I1Cent=   200000004 NGrid=           0
         NMat0=    1 NMatS0=      1 NMatT0=    0 NMatD0=    1 NMtDS0=    0 NMtDT0=    0
 Petite list used in FoFCou.
 Requested convergence on RMS density matrix=1.00D-08 within 128 cycles.
 Requested convergence on MAX density matrix=1.00D-06.
 Requested convergence on             energy=1.00D-06.
 No special actions if energy rises.
 Integral accuracy reduced to 1.0D-05 until final iterations.
 Initial convergence to 1.0D-05 achieved.  Increase integral accuracy.
 SCF Done:  E(RB3LYP) =  -543.663663420     A.U. after   13 cycles
            NFock= 13  Conv=0.87D-08     -V/T= 2.0096

 **********************************************************************

            Population analysis using the SCF Density.

 **********************************************************************

 Orbital symmetries:
       Occupied  (A) (A) (A) (A) (A) (A) (A) (A) (A) (A) (A) (A)
                 (A) (A) (A) (A) (A) (A) (A) (A) (A) (A) (A) (A)
                 (A) (A) (A) (A) (A) (A) (A) (A) (A) (A) (A) (A)
                 (A) (A) (A) (A) (A) (A) (A) (A) (A) (A) (A) (A)
       Virtual   (A) (A) (A) (A) (A) (A) (A) (A) (A) (A) (A) (A)
                 (A) (A) (A) (A) (A) (A) (A) (A) (A) (A) (A) (A)
                 (A) (A) (A) (A) (A) (A) (A) (A) (A) (A) (A) (A)
                 (A) (A) (A) (A) (A) (A) (A) (A) (A) (A) (A) (A)
                 (A) (A) (A) (A) (A) (A) (A) (A) (A) (A) (A) (A)
                 (A) (A) (A) (A) (A) (A) (A) (A) (A) (A) (A) (A)
                 (A) (A) (A) (A) (A) (A) (A) (A) (A) (A) (A) (A)
                 (A) (A) (A) (A) (A) (A) (A) (A) (A) (A) (A) (A)
                 (A) (A) (A) (A) (A) (A) (A) (A) (A) (A) (A) (A)
                 (A) (A) (A) (A) (A) (A) (A) (A) (A) (A) (A) (A)
                 (A) (A) (A) (A) (A) (A) (A) (A) (A) (A) (A) (A)
                 (A) (A) (A) (A) (A) (A) (A) (A) (A) (A) (A) (A)
                 (A) (A) (A) (A) (A) (A) (A) (A) (A) (A) (A) (A)
                 (A) (A) (A) (A) (A) (A) (A) (A) (A) (A) (A) (A)
                 (A) (A) (A) (A) (A) (A) (A) (A) (A) (A) (A) (A)
                 (A) (A) (A) (A) (A) (A) (A) (A) (A) (A) (A) (A)
                 (A) (A) (A) (A) (A) (A) (A) (A) (A) (A) (A) (A)
                 (A) (A) (A) (A) (A) (A) (A) (A) (A) (A) (A) (A)
                 (A) (A) (A) (A) (A) (A) (A) (A) (A) (A) (A) (A)
                 (A) (A) (A) (A)
 The electronic state is 1-A.
 Alpha  occ. eigenvalues --  -19.20036 -19.14014 -10.32337 -10.20139 -10.18555
 Alpha  occ. eigenvalues --  -10.17456 -10.17372 -10.17349 -10.17238 -10.17216
 Alpha  occ. eigenvalues --  -10.16985 -10.16790  -1.10992  -1.01284  -0.80842
 Alpha  occ. eigenvalues --   -0.79103  -0.76291  -0.72499  -0.68672  -0.65017
 Alpha  occ. eigenvalues --   -0.61454  -0.58668  -0.56010  -0.55507  -0.49255
 Alpha  occ. eigenvalues --   -0.48085  -0.47788  -0.46080  -0.45014  -0.43614
 Alpha  occ. eigenvalues --   -0.42366  -0.42036  -0.41223  -0.39481  -0.38627
 Alpha  occ. eigenvalues --   -0.37611  -0.37481  -0.35564  -0.35157  -0.34406
 Alpha  occ. eigenvalues --   -0.33237  -0.32461  -0.31983  -0.31799  -0.31134
 Alpha  occ. eigenvalues --   -0.29919  -0.29648  -0.27316
 Alpha virt. eigenvalues --    0.00729   0.07462   0.08822   0.09833   0.11113
 Alpha virt. eigenvalues --    0.11593   0.13075   0.14040   0.14456   0.15514
 Alpha virt. eigenvalues --    0.16109   0.16870   0.17399   0.17755   0.18037
 Alpha virt. eigenvalues --    0.18758   0.19308   0.20305   0.20539   0.21424
 Alpha virt. eigenvalues --    0.22416   0.22972   0.23977   0.24551   0.25600
 Alpha virt. eigenvalues --    0.26454   0.26843   0.28125   0.28212   0.30799
 Alpha virt. eigenvalues --    0.31059   0.37424   0.49491   0.50088   0.50752
 Alpha virt. eigenvalues --    0.51991   0.52912   0.53484   0.53828   0.55460
 Alpha virt. eigenvalues --    0.56823   0.58096   0.59312   0.61388   0.63091
 Alpha virt. eigenvalues --    0.64236   0.64838   0.65197   0.66448   0.68055
 Alpha virt. eigenvalues --    0.68429   0.68790   0.69265   0.72158   0.73203
 Alpha virt. eigenvalues --    0.75513   0.77065   0.80275   0.81192   0.82169
 Alpha virt. eigenvalues --    0.82660   0.84003   0.84858   0.85544   0.86596
 Alpha virt. eigenvalues --    0.87486   0.87660   0.88516   0.89264   0.90051
 Alpha virt. eigenvalues --    0.90626   0.91946   0.92507   0.92962   0.94058
 Alpha virt. eigenvalues --    0.94810   0.95210   0.96498   0.96817   0.98525
 Alpha virt. eigenvalues --    0.99091   1.00402   1.00865   1.02928   1.05499
 Alpha virt. eigenvalues --    1.06829   1.09480   1.12555   1.13017   1.17476
 Alpha virt. eigenvalues --    1.19982   1.28046   1.30416   1.32087   1.34213
 Alpha virt. eigenvalues --    1.37017   1.37832   1.39355   1.45531   1.49333
 Alpha virt. eigenvalues --    1.52485   1.53645   1.55375   1.56292   1.57730
 Alpha virt. eigenvalues --    1.59430   1.61421   1.62831   1.65871   1.68598
 Alpha virt. eigenvalues --    1.68989   1.70518   1.72465   1.73120   1.74342
 Alpha virt. eigenvalues --    1.75930   1.77839   1.79926   1.81636   1.83367
 Alpha virt. eigenvalues --    1.85501   1.86149   1.87474   1.89169   1.89478
 Alpha virt. eigenvalues --    1.90390   1.91353   1.91897   1.94549   1.96810
 Alpha virt. eigenvalues --    1.97968   2.00149   2.03753   2.04442   2.06052
 Alpha virt. eigenvalues --    2.09152   2.12086   2.12828   2.13837   2.14938
 Alpha virt. eigenvalues --    2.15645   2.17131   2.18350   2.19539   2.21609
 Alpha virt. eigenvalues --    2.23159   2.23509   2.25135   2.25829   2.26996
 Alpha virt. eigenvalues --    2.27547   2.28080   2.29445   2.31757   2.32779
 Alpha virt. eigenvalues --    2.34000   2.34834   2.37687   2.37854   2.40052
 Alpha virt. eigenvalues --    2.42092   2.44625   2.46175   2.48353   2.51887
 Alpha virt. eigenvalues --    2.53756   2.54461   2.55707   2.56013   2.58219
 Alpha virt. eigenvalues --    2.60175   2.61373   2.62634   2.65177   2.66478
 Alpha virt. eigenvalues --    2.69489   2.71651   2.71864   2.72762   2.74593
 Alpha virt. eigenvalues --    2.75370   2.76845   2.78845   2.81038   2.82554
 Alpha virt. eigenvalues --    2.83007   2.85066   2.86802   2.88364   2.89019
 Alpha virt. eigenvalues --    2.91017   2.91566   2.92233   2.92890   2.93141
 Alpha virt. eigenvalues --    2.93429   2.94491   2.97955   3.01166   3.14803
 Alpha virt. eigenvalues --    3.20379   3.25983   3.29767   3.31445   3.31747
 Alpha virt. eigenvalues --    3.33877   3.35031   3.36046   3.39141   3.40749
 Alpha virt. eigenvalues --    3.42241   3.44665   3.45637   3.47723   3.49292
 Alpha virt. eigenvalues --    3.53448   3.55014   3.57168   3.59948   3.62348
 Alpha virt. eigenvalues --    3.94165   4.14591   4.25485   4.28178   4.34554
 Alpha virt. eigenvalues --    4.43826   4.54649   4.59770   4.64269   4.65608
 Alpha virt. eigenvalues --    4.72904   4.76005
          Condensed to atoms (all electrons):
               1          2          3          4          5          6
     1  O    8.111313   0.259020  -0.093992   0.002601  -0.000064   0.000006
     2  C    0.259020   4.382154   0.324104  -0.033441  -0.002787  -0.000761
     3  C   -0.093992   0.324104   5.140302   0.345173  -0.039027  -0.004932
     4  C    0.002601  -0.033441   0.345173   4.914800   0.367100  -0.042430
     5  C   -0.000064  -0.002787  -0.039027   0.367100   4.919207   0.379617
     6  C    0.000006  -0.000761  -0.004932  -0.042430   0.379617   4.915453
     7  C    0.000000   0.000006   0.000102   0.003838  -0.032886   0.364238
     8  C   -0.000001   0.000018  -0.000015   0.000003  -0.001895  -0.037933
     9  C    0.000000  -0.000379   0.000007  -0.000056  -0.000489  -0.002674
    10  C    0.000001  -0.000000   0.000001  -0.000001   0.000126  -0.000010
    11  C   -0.000006  -0.000003  -0.000000   0.000000  -0.000001  -0.000019
    12  O   -0.080413   0.555397  -0.083621   0.005396  -0.005171   0.000031
    13  H    0.267918  -0.009806   0.011284  -0.000319   0.000017  -0.000001
    14  H    0.003406  -0.026773   0.364746  -0.036374  -0.005025   0.002855
    15  H    0.001667  -0.026410   0.366987  -0.026763   0.003750   0.000130
    16  H    0.000077  -0.006000  -0.035819   0.376825  -0.027369   0.004427
    17  H   -0.000047   0.004765  -0.031635   0.373218  -0.040120  -0.005950
    18  H   -0.000011   0.004168  -0.009615  -0.033866   0.387055  -0.043359
    19  H   -0.000000   0.000015   0.004854  -0.031211   0.374754  -0.037400
    20  H   -0.000000   0.000033  -0.000501  -0.002655  -0.039687   0.376891
    21  H   -0.000041   0.000403   0.001722  -0.005233  -0.041734   0.384523
    22  H   -0.000000  -0.000000   0.000001   0.000261  -0.008054  -0.044967
    23  H   -0.000000  -0.000000   0.000002  -0.000191   0.003967  -0.033113
    24  H    0.000000  -0.000001  -0.000007   0.000013  -0.000087  -0.008011
    25  H   -0.000000  -0.000000   0.000000   0.000002  -0.000117   0.005017
    26  H   -0.000169   0.002571   0.000179  -0.000052  -0.002750   0.004479
    27  H    0.000000  -0.000012   0.000003   0.000019  -0.000307  -0.001526
    28  H   -0.000000   0.000001   0.000000  -0.000000   0.000003   0.000006
    29  H   -0.000000   0.000000  -0.000000   0.000000  -0.000004   0.000007
    30  H    0.000045   0.000024  -0.000000  -0.000000  -0.000001  -0.000002
    31  H    0.000000  -0.000000   0.000000  -0.000000   0.000000   0.000000
    32  H   -0.000000  -0.000000   0.000000  -0.000000   0.000000   0.000008
               7          8          9         10         11         12
     1  O    0.000000  -0.000001   0.000000   0.000001  -0.000006  -0.080413
     2  C    0.000006   0.000018  -0.000379  -0.000000  -0.000003   0.555397
     3  C    0.000102  -0.000015   0.000007   0.000001  -0.000000  -0.083621
     4  C    0.003838   0.000003  -0.000056  -0.000001   0.000000   0.005396
     5  C   -0.032886  -0.001895  -0.000489   0.000126  -0.000001  -0.005171
     6  C    0.364238  -0.037933  -0.002674  -0.000010  -0.000019   0.000031
     7  C    4.915310   0.378623  -0.041357   0.003923   0.000133  -0.000001
     8  C    0.378623   4.893788   0.378820  -0.038440  -0.004728   0.000011
     9  C   -0.041357   0.378820   4.903586   0.375539  -0.045240  -0.000590
    10  C    0.003923  -0.038440   0.375539   4.879880   0.374427  -0.000007
    11  C    0.000133  -0.004728  -0.045240   0.374427   4.916821   0.000001
    12  O   -0.000001   0.000011  -0.000590  -0.000007   0.000001   8.055251
    13  H    0.000000   0.000000  -0.000010   0.000001   0.000001   0.011466
    14  H   -0.000152  -0.000017   0.000059  -0.000000   0.000000   0.002161
    15  H   -0.000001   0.000000  -0.000001  -0.000000   0.000000   0.000214
    16  H   -0.000136   0.000000   0.000005   0.000000   0.000000   0.004269
    17  H    0.000037  -0.000002  -0.000002   0.000000  -0.000000   0.000208
    18  H   -0.001806  -0.000108   0.001552   0.000005   0.000004   0.008049
    19  H   -0.004915   0.000017  -0.000036  -0.000005   0.000000   0.000066
    20  H   -0.031867   0.003880   0.000082   0.000001  -0.000000  -0.000003
    21  H   -0.042987  -0.007387  -0.000945  -0.000103   0.000004   0.000027
    22  H    0.383670  -0.036281  -0.006846  -0.000016   0.000002  -0.000000
    23  H    0.370618  -0.033082   0.004979  -0.000148   0.000004   0.000000
    24  H   -0.036570   0.382086  -0.040050  -0.004174   0.002752  -0.000000
    25  H   -0.034423   0.377832  -0.042351  -0.004921  -0.000809  -0.000000
    26  H   -0.004438  -0.038013   0.380059  -0.037843  -0.007356   0.002340
    27  H   -0.003397  -0.041848   0.382001  -0.033892   0.005068  -0.000025
    28  H   -0.000155   0.004651  -0.032915   0.382148  -0.039613   0.000005
    29  H   -0.000001  -0.007701  -0.037785   0.383587  -0.039680  -0.000000
    30  H   -0.000020  -0.000774  -0.004557  -0.036238   0.385704  -0.000004
    31  H   -0.000001   0.000121   0.004331  -0.028131   0.380962   0.000000
    32  H   -0.000104   0.002822  -0.004979  -0.034914   0.388537  -0.000000
              13         14         15         16         17         18
     1  O    0.267918   0.003406   0.001667   0.000077  -0.000047  -0.000011
     2  C   -0.009806  -0.026773  -0.026410  -0.006000   0.004765   0.004168
     3  C    0.011284   0.364746   0.366987  -0.035819  -0.031635  -0.009615
     4  C   -0.000319  -0.036374  -0.026763   0.376825   0.373218  -0.033866
     5  C    0.000017  -0.005025   0.003750  -0.027369  -0.040120   0.387055
     6  C   -0.000001   0.002855   0.000130   0.004427  -0.005950  -0.043359
     7  C    0.000000  -0.000152  -0.000001  -0.000136   0.000037  -0.001806
     8  C    0.000000  -0.000017   0.000000   0.000000  -0.000002  -0.000108
     9  C   -0.000010   0.000059  -0.000001   0.000005  -0.000002   0.001552
    10  C    0.000001  -0.000000  -0.000000   0.000000   0.000000   0.000005
    11  C    0.000001   0.000000   0.000000   0.000000  -0.000000   0.000004
    12  O    0.011466   0.002161   0.000214   0.004269   0.000208   0.008049
    13  H    0.401160  -0.000423  -0.000377  -0.000006   0.000004   0.000002
    14  H   -0.000423   0.586219  -0.027722   0.005281  -0.002938  -0.000096
    15  H   -0.000377  -0.027722   0.578364  -0.002975  -0.003191   0.000066
    16  H   -0.000006   0.005281  -0.002975   0.618893  -0.038725  -0.003429
    17  H    0.000004  -0.002938  -0.003191  -0.038725   0.646733   0.005761
    18  H    0.000002  -0.000096   0.000066  -0.003429   0.005761   0.591575
    19  H   -0.000000  -0.000014  -0.000137  -0.003977  -0.003806  -0.036572
    20  H    0.000000   0.000207  -0.000035  -0.000051   0.004925   0.005788
    21  H   -0.000001   0.003213  -0.000074   0.000033  -0.000312  -0.003888
    22  H   -0.000000   0.000001   0.000000  -0.000009   0.000006   0.000509
    23  H    0.000000   0.000006  -0.000000   0.000003  -0.000002   0.000005
    24  H   -0.000000  -0.000001   0.000000  -0.000000   0.000000   0.000111
    25  H    0.000000  -0.000000   0.000000  -0.000000  -0.000000  -0.000080
    26  H    0.000082  -0.000117   0.000009  -0.000013  -0.000002   0.001336
    27  H   -0.000000  -0.000000  -0.000000  -0.000001  -0.000000   0.002290
    28  H    0.000000  -0.000000   0.000000  -0.000000  -0.000000  -0.000008
    29  H    0.000000   0.000000   0.000000  -0.000000  -0.000000   0.000002
    30  H    0.000031   0.000001  -0.000000   0.000000  -0.000000  -0.000004
    31  H   -0.000000  -0.000000   0.000000   0.000000   0.000000  -0.000000
    32  H   -0.000000  -0.000000   0.000000  -0.000000  -0.000000  -0.000000
              19         20         21         22         23         24
     1  O   -0.000000  -0.000000  -0.000041  -0.000000  -0.000000   0.000000
     2  C    0.000015   0.000033   0.000403  -0.000000  -0.000000  -0.000001
     3  C    0.004854  -0.000501   0.001722   0.000001   0.000002  -0.000007
     4  C   -0.031211  -0.002655  -0.005233   0.000261  -0.000191   0.000013
     5  C    0.374754  -0.039687  -0.041734  -0.008054   0.003967  -0.000087
     6  C   -0.037400   0.376891   0.384523  -0.044967  -0.033113  -0.008011
     7  C   -0.004915  -0.031867  -0.042987   0.383670   0.370618  -0.036570
     8  C    0.000017   0.003880  -0.007387  -0.036281  -0.033082   0.382086
     9  C   -0.000036   0.000082  -0.000945  -0.006846   0.004979  -0.040050
    10  C   -0.000005   0.000001  -0.000103  -0.000016  -0.000148  -0.004174
    11  C    0.000000  -0.000000   0.000004   0.000002   0.000004   0.002752
    12  O    0.000066  -0.000003   0.000027  -0.000000   0.000000  -0.000000
    13  H   -0.000000   0.000000  -0.000001  -0.000000   0.000000  -0.000000
    14  H   -0.000014   0.000207   0.003213   0.000001   0.000006  -0.000001
    15  H   -0.000137  -0.000035  -0.000074   0.000000  -0.000000   0.000000
    16  H   -0.003977  -0.000051   0.000033  -0.000009   0.000003  -0.000000
    17  H   -0.003806   0.004925  -0.000312   0.000006  -0.000002   0.000000
    18  H   -0.036572   0.005788  -0.003888   0.000509   0.000005   0.000111
    19  H    0.645376  -0.007736   0.005984   0.004787   0.000098   0.000005
    20  H   -0.007736   0.655056  -0.041930   0.001269  -0.009846   0.000123
    21  H    0.005984  -0.041930   0.647532   0.005543   0.001412   0.005259
    22  H    0.004787   0.001269   0.005543   0.642508  -0.040039   0.005916
    23  H    0.000098  -0.009846   0.001412  -0.040039   0.658073  -0.004417
    24  H    0.000005   0.000123   0.005259   0.005916  -0.004417   0.646453
    25  H    0.000015  -0.000218   0.000190  -0.004025  -0.003961  -0.041080
    26  H    0.000078  -0.000065   0.001154  -0.000295  -0.000054  -0.007140
    27  H    0.000082  -0.000015   0.000218   0.005182   0.000017   0.006233
    28  H    0.000000  -0.000000   0.000001  -0.000005   0.000003  -0.000064
    29  H    0.000000   0.000000   0.000001  -0.000003  -0.000007  -0.000223
    30  H    0.000000   0.000000   0.000016   0.000000  -0.000000   0.000414
    31  H   -0.000000   0.000000   0.000000   0.000000  -0.000000  -0.000102
    32  H    0.000000  -0.000000   0.000001  -0.000000   0.000007   0.001523
              25         26         27         28         29         30
     1  O   -0.000000  -0.000169   0.000000  -0.000000  -0.000000   0.000045
     2  C   -0.000000   0.002571  -0.000012   0.000001   0.000000   0.000024
     3  C    0.000000   0.000179   0.000003   0.000000  -0.000000  -0.000000
     4  C    0.000002  -0.000052   0.000019  -0.000000   0.000000  -0.000000
     5  C   -0.000117  -0.002750  -0.000307   0.000003  -0.000004  -0.000001
     6  C    0.005017   0.004479  -0.001526   0.000006   0.000007  -0.000002
     7  C   -0.034423  -0.004438  -0.003397  -0.000155  -0.000001  -0.000020
     8  C    0.377832  -0.038013  -0.041848   0.004651  -0.007701  -0.000774
     9  C   -0.042351   0.380059   0.382001  -0.032915  -0.037785  -0.004557
    10  C   -0.004921  -0.037843  -0.033892   0.382148   0.383587  -0.036238
    11  C   -0.000809  -0.007356   0.005068  -0.039613  -0.039680   0.385704
    12  O   -0.000000   0.002340  -0.000025   0.000005  -0.000000  -0.000004
    13  H    0.000000   0.000082  -0.000000   0.000000   0.000000   0.000031
    14  H   -0.000000  -0.000117  -0.000000  -0.000000   0.000000   0.000001
    15  H    0.000000   0.000009  -0.000000   0.000000   0.000000  -0.000000
    16  H   -0.000000  -0.000013  -0.000001  -0.000000  -0.000000   0.000000
    17  H   -0.000000  -0.000002  -0.000000  -0.000000  -0.000000  -0.000000
    18  H   -0.000080   0.001336   0.002290  -0.000008   0.000002  -0.000004
    19  H    0.000015   0.000078   0.000082   0.000000   0.000000   0.000000
    20  H   -0.000218  -0.000065  -0.000015  -0.000000   0.000000   0.000000
    21  H    0.000190   0.001154   0.000218   0.000001   0.000001   0.000016
    22  H   -0.004025  -0.000295   0.005182  -0.000005  -0.000003   0.000000
    23  H   -0.003961  -0.000054   0.000017   0.000003  -0.000007  -0.000000
    24  H   -0.041080  -0.007140   0.006233  -0.000064  -0.000223   0.000414
    25  H    0.654724   0.006175  -0.004506   0.000068   0.006238   0.000104
    26  H    0.006175   0.637333  -0.041761  -0.003110   0.005967   0.005567
    27  H   -0.004506  -0.041761   0.643465  -0.004444  -0.003206   0.000041
    28  H    0.000068  -0.003110  -0.004444   0.644190  -0.040038  -0.004502
    29  H    0.006238   0.005967  -0.003206  -0.040038   0.644362   0.005601
    30  H    0.000104   0.005567   0.000041  -0.004502   0.005601   0.617741
    31  H   -0.000032   0.000021  -0.000182  -0.004076  -0.002658  -0.032866
    32  H    0.000589  -0.000137  -0.000019   0.005518  -0.005201  -0.034237
              31         32
     1  O    0.000000  -0.000000
     2  C   -0.000000  -0.000000
     3  C    0.000000   0.000000
     4  C   -0.000000  -0.000000
     5  C    0.000000   0.000000
     6  C    0.000000   0.000008
     7  C   -0.000001  -0.000104
     8  C    0.000121   0.002822
     9  C    0.004331  -0.004979
    10  C   -0.028131  -0.034914
    11  C    0.380962   0.388537
    12  O    0.000000  -0.000000
    13  H   -0.000000  -0.000000
    14  H   -0.000000  -0.000000
    15  H    0.000000   0.000000
    16  H    0.000000  -0.000000
    17  H    0.000000  -0.000000
    18  H   -0.000000  -0.000000
    19  H   -0.000000   0.000000
    20  H    0.000000  -0.000000
    21  H    0.000000   0.000001
    22  H    0.000000  -0.000000
    23  H   -0.000000   0.000007
    24  H   -0.000102   0.001523
    25  H   -0.000032   0.000589
    26  H    0.000021  -0.000137
    27  H   -0.000182  -0.000019
    28  H   -0.004076   0.005518
    29  H   -0.002658  -0.005201
    30  H   -0.032866  -0.034237
    31  H    0.615941  -0.032226
    32  H   -0.032226   0.607594
 Mulliken charges:
               1
     1  O   -0.471312
     2  C    0.573693
     3  C   -0.260302
     4  C   -0.176658
     5  C   -0.188023
     6  C   -0.174596
     7  C   -0.185281
     8  C   -0.174447
     9  C   -0.169759
    10  C   -0.180794
    11  C   -0.316966
    12  O   -0.475054
    13  H    0.318978
    14  H    0.131497
    15  H    0.136499
    16  H    0.108698
    17  H    0.091073
    18  H    0.124564
    19  H    0.089677
    20  H    0.086356
    21  H    0.087400
    22  H    0.090884
    23  H    0.085667
    24  H    0.091039
    25  H    0.085568
    26  H    0.095964
    27  H    0.090524
    28  H    0.092336
    29  H    0.090743
    30  H    0.097914
    31  H    0.098897
    32  H    0.105220
 Sum of Mulliken charges =  -0.00000
 Mulliken charges with hydrogens summed into heavy atoms:
               1
     1  O   -0.152333
     2  C    0.573693
     3  C    0.007694
     4  C    0.023113
     5  C    0.026219
     6  C   -0.000840
     7  C   -0.008731
     8  C    0.002160
     9  C    0.016729
    10  C    0.002285
    11  C   -0.014935
    12  O   -0.475054
 Electronic spatial extent (au):  <R**2>=           3011.5930
 Charge=              0.0000 electrons
 Dipole moment (field-independent basis, Debye):
    X=              0.2629    Y=              0.0696    Z=             -1.2724  Tot=              1.3011
 Quadrupole moment (field-independent basis, Debye-Ang):
   XX=            -74.0945   YY=            -71.5496   ZZ=            -80.5078
   XY=              0.7462   XZ=             -2.7135   YZ=              0.9475
 Traceless Quadrupole moment (field-independent basis, Debye-Ang):
   XX=              1.2894   YY=              3.8344   ZZ=             -5.1238
   XY=              0.7462   XZ=             -2.7135   YZ=              0.9475
 Octapole moment (field-independent basis, Debye-Ang**2):
  XXX=             30.0302  YYY=            -40.1466  ZZZ=             -1.2642  XYY=             12.0476
  XXY=             -2.1713  XXZ=             -3.0570  XZZ=             -1.8267  YZZ=              4.0181
  YYZ=              1.5112  XYZ=              1.3947
 Hexadecapole moment (field-independent basis, Debye-Ang**3):
 XXXX=          -2310.5033 YYYY=          -1190.0076 ZZZZ=           -339.7600 XXXY=            -29.7438
 XXXZ=            -11.1349 YYYX=            -63.0650 YYYZ=             -1.3642 ZZZX=             -3.9827
 ZZZY=              3.9927 XXYY=           -605.5020 XXZZ=           -465.9143 YYZZ=           -286.7087
 XXYZ=             -2.0417 YYXZ=              1.6740 ZZXY=              4.0253
 N-N= 7.422258159310D+02 E-N=-2.747846444378D+03  KE= 5.384691462586D+02
 Calling FoFJK, ICntrl=      2127 FMM=F ISym2X=0 I1Cent= 0 IOpClX= 0 NMat=1 NMatS=1 NMatT=0.
 ***** Axes restored to original set *****
 -------------------------------------------------------------------
 Center     Atomic                   Forces (Hartrees/Bohr)
 Number     Number              X              Y              Z
 -------------------------------------------------------------------
      1        8          -0.008395867   -0.001540965    0.006748626
      2        6          -0.003360848   -0.021947873    0.009855993
      3        6          -0.000419822   -0.010911614   -0.002557947
      4        6           0.005611475   -0.000517740   -0.008187952
      5        6          -0.000837660    0.008302470   -0.000831649
      6        6           0.005287680   -0.008521077    0.001087401
      7        6          -0.000736871    0.007925019   -0.003600596
      8        6           0.007022980   -0.003397918    0.005582361
      9        6          -0.005926221    0.000356244   -0.005123741
     10        6          -0.001269819    0.006288345    0.004457770
     11        6           0.000116088   -0.005940915   -0.000042336
     12        8          -0.009241117    0.015062420    0.000785236
     13        1           0.012324926    0.002440282   -0.010842711
     14        1          -0.001294843    0.003334492   -0.002283670
     15        1           0.001251797    0.003787427    0.003725968
     16        1           0.003199394   -0.000083792   -0.001443234
     17        1          -0.003290829    0.004387046    0.001406256
     18        1           0.002447858    0.002407531   -0.002471756
     19        1          -0.002110188   -0.002658472    0.002983818
     20        1          -0.002319584    0.000140795    0.003604417
     21        1           0.001657773    0.004013042   -0.002578237
     22        1           0.003740154   -0.003250468    0.000948829
     23        1          -0.003812004    0.000362468   -0.000888499
     24        1          -0.001325769    0.004234551    0.000459638
     25        1          -0.001217404   -0.003347637   -0.003273822
     26        1           0.001887851    0.002753981    0.002218252
     27        1           0.000889200   -0.003812201    0.001342928
     28        1           0.003776601   -0.000312740    0.000448249
     29        1          -0.003077178   -0.002744608   -0.001971126
     30        1           0.001236243    0.001975078    0.002728273
     31        1           0.000981149    0.000481035   -0.002756196
     32        1          -0.002795144    0.000735791    0.000469459
 -------------------------------------------------------------------
 Cartesian Forces:  Max     0.021947873 RMS     0.004976194

 GradGradGradGradGradGradGradGradGradGradGradGradGradGradGradGradGradGrad
 Berny optimization.
 FormGI is forming the generalized inverse of G from B-inverse, IUseBI=4.
 Internal  Forces:  Max     0.017281842 RMS     0.003152657
 Search for a local minimum.
 Step number   1 out of a maximum of  179
 All quantities printed in internal units (Hartrees-Bohrs-Radians)
 Mixed Optimization -- RFO/linear search
 Second derivative matrix not updated -- first step.
 ITU=  0
     Eigenvalues ---    0.00230   0.00230   0.00230   0.00230   0.00230
     Eigenvalues ---    0.00230   0.00231   0.00276   0.00376   0.00855
     Eigenvalues ---    0.02358   0.03096   0.03128   0.03183   0.03193
     Eigenvalues ---    0.03258   0.03272   0.03287   0.03599   0.04640
     Eigenvalues ---    0.04664   0.04670   0.04673   0.04690   0.04693
     Eigenvalues ---    0.04710   0.05172   0.05362   0.05457   0.08520
     Eigenvalues ---    0.08533   0.08534   0.08623   0.08688   0.08729
     Eigenvalues ---    0.08841   0.09866   0.12359   0.12363   0.12364
     Eigenvalues ---    0.12433   0.12473   0.12518   0.12578   0.13156
     Eigenvalues ---    0.16000   0.16000   0.16000   0.16000   0.21875
     Eigenvalues ---    0.21889   0.21903   0.21904   0.21918   0.21918
     Eigenvalues ---    0.21925   0.21980   0.24996   0.25000   0.27444
     Eigenvalues ---    0.28094   0.28113   0.28125   0.28197   0.28334
     Eigenvalues ---    0.28483   0.28783   0.29474   0.34517   0.34641
     Eigenvalues ---    0.34647   0.34648   0.34651   0.34661   0.34661
     Eigenvalues ---    0.34663   0.34664   0.34665   0.34711   0.34718
     Eigenvalues ---    0.34742   0.34768   0.34775   0.34793   0.34900
     Eigenvalues ---    0.34922   0.34933   0.55097   0.55969   0.94031
 RFO step:  Lambda=-6.31818406D-03 EMin= 2.30000000D-03
 Linear search not attempted -- first point.
 Iteration  1 RMS(Cart)=  0.15786777 RMS(Int)=  0.00260056
 Iteration  2 RMS(Cart)=  0.00589303 RMS(Int)=  0.00014974
 Iteration  3 RMS(Cart)=  0.00000997 RMS(Int)=  0.00014964
 Iteration  4 RMS(Cart)=  0.00000000 RMS(Int)=  0.00014964
 Variable       Old X    -DE/DX   Delta X   Delta X   Delta X     New X
                                 (Linear)    (Quad)   (Total)
    R1        2.55046   0.00287   0.00000   0.00514   0.00514   2.55560
    R2        1.80981   0.01609   0.00000   0.02842   0.02842   1.83822
    R3        2.89025  -0.01100   0.00000  -0.03655  -0.03655   2.85370
    R4        2.31129  -0.01728   0.00000  -0.01826  -0.01826   2.29303
    R5        2.93370  -0.01306   0.00000  -0.04650  -0.04650   2.88719
    R6        2.05783   0.00350   0.00000   0.00985   0.00985   2.06768
    R7        2.05838   0.00535   0.00000   0.01505   0.01505   2.07342
    R8        2.91933  -0.00693   0.00000  -0.02414  -0.02414   2.89519
    R9        2.06466   0.00192   0.00000   0.00546   0.00546   2.07012
   R10        2.06251   0.00367   0.00000   0.01041   0.01041   2.07292
   R11        2.91710  -0.00546   0.00000  -0.01895  -0.01895   2.89815
   R12        2.05801   0.00306   0.00000   0.00860   0.00860   2.06662
   R13        2.06223   0.00394   0.00000   0.01117   0.01117   2.07340
   R14        2.91893  -0.00193   0.00000  -0.00670  -0.00670   2.91222
   R15        2.06228   0.00419   0.00000   0.01188   0.01188   2.07417
   R16        2.06042   0.00477   0.00000   0.01348   0.01348   2.07390
   R17        2.91866  -0.00485   0.00000  -0.01687  -0.01687   2.90179
   R18        2.06262   0.00424   0.00000   0.01202   0.01202   2.07465
   R19        2.06252   0.00380   0.00000   0.01076   0.01076   2.07328
   R20        2.91414  -0.00440   0.00000  -0.01519  -0.01519   2.89895
   R21        2.06135   0.00426   0.00000   0.01206   0.01206   2.07341
   R22        2.06223   0.00474   0.00000   0.01344   0.01344   2.07567
   R23        2.91094  -0.00336   0.00000  -0.01153  -0.01153   2.89941
   R24        2.06147   0.00400   0.00000   0.01133   0.01133   2.07280
   R25        2.06228   0.00408   0.00000   0.01155   0.01155   2.07384
   R26        2.90458  -0.00254   0.00000  -0.00863  -0.00863   2.89595
   R27        2.06246   0.00374   0.00000   0.01059   0.01059   2.07304
   R28        2.06226   0.00434   0.00000   0.01229   0.01229   2.07455
   R29        2.06095   0.00348   0.00000   0.00983   0.00983   2.07078
   R30        2.06053   0.00296   0.00000   0.00837   0.00837   2.06890
   R31        2.06013   0.00286   0.00000   0.00808   0.00808   2.06820
    A1        1.81460   0.00730   0.00000   0.04391   0.04391   1.85851
    A2        1.95103   0.00074   0.00000   0.00303   0.00296   1.95399
    A3        2.14721  -0.00463   0.00000  -0.01793  -0.01800   2.12922
    A4        2.18472   0.00390   0.00000   0.01532   0.01526   2.19998
    A5        2.02166  -0.01043   0.00000  -0.04909  -0.04902   1.97264
    A6        1.89653   0.00139   0.00000  -0.00881  -0.00869   1.88784
    A7        1.85379   0.00354   0.00000   0.01593   0.01625   1.87004
    A8        1.92751   0.00500   0.00000   0.02536   0.02473   1.95225
    A9        1.90511   0.00298   0.00000   0.01960   0.01953   1.92464
   A10        1.85041  -0.00195   0.00000   0.00052   0.00013   1.85054
   A11        2.02055  -0.00549   0.00000  -0.03235  -0.03254   1.98801
   A12        1.90299   0.00136   0.00000  -0.00190  -0.00196   1.90103
   A13        1.90138  -0.00114   0.00000  -0.02016  -0.01996   1.88142
   A14        1.89769   0.00126   0.00000   0.00437   0.00395   1.90163
   A15        1.89876   0.00382   0.00000   0.02438   0.02381   1.92256
   A16        1.83331   0.00076   0.00000   0.03211   0.03186   1.86516
   A17        1.99599   0.00010   0.00000  -0.00490  -0.00501   1.99098
   A18        1.90979  -0.00095   0.00000  -0.01463  -0.01477   1.89502
   A19        1.89401  -0.00003   0.00000   0.00296   0.00300   1.89701
   A20        1.93219  -0.00026   0.00000  -0.00831  -0.00850   1.92369
   A21        1.89561  -0.00009   0.00000   0.00368   0.00370   1.89932
   A22        1.82826   0.00136   0.00000   0.02432   0.02438   1.85264
   A23        1.98797  -0.00013   0.00000  -0.00272  -0.00294   1.98502
   A24        1.88766   0.00001   0.00000   0.00880   0.00874   1.89639
   A25        1.93555  -0.00073   0.00000  -0.01737  -0.01758   1.91798
   A26        1.90155   0.00101   0.00000   0.01835   0.01833   1.91988
   A27        1.90522  -0.00052   0.00000  -0.01405  -0.01427   1.89095
   A28        1.83965   0.00045   0.00000   0.00898   0.00913   1.84879
   A29        2.00830  -0.00250   0.00000  -0.01585  -0.01620   1.99210
   A30        1.92726  -0.00020   0.00000  -0.01654  -0.01706   1.91019
   A31        1.88927   0.00160   0.00000   0.02080   0.02092   1.91020
   A32        1.92152   0.00028   0.00000  -0.01395  -0.01452   1.90701
   A33        1.87582   0.00068   0.00000   0.01266   0.01278   1.88861
   A34        1.83225   0.00046   0.00000   0.01790   0.01808   1.85033
   A35        2.00693  -0.00093   0.00000  -0.00653  -0.00657   2.00036
   A36        1.90197  -0.00071   0.00000  -0.01103  -0.01107   1.89089
   A37        1.89052   0.00109   0.00000   0.01050   0.01053   1.90105
   A38        1.91263   0.00065   0.00000  -0.00068  -0.00079   1.91184
   A39        1.90073  -0.00036   0.00000  -0.00064  -0.00062   1.90011
   A40        1.84399   0.00038   0.00000   0.00999   0.01003   1.85402
   A41        1.99180  -0.00128   0.00000  -0.00652  -0.00653   1.98527
   A42        1.91741   0.00063   0.00000   0.00106   0.00103   1.91844
   A43        1.90402  -0.00016   0.00000  -0.00150  -0.00149   1.90253
   A44        1.89946  -0.00007   0.00000  -0.00357  -0.00358   1.89588
   A45        1.89590   0.00108   0.00000   0.00883   0.00883   1.90473
   A46        1.84982  -0.00011   0.00000   0.00246   0.00246   1.85227
   A47        1.98936  -0.00039   0.00000  -0.00403  -0.00407   1.98530
   A48        1.89699  -0.00013   0.00000   0.00076   0.00077   1.89777
   A49        1.91627  -0.00037   0.00000  -0.00836  -0.00841   1.90786
   A50        1.89703   0.00052   0.00000   0.00736   0.00737   1.90440
   A51        1.91379  -0.00004   0.00000  -0.00435  -0.00442   1.90937
   A52        1.84462   0.00048   0.00000   0.00996   0.00997   1.85459
   A53        1.94276  -0.00118   0.00000  -0.00885  -0.00886   1.93390
   A54        1.93532   0.00042   0.00000   0.00468   0.00468   1.94000
   A55        1.94896   0.00027   0.00000   0.00123   0.00121   1.95017
   A56        1.87779   0.00048   0.00000   0.00360   0.00362   1.88141
   A57        1.88288   0.00002   0.00000  -0.00383  -0.00386   1.87902
   A58        1.87291   0.00003   0.00000   0.00347   0.00346   1.87636
    D1        3.13507  -0.00035   0.00000  -0.00822  -0.00839   3.12668
    D2        0.01536  -0.00075   0.00000  -0.02850  -0.02833  -0.01297
    D3        2.91705   0.00006   0.00000  -0.00278  -0.00256   2.91448
    D4        0.73607   0.00003   0.00000   0.00736   0.00702   0.74309
    D5       -1.24798  -0.00012   0.00000   0.00296   0.00293  -1.24505
    D6       -0.24699   0.00033   0.00000   0.01752   0.01784  -0.22915
    D7       -2.42797   0.00031   0.00000   0.02766   0.02743  -2.40054
    D8        1.87117   0.00015   0.00000   0.02326   0.02334   1.89450
    D9       -1.09086   0.00133   0.00000   0.04296   0.04313  -1.04773
   D10        1.05480   0.00011   0.00000   0.02382   0.02397   1.07877
   D11        3.04653   0.00113   0.00000   0.05010   0.04992   3.09646
   D12        1.07411  -0.00071   0.00000   0.01408   0.01396   1.08807
   D13       -3.06342  -0.00192   0.00000  -0.00506  -0.00520  -3.06861
   D14       -1.07168  -0.00090   0.00000   0.02122   0.02075  -1.05093
   D15        3.10188   0.00153   0.00000   0.04065   0.04096  -3.14034
   D16       -1.03565   0.00032   0.00000   0.02151   0.02181  -1.01384
   D17        0.95609   0.00134   0.00000   0.04778   0.04776   1.00384
   D18       -1.10759   0.00089   0.00000   0.02952   0.02961  -1.07798
   D19        1.07120  -0.00014   0.00000   0.00320   0.00339   1.07459
   D20        3.05662   0.00096   0.00000   0.02588   0.02601   3.08263
   D21        3.02714   0.00203   0.00000   0.05182   0.05189   3.07903
   D22       -1.07725   0.00100   0.00000   0.02550   0.02567  -1.05159
   D23        0.90817   0.00210   0.00000   0.04818   0.04829   0.95645
   D24        1.03958  -0.00152   0.00000  -0.00100  -0.00129   1.03828
   D25       -3.06482  -0.00255   0.00000  -0.02732  -0.02752  -3.09233
   D26       -1.07939  -0.00145   0.00000  -0.00464  -0.00490  -1.08429
   D27        3.07049  -0.00141   0.00000  -0.04292  -0.04286   3.02764
   D28       -1.09603  -0.00020   0.00000  -0.01501  -0.01496  -1.11100
   D29        0.91311  -0.00004   0.00000  -0.00857  -0.00861   0.90449
   D30        0.90361  -0.00001   0.00000  -0.01295  -0.01293   0.89068
   D31        3.02026   0.00120   0.00000   0.01497   0.01497   3.03523
   D32       -1.25378   0.00135   0.00000   0.02141   0.02132  -1.23246
   D33       -1.09461  -0.00144   0.00000  -0.03969  -0.03964  -1.13425
   D34        1.02205  -0.00023   0.00000  -0.01177  -0.01175   1.01031
   D35        3.03119  -0.00008   0.00000  -0.00533  -0.00540   3.02579
   D36       -1.64400   0.00175   0.00000   0.07926   0.07913  -1.56486
   D37        0.54420  -0.00001   0.00000   0.03397   0.03409   0.57829
   D38        2.54096   0.00134   0.00000   0.05813   0.05811   2.59907
   D39        2.53028   0.00110   0.00000   0.05658   0.05642   2.58670
   D40       -1.56471  -0.00066   0.00000   0.01129   0.01138  -1.55333
   D41        0.43205   0.00068   0.00000   0.03545   0.03539   0.46744
   D42        0.52974   0.00030   0.00000   0.04356   0.04349   0.57323
   D43        2.71794  -0.00146   0.00000  -0.00174  -0.00155   2.71638
   D44       -1.56849  -0.00011   0.00000   0.02242   0.02247  -1.54602
   D45        1.08742  -0.00095   0.00000  -0.02276  -0.02263   1.06478
   D46       -1.06734  -0.00057   0.00000  -0.00850  -0.00844  -1.07578
   D47       -3.06540  -0.00123   0.00000  -0.02009  -0.01999  -3.08539
   D48       -1.10375   0.00104   0.00000   0.02372   0.02365  -1.08011
   D49        3.02467   0.00142   0.00000   0.03799   0.03784   3.06251
   D50        1.02662   0.00077   0.00000   0.02639   0.02629   1.05291
   D51       -3.09017  -0.00001   0.00000   0.00286   0.00290  -3.08726
   D52        1.03826   0.00036   0.00000   0.01712   0.01710   1.05536
   D53       -0.95979  -0.00029   0.00000   0.00553   0.00555  -0.95425
   D54        3.00316   0.00109   0.00000   0.04266   0.04266   3.04582
   D55       -1.14145   0.00056   0.00000   0.03414   0.03414  -1.10731
   D56        0.87927   0.00069   0.00000   0.03683   0.03682   0.91609
   D57       -1.13095  -0.00002   0.00000   0.02278   0.02279  -1.10816
   D58        1.00763  -0.00055   0.00000   0.01427   0.01427   1.02190
   D59        3.02835  -0.00042   0.00000   0.01695   0.01695   3.04530
   D60        0.87831   0.00059   0.00000   0.03398   0.03399   0.91230
   D61        3.01689   0.00006   0.00000   0.02547   0.02547   3.04235
   D62       -1.24558   0.00019   0.00000   0.02815   0.02815  -1.21743
   D63        1.14590  -0.00031   0.00000  -0.01518  -0.01515   1.13075
   D64       -3.01874   0.00000   0.00000  -0.00787  -0.00786  -3.02660
   D65       -1.00882   0.00030   0.00000  -0.00011  -0.00011  -1.00893
   D66       -1.00245  -0.00017   0.00000  -0.00930  -0.00929  -1.01174
   D67        1.11609   0.00014   0.00000  -0.00199  -0.00200   1.11410
   D68        3.12602   0.00044   0.00000   0.00578   0.00575   3.13177
   D69       -3.00892  -0.00059   0.00000  -0.01501  -0.01500  -3.02393
   D70       -0.89038  -0.00028   0.00000  -0.00771  -0.00771  -0.89809
   D71        1.11954   0.00003   0.00000   0.00006   0.00004   1.11958
   D72        0.98427   0.00002   0.00000   0.00458   0.00458   0.98885
   D73        3.07412   0.00013   0.00000   0.00639   0.00637   3.08049
   D74       -1.12127   0.00063   0.00000   0.01476   0.01475  -1.10653
   D75       -1.13425   0.00007   0.00000   0.00094   0.00095  -1.13330
   D76        0.95559   0.00018   0.00000   0.00275   0.00274   0.95833
   D77        3.04338   0.00068   0.00000   0.01111   0.01112   3.05450
   D78        3.14034  -0.00077   0.00000  -0.01265  -0.01263   3.12770
   D79       -1.05300  -0.00066   0.00000  -0.01084  -0.01084  -1.06384
   D80        1.03479  -0.00016   0.00000  -0.00247  -0.00247   1.03232
         Item               Value     Threshold  Converged?
 Maximum Force            0.017282     0.000450     NO 
 RMS     Force            0.003153     0.000300     NO 
 Maximum Displacement     0.717415     0.001800     NO 
 RMS     Displacement     0.159101     0.001200     NO 
 Predicted change in Energy=-3.405632D-03
 GradGradGradGradGradGradGradGradGradGradGradGradGradGradGradGradGradGrad

                          Input orientation:                          
 ---------------------------------------------------------------------
 Center     Atomic      Atomic             Coordinates (Angstroms)
 Number     Number       Type             X           Y           Z
 ---------------------------------------------------------------------
      1          8           0        4.693345    0.175554   -1.791950
      2          6           0        4.619820   -1.010188   -1.145804
      3          6           0        3.607413   -0.980986   -0.025708
      4          6           0        3.271596   -2.370848    0.512623
      5          6           0        2.680895   -3.317282   -0.537412
      6          6           0        1.350752   -2.839381   -1.132693
      7          6           0        0.843697   -3.711420   -2.297758
      8          6           0        1.340566   -3.263470   -3.679933
      9          6           0        2.864759   -3.292468   -3.851200
     10          6           0        3.332611   -2.970249   -5.276461
     11          6           0        3.009221   -1.540644   -5.723807
     12          8           0        5.307608   -1.958488   -1.462138
     13          1           0        5.371969    0.072671   -2.481240
     14          1           0        2.716479   -0.457029   -0.384758
     15          1           0        4.025951   -0.355063    0.772359
     16          1           0        4.180775   -2.820895    0.926002
     17          1           0        2.570215   -2.246820    1.346865
     18          1           0        3.419613   -3.462222   -1.330673
     19          1           0        2.529546   -4.301982   -0.077737
     20          1           0        0.599551   -2.807467   -0.333063
     21          1           0        1.451895   -1.807439   -1.492256
     22          1           0        1.137985   -4.755370   -2.127910
     23          1           0       -0.253353   -3.704152   -2.308886
     24          1           0        0.969406   -2.248205   -3.867877
     25          1           0        0.884667   -3.903869   -4.447084
     26          1           0        3.332108   -2.580697   -3.159742
     27          1           0        3.237682   -4.284349   -3.565810
     28          1           0        4.416494   -3.128686   -5.335777
     29          1           0        2.878946   -3.683057   -5.977366
     30          1           0        3.440105   -0.809149   -5.030945
     31          1           0        3.414840   -1.337139   -6.720141
     32          1           0        1.930044   -1.363211   -5.765120
 ---------------------------------------------------------------------
                    Distance matrix (angstroms):
                    1          2          3          4          5
     1  O    0.000000
     2  C    1.352366   0.000000
     3  C    2.374120   1.510111   0.000000
     4  C    3.717067   2.533670   1.527838   0.000000
     5  C    4.221816   3.074453   2.564870   1.532070   0.000000
     6  C    4.549438   3.746055   3.125951   2.572203   1.533633
     7  C    5.494015   4.783592   4.500622   3.948425   2.574773
     8  C    5.160668   4.717266   4.868438   4.701401   3.416843
     9  C    4.428478   3.950723   4.530880   4.478599   3.318977
[...]
 Alpha virt. eigenvalues --    4.09671   4.11352   4.14262   4.15461   4.18060
 Alpha virt. eigenvalues --    4.21788   4.23493   4.26453   4.29057   4.32935
 Alpha virt. eigenvalues --    4.35772   4.36351   4.39928   4.43174   4.44562
 Alpha virt. eigenvalues --    4.46627   4.47410   4.50496   4.53738   4.54591
 Alpha virt. eigenvalues --    4.58482   4.59603   4.61731   4.62577   4.65601
 Alpha virt. eigenvalues --    4.66694   4.67431   4.71306   4.74137   4.76090
 Alpha virt. eigenvalues --    4.77277   4.78263   4.82176   4.85290   4.90612
 Alpha virt. eigenvalues --    4.92071   5.02408   5.03951   5.16688   5.21251
 Alpha virt. eigenvalues --    5.22055   5.38714   5.40044   5.51005   5.59175
 Alpha virt. eigenvalues --    5.74876   5.85395   5.87099   6.14579   6.20364
 Alpha virt. eigenvalues --    6.33511   6.33897   6.44689   6.48294   6.64796
 Alpha virt. eigenvalues --    6.69921   6.74587   6.81948   6.89511   7.07280
 Alpha virt. eigenvalues --    7.08636   7.26678  22.44227  22.55228  22.56267
 Alpha virt. eigenvalues --   22.58729  22.59316  22.61225  22.61570  22.64862
 Alpha virt. eigenvalues --   22.70868  23.31100  43.99892  44.09544
          Condensed to atoms (all electrons):
               1          2          3          4          5          6
     1  O    7.972936   0.322160  -0.104619   0.009679  -0.001972   0.000527
     2  C    0.322160   4.618274   0.192482  -0.031509   0.023709  -0.008373
     3  C   -0.104619   0.192482   5.452694   0.183066  -0.056851   0.027583
     4  C    0.009679  -0.031509   0.183066   5.167656   0.220610  -0.044210
     5  C   -0.001972   0.023709  -0.056851   0.220610   5.393674   0.135945
     6  C    0.000527  -0.008373   0.027583  -0.044210   0.135945   5.403437
     7  C    0.000064  -0.000687  -0.001419   0.009441  -0.014392   0.174846
     8  C   -0.000286   0.000751   0.000409  -0.000495  -0.002903  -0.032466
     9  C   -0.007451   0.004932  -0.003660  -0.000273   0.005806   0.015451
    10  C    0.004343  -0.000487   0.000222  -0.000196   0.002302  -0.002854
    11  C   -0.004155  -0.000366   0.000168   0.000013  -0.000089   0.000020
    12  O   -0.087889   0.650829  -0.097894   0.024940  -0.015766   0.000678
    13  H    0.285789  -0.021614   0.017336  -0.001769   0.000555  -0.000071
    14  H    0.004918  -0.047290   0.426830  -0.040640  -0.002731  -0.004585
    15  H    0.003302  -0.020166   0.394390  -0.027041   0.004504   0.000508
    16  H    0.000407  -0.013836  -0.017833   0.425745  -0.048783   0.009288
    17  H   -0.000138   0.011626  -0.064841   0.433828  -0.031695  -0.009746
    18  H   -0.000831   0.009176  -0.020954  -0.039707   0.454327  -0.080451
    19  H   -0.000037  -0.000069   0.008046  -0.031152   0.413401  -0.036506
    20  H    0.000022   0.000384  -0.001952  -0.001037  -0.033013   0.407615
    21  H   -0.000012  -0.001367   0.007404  -0.004675  -0.062309   0.427521
    22  H   -0.000001  -0.000022   0.000097   0.000661  -0.007814  -0.060219
    23  H   -0.000000  -0.000005   0.000093  -0.000641   0.004950  -0.042874
    24  H    0.000059  -0.000167   0.000315  -0.000036   0.001265  -0.015199
    25  H   -0.000009   0.000019  -0.000057   0.000068  -0.000611   0.010374
    26  H    0.006025  -0.010356  -0.001658   0.000197  -0.008043   0.008605
    27  H    0.000272  -0.000632   0.000476   0.000105  -0.001163  -0.004466
    28  H   -0.000245   0.000548  -0.000037   0.000001  -0.000071   0.000372
    29  H    0.000013  -0.000012  -0.000008   0.000001  -0.000036  -0.000074
    30  H    0.004352  -0.001466   0.000064  -0.000003   0.000083  -0.000325
    31  H    0.000065  -0.000014   0.000005  -0.000000   0.000002  -0.000016
    32  H    0.000043   0.000135  -0.000052   0.000002  -0.000040   0.000527
               7          8          9         10         11         12
     1  O    0.000064  -0.000286  -0.007451   0.004343  -0.004155  -0.087889
     2  C   -0.000687   0.000751   0.004932  -0.000487  -0.000366   0.650829
     3  C   -0.001419   0.000409  -0.003660   0.000222   0.000168  -0.097894
     4  C    0.009441  -0.000495  -0.000273  -0.000196   0.000013   0.024940
     5  C   -0.014392  -0.002903   0.005806   0.002302  -0.000089  -0.015766
     6  C    0.174846  -0.032466   0.015451  -0.002854   0.000020   0.000678
     7  C    5.171479   0.252030  -0.054243   0.011515  -0.000287  -0.000021
     8  C    0.252030   5.251529   0.230492  -0.046192   0.005563   0.000199
     9  C   -0.054243   0.230492   5.273461   0.235158  -0.050612   0.002140
    10  C    0.011515  -0.046192   0.235158   5.126573   0.252294  -0.000620
    11  C   -0.000287   0.005563  -0.050612   0.252294   5.096008   0.000020
    12  O   -0.000021   0.000199   0.002140  -0.000620   0.000020   7.827676
    13  H   -0.000012   0.000031   0.000330   0.000052   0.000488   0.005301
    14  H    0.000831  -0.000178  -0.000185   0.000059   0.000004   0.004345
    15  H    0.000008   0.000022  -0.000039  -0.000006  -0.000001   0.001713
    16  H   -0.000379  -0.000004  -0.000006   0.000007   0.000001   0.004682
    17  H    0.000042  -0.000028   0.000008   0.000004  -0.000000   0.000381
    18  H    0.006147   0.000286  -0.004628   0.000932  -0.000026   0.007803
    19  H   -0.006446   0.001304  -0.000492  -0.000055   0.000001  -0.000005
    20  H   -0.025767   0.003350   0.000487   0.000061  -0.000014  -0.000021
    21  H   -0.052693   0.006215  -0.011084  -0.000252  -0.000128  -0.000087
    22  H    0.443788  -0.043081  -0.010757  -0.000601  -0.000036   0.000002
    23  H    0.436643  -0.052108   0.010478  -0.000596   0.000080   0.000000
    24  H   -0.037088   0.441068  -0.062919  -0.004529   0.000607  -0.000004
    25  H   -0.042222   0.424783  -0.050287  -0.000396  -0.000983  -0.000000
    26  H   -0.005649  -0.074919   0.384333  -0.024062  -0.013009  -0.004493
    27  H    0.004491  -0.049495   0.420444  -0.030484   0.008749  -0.000113
    28  H   -0.001029   0.010921  -0.050367   0.434085  -0.042534   0.000108
    29  H   -0.000081  -0.011518  -0.048428   0.436103  -0.051417  -0.000001
    30  H    0.000111  -0.003679  -0.001242  -0.046159   0.407551   0.000061
    31  H    0.000048   0.000099   0.010423  -0.042649   0.413309   0.000000
    32  H   -0.000087   0.002681  -0.004856  -0.041901   0.418013  -0.000001
              13         14         15         16         17         18
     1  O    0.285789   0.004918   0.003302   0.000407  -0.000138  -0.000831
     2  C   -0.021614  -0.047290  -0.020166  -0.013836   0.011626   0.009176
     3  C    0.017336   0.426830   0.394390  -0.017833  -0.064841  -0.020954
     4  C   -0.001769  -0.040640  -0.027041   0.425745   0.433828  -0.039707
     5  C    0.000555  -0.002731   0.004504  -0.048783  -0.031695   0.454327
     6  C   -0.000071  -0.004585   0.000508   0.009288  -0.009746  -0.080451
     7  C   -0.000012   0.000831   0.000008  -0.000379   0.000042   0.006147
     8  C    0.000031  -0.000178   0.000022  -0.000004  -0.000028   0.000286
     9  C    0.000330  -0.000185  -0.000039  -0.000006   0.000008  -0.004628
    10  C    0.000052   0.000059  -0.000006   0.000007   0.000004   0.000932
    11  C    0.000488   0.000004  -0.000001   0.000001  -0.000000  -0.000026
    12  O    0.005301   0.004345   0.001713   0.004682   0.000381   0.007803
    13  H    0.379110  -0.000820  -0.000712  -0.000009   0.000033  -0.000100
    14  H   -0.000820   0.490928  -0.013796   0.004824  -0.001488   0.001070
    15  H   -0.000712  -0.013796   0.493127  -0.003946  -0.004665  -0.000025
    16  H   -0.000009   0.004824  -0.003946   0.500285  -0.018325  -0.001734
    17  H    0.000033  -0.001488  -0.004665  -0.018325   0.529757   0.005472
    18  H   -0.000100   0.001070  -0.000025  -0.001734   0.005472   0.482484
    19  H   -0.000003  -0.000618  -0.000077  -0.008137  -0.002825  -0.013396
    20  H    0.000001   0.001051  -0.000164   0.000079   0.002371   0.004631
    21  H    0.000023  -0.007740   0.000617  -0.000546   0.001189   0.003899
    22  H    0.000000  -0.000054   0.000005  -0.000047  -0.000003   0.000084
    23  H   -0.000000  -0.000012   0.000000   0.000010  -0.000007  -0.000222
    24  H   -0.000004   0.000065   0.000001   0.000005  -0.000005  -0.000116
    25  H    0.000001  -0.000001   0.000000  -0.000002   0.000000  -0.000011
    26  H   -0.000832   0.001584  -0.000026   0.000099  -0.000083  -0.008803
    27  H   -0.000036  -0.000020   0.000002   0.000003  -0.000008  -0.002252
    28  H    0.000155  -0.000002   0.000000  -0.000001  -0.000000  -0.000076
    29  H    0.000011  -0.000001   0.000000  -0.000000  -0.000000  -0.000036
    30  H   -0.000464  -0.000023   0.000006  -0.000001  -0.000001  -0.000004
    31  H   -0.000021  -0.000001  -0.000000  -0.000000   0.000000   0.000003
    32  H   -0.000002   0.000013   0.000000  -0.000000  -0.000000  -0.000010
              19         20         21         22         23         24
     1  O   -0.000037   0.000022  -0.000012  -0.000001  -0.000000   0.000059
     2  C   -0.000069   0.000384  -0.001367  -0.000022  -0.000005  -0.000167
     3  C    0.008046  -0.001952   0.007404   0.000097   0.000093   0.000315
     4  C   -0.031152  -0.001037  -0.004675   0.000661  -0.000641  -0.000036
     5  C    0.413401  -0.033013  -0.062309  -0.007814   0.004950   0.001265
     6  C   -0.036506   0.407615   0.427521  -0.060219  -0.042874  -0.015199
     7  C   -0.006446  -0.025767  -0.052693   0.443788   0.436643  -0.037088
     8  C    0.001304   0.003350   0.006215  -0.043081  -0.052108   0.441068
     9  C   -0.000492   0.000487  -0.011084  -0.010757   0.010478  -0.062919
    10  C   -0.000055   0.000061  -0.000252  -0.000601  -0.000596  -0.004529
    11  C    0.000001  -0.000014  -0.000128  -0.000036   0.000080   0.000607
    12  O   -0.000005  -0.000021  -0.000087   0.000002   0.000000  -0.000004
    13  H   -0.000003   0.000001   0.000023   0.000000  -0.000000  -0.000004
    14  H   -0.000618   0.001051  -0.007740  -0.000054  -0.000012   0.000065
    15  H   -0.000077  -0.000164   0.000617   0.000005   0.000000   0.000001
    16  H   -0.008137   0.000079  -0.000546  -0.000047   0.000010   0.000005
    17  H   -0.002825   0.002371   0.001189  -0.000003  -0.000007  -0.000005
    18  H   -0.013396   0.004631   0.003899   0.000084  -0.000222  -0.000116
    19  H    0.522456  -0.005206   0.005620   0.001902   0.000190  -0.000025
    20  H   -0.005206   0.536578  -0.023424   0.000195  -0.010177  -0.000359
    21  H    0.005620  -0.023424   0.551473   0.006723   0.002795   0.001756
    22  H    0.001902   0.000195   0.006723   0.527439  -0.019440   0.006311
    23  H    0.000190  -0.010177   0.002795  -0.019440   0.538921  -0.002747
    24  H   -0.000025  -0.000359   0.001756   0.006311  -0.002747   0.537704
    25  H    0.000012  -0.000130   0.000151  -0.002605  -0.007401  -0.021534
    26  H    0.000664   0.000217   0.001407   0.001740  -0.000948   0.000272
    27  H    0.000110  -0.000166   0.000744   0.002382   0.000127   0.006028
    28  H    0.000001  -0.000001   0.000017   0.000018   0.000013  -0.000355
    29  H    0.000001   0.000001   0.000005   0.000055  -0.000021   0.000948
    30  H   -0.000001   0.000003   0.000115   0.000000   0.000007   0.000671
    31  H   -0.000000   0.000000   0.000007   0.000001  -0.000002   0.000153
    32  H    0.000000  -0.000001  -0.000006  -0.000008  -0.000015  -0.004781
              25         26         27         28         29         30
     1  O   -0.000009   0.006025   0.000272  -0.000245   0.000013   0.004352
     2  C    0.000019  -0.010356  -0.000632   0.000548  -0.000012  -0.001466
     3  C   -0.000057  -0.001658   0.000476  -0.000037  -0.000008   0.000064
     4  C    0.000068   0.000197   0.000105   0.000001   0.000001  -0.000003
     5  C   -0.000611  -0.008043  -0.001163  -0.000071  -0.000036   0.000083
     6  C    0.010374   0.008605  -0.004466   0.000372  -0.000074  -0.000325
     7  C   -0.042222  -0.005649   0.004491  -0.001029  -0.000081   0.000111
     8  C    0.424783  -0.074919  -0.049495   0.010921  -0.011518  -0.003679
     9  C   -0.050287   0.384333   0.420444  -0.050367  -0.048428  -0.001242
    10  C   -0.000396  -0.024062  -0.030484   0.434085   0.436103  -0.046159
    11  C   -0.000983  -0.013009   0.008749  -0.042534  -0.051417   0.407551
    12  O   -0.000000  -0.004493  -0.000113   0.000108  -0.000001   0.000061
    13  H    0.000001  -0.000832  -0.000036   0.000155   0.000011  -0.000464
    14  H   -0.000001   0.001584  -0.000020  -0.000002  -0.000001  -0.000023
    15  H    0.000000  -0.000026   0.000002   0.000000   0.000000   0.000006
    16  H   -0.000002   0.000099   0.000003  -0.000001  -0.000000  -0.000001
    17  H    0.000000  -0.000083  -0.000008  -0.000000  -0.000000  -0.000001
    18  H   -0.000011  -0.008803  -0.002252  -0.000076  -0.000036  -0.000004
    19  H    0.000012   0.000664   0.000110   0.000001   0.000001  -0.000001
    20  H   -0.000130   0.000217  -0.000166  -0.000001   0.000001   0.000003
    21  H    0.000151   0.001407   0.000744   0.000017   0.000005   0.000115
    22  H   -0.002605   0.001740   0.002382   0.000018   0.000055   0.000000
    23  H   -0.007401  -0.000948   0.000127   0.000013  -0.000021   0.000007
    24  H   -0.021534   0.000272   0.006028  -0.000355   0.000948   0.000671
    25  H    0.539962   0.008835  -0.001785  -0.000010   0.002827   0.000062
    26  H    0.008835   0.681139  -0.024249  -0.009580   0.010260   0.006164
    27  H   -0.001785  -0.024249   0.524113  -0.008219  -0.001978   0.000306
    28  H   -0.000010  -0.009580  -0.008219   0.554130  -0.022967  -0.003662
    29  H    0.002827   0.010260  -0.001978  -0.022967   0.549556   0.007210
    30  H    0.000062   0.006164   0.000306  -0.003662   0.007210   0.544766
    31  H   -0.000070   0.000156  -0.000265  -0.005587  -0.003704  -0.024150
    32  H    0.000357  -0.001794  -0.000568   0.006661  -0.003767  -0.030573
              31         32
     1  O    0.000065   0.000043
     2  C   -0.000014   0.000135
     3  C    0.000005  -0.000052
     4  C   -0.000000   0.000002
     5  C    0.000002  -0.000040
     6  C   -0.000016   0.000527
     7  C    0.000048  -0.000087
     8  C    0.000099   0.002681
     9  C    0.010423  -0.004856
    10  C   -0.042649  -0.041901
    11  C    0.413309   0.418013
    12  O    0.000000  -0.000001
    13  H   -0.000021  -0.000002
    14  H   -0.000001   0.000013
    15  H   -0.000000   0.000000
    16  H   -0.000000  -0.000000
    17  H    0.000000  -0.000000
    18  H    0.000003  -0.000010
    19  H   -0.000000   0.000000
    20  H    0.000000  -0.000001
    21  H    0.000007  -0.000006
    22  H    0.000001  -0.000008
    23  H   -0.000002  -0.000015
    24  H    0.000153  -0.004781
    25  H   -0.000070   0.000357
    26  H    0.000156  -0.001794
    27  H   -0.000265  -0.000568
    28  H   -0.005587   0.006661
    29  H   -0.003704  -0.003767
    30  H   -0.024150  -0.030573
    31  H    0.533559  -0.023808
    32  H   -0.023808   0.544476
 Mulliken charges:
               1
     1  O   -0.407332
     2  C    0.323409
     3  C   -0.339847
     4  C   -0.252628
     5  C   -0.372850
     6  C   -0.280865
     7  C   -0.268981
     8  C   -0.314379
     9  C   -0.232413
    10  C   -0.261672
    11  C   -0.439230
    12  O   -0.323961
    13  H    0.337254
    14  H    0.183663
    15  H    0.172455
    16  H    0.168152
    17  H    0.149146
    18  H    0.197067
    19  H    0.151342
    20  H    0.144387
    21  H    0.146642
    22  H    0.153282
    23  H    0.142906
    24  H    0.152639
    25  H    0.140664
    26  H    0.076809
    27  H    0.157544
    28  H    0.137709
    29  H    0.137057
    30  H    0.140221
    31  H    0.142454
    32  H    0.139358
 Sum of Mulliken charges =  -0.00000
 Mulliken charges with hydrogens summed into heavy atoms:
               1
     1  O   -0.070078
     2  C    0.323409
     3  C    0.016271
     4  C    0.064670
     5  C   -0.024441
     6  C    0.010164
     7  C    0.027206
     8  C   -0.021076
     9  C    0.001939
    10  C    0.013094
    11  C   -0.017197
    12  O   -0.323961
 Electronic spatial extent (au):  <R**2>=           2725.8054
 Charge=             -0.0000 electrons
 Dipole moment (field-independent basis, Debye):
    X=             -0.3209    Y=              0.4129    Z=             -1.3444  Tot=              1.4426
 Quadrupole moment (field-independent basis, Debye-Ang):
   XX=            -77.3527   YY=            -74.0646   ZZ=            -81.4040
   XY=              2.5966   XZ=             -5.3988   YZ=              0.6253
 Traceless Quadrupole moment (field-independent basis, Debye-Ang):
   XX=              0.2544   YY=              3.5425   ZZ=             -3.7969
   XY=              2.5966   XZ=             -5.3988   YZ=              0.6253
 Octapole moment (field-independent basis, Debye-Ang**2):
  XXX=             18.4712  YYY=            -32.2201  ZZZ=             -1.7495  XYY=              2.3627
  XXY=              1.4103  XXZ=            -11.8101  XZZ=             -1.2052  YZZ=              3.9115
  YYZ=              3.1908  XYZ=              6.9819
 Hexadecapole moment (field-independent basis, Debye-Ang**3):
 XXXX=          -2013.6893 YYYY=          -1234.0442 ZZZZ=           -351.2089 XXXY=            -15.6016
 XXXZ=            -32.3836 YYYX=            -14.7231 YYYZ=            -18.7180 ZZZX=             -5.8052
 ZZZY=              3.5237 XXYY=           -564.8804 XXZZ=           -409.3182 YYZZ=           -292.3394
 XXYZ=             17.1586 YYXZ=             -5.5080 ZZXY=              3.6303
 N-N= 7.615657072625D+02 E-N=-2.788024723435D+03  KE= 5.405722681692D+02
 Unable to Open any file for archive entry.
 1\1\GINC-NOTCH078\SP\RM062X\def2TZVP\C10H20O2\U6032257\05-Feb-2022\0\\
 # M062X/def2tzvp int=(grid=ultrafine) nmr=giao guess=read geom=check\\
 Ac1.xyz\\0,1\O,0,4.7556835659,-0.3818909873,-2.2413785892\C,0,4.789782
 7552,-1.2051943774,-1.1607850935\C,0,3.6393781733,-0.9477261172,-0.213
 3882104\C,0,3.1801057892,-2.2261629131,0.5010670425\C,0,2.6226251879,-
 3.2955482147,-0.4482598089\C,0,1.3095460867,-2.9033560889,-1.141782892
 9\C,0,0.89852863,-3.8445330009,-2.2931131398\C,0,1.3519099609,-3.37036
 16244,-3.6833990748\C,0,2.868996221,-3.2559035941,-3.866947723\C,0,3.2
 986675211,-2.7700890589,-5.2583023706\C,0,2.9327346455,-1.3077646835,-
 5.5334626628\O,0,5.6642593436,-2.0287827023,-1.0056719536\H,0,5.535857
 1319,-0.6091034732,-2.7757521419\H,0,2.8293817499,-0.4628331934,-0.762
 8685283\H,0,3.9967958365,-0.2148740665,0.5215013406\H,0,4.0354239415,-
 2.6386063333,1.0448533377\H,0,2.4229879667,-1.954352543,1.246582294\H,
 0,3.3894094785,-3.5383616518,-1.1900339779\H,0,2.4556175239,-4.2202091
 75,0.1179410065\H,0,0.5177432794,-2.8720787029,-0.3829169222\H,0,1.378
 9063539,-1.8822734421,-1.5387872916\H,0,1.289712972,-4.8528209464,-2.0
 99661756\H,0,-0.1931853358,-3.9431368893,-2.3101357553\H,0,0.885079657
 ,-2.3967886539,-3.8815912878\H,0,0.9555374046,-4.0575847213,-4.4432402
 377\H,0,3.2799503834,-2.5618566386,-3.1261995535\H,0,3.3271327862,-4.2
 325444128,-3.6626943959\H,0,4.3855799986,-2.8891282754,-5.3516777944\H
 ,0,2.8550052494,-3.4159515068,-6.0279412536\H,0,3.3473154258,-0.653556
 6718,-4.7578946459\H,0,3.3216650259,-0.9751556343,-6.5011655092\H,0,1.
 8490652904,-1.1554697057,-5.5462924507\\Version=ES64L-G16RevC.01\State
 =1-A\HF=-543.5402516\RMSD=9.797e-10\Dipole=-0.4693507,0.3170721,-0.035
 794\Quadrupole=-2.40927,0.2315554,2.1777146,2.5191846,-3.6971723,1.486
 2495\PG=C01 [X(C10H20O2)]\\@
 The archive entry for this job was punched.


 IN NATURE THERE ARE NEITHER REWARDS OR
 PUNISHMENTS -- THERE ARE CONSEQUENCES.

                            -- ROBERT GREEN INGERSOLL
 Job cpu time:       0 days  0 hours 43 minutes 42.8 seconds.
 Elapsed time:       0 days  0 hours  1 minutes 33.8 seconds.
 File lengths (MBytes):  RWF=    140 Int=      0 D2E=      0 Chk=     24 Scr=      1
 Normal termination of Gaussian 16 at Sat Feb  5 09:05:24 2022.
