 Entering Gaussian System, Link 0=/uufs/chpc.utah.edu/sys/installdir/gaussian16/C01/AVX2/g16/g16
 Input=Ac1_clust-25.com
 Output=Ac1_clust-25.log
 Initial command:
 /uufs/chpc.utah.edu/sys/installdir/gaussian16/C01/AVX2/g16/l1.exe "/scratch/general/lustre/u6032257/3857481/notchpeak.peaks/Gau-247059.inp" -scrdir="/scratch/general/lustre/u6032257/3857481/notchpeak.peaks/"
 Entering Link 1 = /uufs/chpc.utah.edu/sys/installdir/gaussian16/C01/AVX2/g16/l1.exe PID=    247061.
  
 Copyright (c) 1988-2019, Gaussian, Inc.  All Rights Reserved.
  
 This is part of the Gaussian(R) 16 program.  It is based on
 the Gaussian(R) 09 system (copyright 2009, Gaussian, Inc.),
 the Gaussian(R) 03 system (copyright 2003, Gaussian, Inc.),
 the Gaussian(R) 98 system (copyright 1998, Gaussian, Inc.),
 the Gaussian(R) 94 system (copyright 1995, Gaussian, Inc.),
 the Gaussian 92(TM) system (copyright 1992, Gaussian, Inc.),
 the Gaussian 90(TM) system (copyright 1990, Gaussian, Inc.),
 the Gaussian 88(TM) system (copyright 1988, Gaussian, Inc.),
 the Gaussian 86(TM) system (copyright 1986, Carnegie Mellon
 University), and the Gaussian 82(TM) system (copyright 1983,
 Carnegie Mellon University). Gaussian is a federally registered
 trademark of Gaussian, Inc.
  
 This software contains proprietary and confidential information,
 including trade secrets, belonging to Gaussian, Inc.
  
 This software is provided under written license and may be
 used, copied, transmitted, or stored only in accord with that
 written license.
  
 The following legend is applicable only to US Government
 contracts under FAR:
  
                    RESTRICTED RIGHTS LEGEND
  
 Use, reproduction and disclosure by the US Government is
 subject to restrictions as set forth in subparagraphs (a)
 and (c) of the Commercial Computer Software - Restricted
 Rights clause in FAR 52.227-19.
  
 Gaussian, Inc.
 340 Quinnipiac St., Bldg. 40, Wallingford CT 06492
  
  
 ---------------------------------------------------------------
 Warning -- This program may not be used in any manner that
 competes with the business of Gaussian, Inc. or will provide
 assistance to any competitor of Gaussian, Inc.  The licensee
 of this program is prohibited from giving any competitor of
 Gaussian, Inc. access to this program.  By using this program,
 the user acknowledges that Gaussian, Inc. is engaged in the
 business of creating and licensing software in the field of
 computational chemistry and represents and warrants to the
 licensee that it is not a competitor of Gaussian, Inc. and that
 it will not use this program in any manner prohibited above.
 ---------------------------------------------------------------
  

 Cite this work as:
 Gaussian 16, Revision C.01,
 M. J. Frisch, G. W. Trucks, H. B. Schlegel, G. E. Scuseria, 
 M. A. Robb, J. R. Cheeseman, G. Scalmani, V. Barone, 
 G. A. Petersson, H. Nakatsuji, X. Li, M. Caricato, A. V. Marenich, 
 J. Bloino, B. G. Janesko, R. Gomperts, B. Mennucci, H. P. Hratchian, 
 J. V. Ortiz, A. F. Izmaylov, J. L. Sonnenberg, D. Williams-Young, 
 F. Ding, F. Lipparini, F. Egidi, J. Goings, B. Peng, A. Petrone, 
 T. Henderson, D. Ranasinghe, V. G. Zakrzewski, J. Gao, N. Rega, 
 G. Zheng, W. Liang, M. Hada, M. Ehara, K. Toyota, R. Fukuda, 
 J. Hasegawa, M. Ishida, T. Nakajima, Y. Honda, O. Kitao, H. Nakai, 
 T. Vreven, K. Throssell, J. A. Montgomery, Jr., J. E. Peralta, 
 F. Ogliaro, M. J. Bearpark, J. J. Heyd, E. N. Brothers, K. N. Kudin, 
 V. N. Staroverov, T. A. Keith, R. Kobayashi, J. Normand, 
 K. Raghavachari, A. P. Rendell, J. C. Burant, S. S. Iyengar, 
 J. Tomasi, M. Cossi, J. M. Millam, M. Klene, C. Adamo, R. Cammi, 
 J. W. Ochterski, R. L. Martin, K. Morokuma, O. Farkas, 
 J. B. Foresman, and D. J. Fox, Gaussian, Inc., Wallingford CT, 2019.
 
 ******************************************
 Gaussian 16:  ES64L-G16RevC.01  3-Jul-2019
                 3-Feb-2022 
 ******************************************
 %NProcShared=32
 Will use up to   32 processors via shared memory.
 %mem=16GB
 %chk=Ac1_clust-25.chk
 ----------------------------------------------------------------------
 # B3LYP/6-31G(d,p) empiricaldispersion=GD3BJ int=(grid=ultrafine) opt 
 freq=noraman
 ----------------------------------------------------------------------
 1/18=20,19=15,26=4,38=1/1,3;
 2/9=110,12=2,17=6,18=5,40=1/2;
 3/5=1,6=6,7=101,11=2,25=1,30=1,71=1,74=-5,75=-5,124=41/1,2,3;
 4//1;
 5/5=2,38=5/2;
 6/7=2,8=2,9=2,10=2,28=1/1;
 7//1,2,3,16;
 1/18=20,19=15,26=4/3(2);
 2/9=110/2;
 99//99;
 2/9=110/2;
 3/5=1,6=6,7=101,11=2,25=1,30=1,71=1,74=-5,75=-5,124=41/1,2,3;
 4/5=5,16=3,69=1/1;
 5/5=2,38=5/2;
 7//1,2,3,16;
 1/18=20,19=15,26=4/3(-5);
 2/9=110/2;
 6/7=2,8=2,9=2,10=2,19=2,28=1/1;
 99/9=1/99;
 -------
 Ac1.xyz
 -------
 Symbolic Z-matrix:
 Charge =  0 Multiplicity = 1
 O                     6.5397   -0.5183    0.2106 
 C                     5.196    -0.6155    0.1281 
 C                     4.7369   -2.073     0.0692 
 C                     3.2293   -2.2899   -0.2153 
 C                     2.8018   -1.9281   -1.652 
 C                     1.3064   -2.1978   -1.9124 
 C                     0.8466   -1.8705   -3.3506 
 C                     0.8384   -3.0607   -4.3342 
 C                     2.2184   -3.6927   -4.6044 
 C                     2.2055   -4.8081   -5.6678 
 C                     1.9056   -4.3167   -7.0932 
 O                     4.4555    0.3579    0.1231 
 H                     6.7025    0.4248    0.2471 
 H                     4.982    -2.5029    1.0398 
 H                     5.3399   -2.602    -0.6687 
 H                     2.9892   -3.3391   -0.0333 
 H                     2.6298   -1.7252    0.5028 
 H                     3.0085   -0.8732   -1.8411 
 H                     3.4172   -2.4815   -2.3601 
 H                     1.0567   -3.2315   -1.667 
 H                     0.7282   -1.5871   -1.2164 
 H                    -0.1723   -1.4822   -3.3007 
 H                     1.4385   -1.0503   -3.761 
 H                     0.4113   -2.7108   -5.2745 
 H                     0.1541   -3.8282   -3.9688 
 H                     2.9312   -2.9188   -4.8944 
 H                     2.5977   -4.1209   -3.6761 
 H                     3.1792   -5.3011   -5.669 
 H                     1.4855   -5.5785   -5.3863 
 H                     0.8969   -3.9129   -7.1793 
 H                     1.9881   -5.134    -7.8105 
 H                     2.6054   -3.5386   -7.4003 
 

 GradGradGradGradGradGradGradGradGradGradGradGradGradGradGradGradGradGrad
 Berny optimization.
 Initialization pass.
                           ----------------------------
                           !    Initial Parameters    !
                           ! (Angstroms and Degrees)  !
 --------------------------                            --------------------------
 ! Name  Definition              Value          Derivative Info.                !
 --------------------------------------------------------------------------------
 ! R1    R(1,2)                  1.3497         estimate D2E/DX2                !
 ! R2    R(1,13)                 0.9577         estimate D2E/DX2                !
 ! R3    R(2,3)                  1.5292         estimate D2E/DX2                !
 ! R4    R(2,12)                 1.2231         estimate D2E/DX2                !
 ! R5    R(3,4)                  1.5495         estimate D2E/DX2                !
 ! R6    R(3,14)                 1.0895         estimate D2E/DX2                !
 ! R7    R(3,15)                 1.0899         estimate D2E/DX2                !
 ! R8    R(4,5)                  1.542          estimate D2E/DX2                !
 ! R9    R(4,16)                 1.0916         estimate D2E/DX2                !
 ! R10   R(4,17)                 1.0927         estimate D2E/DX2                !
 ! R11   R(5,6)                  1.5417         estimate D2E/DX2                !
 ! R12   R(5,18)                 1.0915         estimate D2E/DX2                !
 ! R13   R(5,19)                 1.0892         estimate D2E/DX2                !
 ! R14   R(6,7)                  1.545          estimate D2E/DX2                !
 ! R15   R(6,20)                 1.0914         estimate D2E/DX2                !
 ! R16   R(6,21)                 1.0916         estimate D2E/DX2                !
 ! R17   R(7,8)                  1.5441         estimate D2E/DX2                !
 ! R18   R(7,22)                 1.0915         estimate D2E/DX2                !
 ! R19   R(7,23)                 1.0916         estimate D2E/DX2                !
 ! R20   R(8,9)                  1.5417         estimate D2E/DX2                !
 ! R21   R(8,24)                 1.0904         estimate D2E/DX2                !
 ! R22   R(8,25)                 1.0913         estimate D2E/DX2                !
 ! R23   R(9,10)                 1.5411         estimate D2E/DX2                !
 ! R24   R(9,26)                 1.0914         estimate D2E/DX2                !
 ! R25   R(9,27)                 1.0904         estimate D2E/DX2                !
 ! R26   R(10,11)                1.5373         estimate D2E/DX2                !
 ! R27   R(10,28)                1.0914         estimate D2E/DX2                !
 ! R28   R(10,29)                1.0914         estimate D2E/DX2                !
 ! R29   R(11,30)                1.0899         estimate D2E/DX2                !
 ! R30   R(11,31)                1.0906         estimate D2E/DX2                !
 ! R31   R(11,32)                1.0906         estimate D2E/DX2                !
 ! A1    A(2,1,13)             104.0321         estimate D2E/DX2                !
 ! A2    A(1,2,3)              111.7073         estimate D2E/DX2                !
 ! A3    A(1,2,12)             123.071          estimate D2E/DX2                !
 ! A4    A(3,2,12)             125.2131         estimate D2E/DX2                !
 ! A5    A(2,3,4)              115.6323         estimate D2E/DX2                !
 ! A6    A(2,3,14)             105.9162         estimate D2E/DX2                !
 ! A7    A(2,3,15)             108.8183         estimate D2E/DX2                !
 ! A8    A(4,3,14)             109.1009         estimate D2E/DX2                !
 ! A9    A(4,3,15)             110.2458         estimate D2E/DX2                !
 ! A10   A(14,3,15)            106.6883         estimate D2E/DX2                !
 ! A11   A(3,4,5)              114.0777         estimate D2E/DX2                !
 ! A12   A(3,4,16)             108.5385         estimate D2E/DX2                !
 ! A13   A(3,4,17)             109.9265         estimate D2E/DX2                !
 ! A14   A(5,4,16)             108.6557         estimate D2E/DX2                !
 ! A15   A(5,4,17)             109.8128         estimate D2E/DX2                !
 ! A16   A(16,4,17)            105.4549         estimate D2E/DX2                !
 ! A17   A(4,5,6)              112.6588         estimate D2E/DX2                !
 ! A18   A(4,5,18)             109.6145         estimate D2E/DX2                !
 ! A19   A(4,5,19)             109.2604         estimate D2E/DX2                !
 ! A20   A(6,5,18)             108.8752         estimate D2E/DX2                !
 ! A21   A(6,5,19)             110.4475         estimate D2E/DX2                !
 ! A22   A(18,5,19)            105.749          estimate D2E/DX2                !
 ! A23   A(5,6,7)              114.1325         estimate D2E/DX2                !
 ! A24   A(5,6,20)             110.4653         estimate D2E/DX2                !
 ! A25   A(5,6,21)             107.951          estimate D2E/DX2                !
 ! A26   A(7,6,20)             109.9911         estimate D2E/DX2                !
 ! A27   A(7,6,21)             108.5033         estimate D2E/DX2                !
 ! A28   A(20,6,21)            105.3862         estimate D2E/DX2                !
 ! A29   A(6,7,8)              115.5488         estimate D2E/DX2                !
 ! A30   A(6,7,22)             108.0963         estimate D2E/DX2                !
 ! A31   A(6,7,23)             110.3525         estimate D2E/DX2                !
 ! A32   A(8,7,22)             107.3603         estimate D2E/DX2                !
 ! A33   A(8,7,23)             110.0338         estimate D2E/DX2                !
 ! A34   A(22,7,23)            104.8362         estimate D2E/DX2                !
 ! A35   A(7,8,9)              115.0167         estimate D2E/DX2                !
 ! A36   A(7,8,24)             107.7014         estimate D2E/DX2                !
 ! A37   A(7,8,25)             109.4001         estimate D2E/DX2                !
 ! A38   A(9,8,24)             109.3303         estimate D2E/DX2                !
 ! A39   A(9,8,25)             109.3704         estimate D2E/DX2                !
 ! A40   A(24,8,25)            105.5938         estimate D2E/DX2                !
 ! A41   A(8,9,10)             114.2132         estimate D2E/DX2                !
 ! A42   A(8,9,26)             109.9074         estimate D2E/DX2                !
 ! A43   A(8,9,27)             108.8533         estimate D2E/DX2                !
 ! A44   A(10,9,26)            109.5928         estimate D2E/DX2                !
 ! A45   A(10,9,27)            107.826          estimate D2E/DX2                !
 ! A46   A(26,9,27)            106.1106         estimate D2E/DX2                !
 ! A47   A(9,10,11)            114.2098         estimate D2E/DX2                !
 ! A48   A(9,10,28)            108.6763         estimate D2E/DX2                !
 ! A49   A(9,10,29)            109.7815         estimate D2E/DX2                !
 ! A50   A(11,10,28)           108.5072         estimate D2E/DX2                !
 ! A51   A(11,10,29)           109.6393         estimate D2E/DX2                !
 ! A52   A(28,10,29)           105.6635         estimate D2E/DX2                !
 ! A53   A(10,11,30)           111.8528         estimate D2E/DX2                !
 ! A54   A(10,11,31)           110.8275         estimate D2E/DX2                !
 ! A55   A(10,11,32)           111.3443         estimate D2E/DX2                !
 ! A56   A(30,11,31)           107.1999         estimate D2E/DX2                !
 ! A57   A(30,11,32)           107.8946         estimate D2E/DX2                !
 ! A58   A(31,11,32)           107.5136         estimate D2E/DX2                !
 ! D1    D(13,1,2,3)          -179.6048         estimate D2E/DX2                !
 ! D2    D(13,1,2,12)           -0.6269         estimate D2E/DX2                !
 ! D3    D(1,2,3,4)           -172.215          estimate D2E/DX2                !
 ! D4    D(1,2,3,14)            66.8379         estimate D2E/DX2                !
 ! D5    D(1,2,3,15)           -47.5338         estimate D2E/DX2                !
 ! D6    D(12,2,3,4)             8.8334         estimate D2E/DX2                !
 ! D7    D(12,2,3,14)         -112.1137         estimate D2E/DX2                !
 ! D8    D(12,2,3,15)          133.5146         estimate D2E/DX2                !
 ! D9    D(2,3,4,5)             70.0397         estimate D2E/DX2                !
 ! D10   D(2,3,4,16)          -168.669          estimate D2E/DX2                !
 ! D11   D(2,3,4,17)           -53.8009         estimate D2E/DX2                !
 ! D12   D(14,3,4,5)          -170.748          estimate D2E/DX2                !
 ! D13   D(14,3,4,16)          -49.4567         estimate D2E/DX2                !
 ! D14   D(14,3,4,17)           65.4113         estimate D2E/DX2                !
 ! D15   D(15,3,4,5)           -53.8993         estimate D2E/DX2                !
 ! D16   D(15,3,4,16)           67.392          estimate D2E/DX2                !
 ! D17   D(15,3,4,17)         -177.74           estimate D2E/DX2                !
 ! D18   D(3,4,5,6)            178.1975         estimate D2E/DX2                !
 ! D19   D(3,4,5,18)           -60.4077         estimate D2E/DX2                !
 ! D20   D(3,4,5,19)            55.044          estimate D2E/DX2                !
 ! D21   D(16,4,5,6)            56.9711         estimate D2E/DX2                !
 ! D22   D(16,4,5,18)          178.366          estimate D2E/DX2                !
 ! D23   D(16,4,5,19)          -66.1824         estimate D2E/DX2                !
 ! D24   D(17,4,5,6)           -57.9007         estimate D2E/DX2                !
 ! D25   D(17,4,5,18)           63.4942         estimate D2E/DX2                !
 ! D26   D(17,4,5,19)          178.9458         estimate D2E/DX2                !
 ! D27   D(4,5,6,7)           -178.9681         estimate D2E/DX2                !
 ! D28   D(4,5,6,20)           -54.4238         estimate D2E/DX2                !
 ! D29   D(4,5,6,21)            60.3222         estimate D2E/DX2                !
 ! D30   D(18,5,6,7)            59.2176         estimate D2E/DX2                !
 ! D31   D(18,5,6,20)         -176.2381         estimate D2E/DX2                !
 ! D32   D(18,5,6,21)          -61.4921         estimate D2E/DX2                !
 ! D33   D(19,5,6,7)           -56.4792         estimate D2E/DX2                !
 ! D34   D(19,5,6,20)           68.0651         estimate D2E/DX2                !
 ! D35   D(19,5,6,21)         -177.1889         estimate D2E/DX2                !
 ! D36   D(5,6,7,8)             94.9656         estimate D2E/DX2                !
 ! D37   D(5,6,7,22)          -144.7605         estimate D2E/DX2                !
 ! D38   D(5,6,7,23)           -30.6475         estimate D2E/DX2                !
 ! D39   D(20,6,7,8)           -29.8313         estimate D2E/DX2                !
 ! D40   D(20,6,7,22)           90.4426         estimate D2E/DX2                !
 ! D41   D(20,6,7,23)         -155.4444         estimate D2E/DX2                !
 ! D42   D(21,6,7,8)          -144.6327         estimate D2E/DX2                !
 ! D43   D(21,6,7,22)          -24.3588         estimate D2E/DX2                !
 ! D44   D(21,6,7,23)           89.7542         estimate D2E/DX2                !
 ! D45   D(6,7,8,9)            -62.8978         estimate D2E/DX2                !
 ! D46   D(6,7,8,24)           174.9357         estimate D2E/DX2                !
 ! D47   D(6,7,8,25)            60.6329         estimate D2E/DX2                !
 ! D48   D(22,7,8,9)           176.4285         estimate D2E/DX2                !
 ! D49   D(22,7,8,24)           54.262          estimate D2E/DX2                !
 ! D50   D(22,7,8,25)          -60.0408         estimate D2E/DX2                !
 ! D51   D(23,7,8,9)            62.8785         estimate D2E/DX2                !
 ! D52   D(23,7,8,24)          -59.2881         estimate D2E/DX2                !
 ! D53   D(23,7,8,25)         -173.5908         estimate D2E/DX2                !
 ! D54   D(7,8,9,10)          -175.6159         estimate D2E/DX2                !
 ! D55   D(7,8,9,26)           -51.9811         estimate D2E/DX2                !
 ! D56   D(7,8,9,27)            63.8373         estimate D2E/DX2                !
 ! D57   D(24,8,9,10)          -54.3319         estimate D2E/DX2                !
 ! D58   D(24,8,9,26)           69.303          estimate D2E/DX2                !
 ! D59   D(24,8,9,27)         -174.8787         estimate D2E/DX2                !
 ! D60   D(25,8,9,10)           60.8376         estimate D2E/DX2                !
 ! D61   D(25,8,9,26)         -175.5275         estimate D2E/DX2                !
 ! D62   D(25,8,9,27)          -59.7092         estimate D2E/DX2                !
 ! D63   D(8,9,10,11)           68.0192         estimate D2E/DX2                !
 ! D64   D(8,9,10,28)         -170.6914         estimate D2E/DX2                !
 ! D65   D(8,9,10,29)          -55.5764         estimate D2E/DX2                !
 ! D66   D(26,9,10,11)         -55.7849         estimate D2E/DX2                !
 ! D67   D(26,9,10,28)          65.5044         estimate D2E/DX2                !
 ! D68   D(26,9,10,29)        -179.3806         estimate D2E/DX2                !
 ! D69   D(27,9,10,11)        -170.8635         estimate D2E/DX2                !
 ! D70   D(27,9,10,28)         -49.5741         estimate D2E/DX2                !
 ! D71   D(27,9,10,29)          65.5409         estimate D2E/DX2                !
 ! D72   D(9,10,11,30)         -64.9423         estimate D2E/DX2                !
 ! D73   D(9,10,11,31)         175.491          estimate D2E/DX2                !
 ! D74   D(9,10,11,32)          55.8649         estimate D2E/DX2                !
 ! D75   D(28,10,11,30)        173.6749         estimate D2E/DX2                !
 ! D76   D(28,10,11,31)         54.1083         estimate D2E/DX2                !
 ! D77   D(28,10,11,32)        -65.5178         estimate D2E/DX2                !
 ! D78   D(29,10,11,30)         58.7298         estimate D2E/DX2                !
 ! D79   D(29,10,11,31)        -60.8368         estimate D2E/DX2                !
 ! D80   D(29,10,11,32)        179.5371         estimate D2E/DX2                !
 --------------------------------------------------------------------------------
 Trust Radius=3.00D-01 FncErr=1.00D-07 GrdErr=1.00D-06 EigMax=2.50D+02 EigMin=1.00D-04
 Number of steps in this run=    179 maximum allowed number of steps=    192.
 GradGradGradGradGradGradGradGradGradGradGradGradGradGradGradGradGradGrad

                          Input orientation:                          
 ---------------------------------------------------------------------
 Center     Atomic      Atomic             Coordinates (Angstroms)
 Number     Number       Type             X           Y           Z
 ---------------------------------------------------------------------
      1          8           0        6.539700   -0.518300    0.210600
      2          6           0        5.196000   -0.615500    0.128100
      3          6           0        4.736900   -2.073000    0.069200
      4          6           0        3.229300   -2.289900   -0.215300
      5          6           0        2.801800   -1.928100   -1.652000
      6          6           0        1.306400   -2.197800   -1.912400
      7          6           0        0.846600   -1.870500   -3.350600
      8          6           0        0.838400   -3.060700   -4.334200
      9          6           0        2.218400   -3.692700   -4.604400
     10          6           0        2.205500   -4.808100   -5.667800
     11          6           0        1.905600   -4.316700   -7.093200
     12          8           0        4.455500    0.357900    0.123100
     13          1           0        6.702500    0.424800    0.247100
     14          1           0        4.982000   -2.502900    1.039800
     15          1           0        5.339900   -2.602000   -0.668700
     16          1           0        2.989200   -3.339100   -0.033300
     17          1           0        2.629800   -1.725200    0.502800
     18          1           0        3.008500   -0.873200   -1.841100
     19          1           0        3.417200   -2.481500   -2.360100
     20          1           0        1.056700   -3.231500   -1.667000
     21          1           0        0.728200   -1.587100   -1.216400
     22          1           0       -0.172300   -1.482200   -3.300700
     23          1           0        1.438500   -1.050300   -3.761000
     24          1           0        0.411300   -2.710800   -5.274500
     25          1           0        0.154100   -3.828200   -3.968800
     26          1           0        2.931200   -2.918800   -4.894400
     27          1           0        2.597700   -4.120900   -3.676100
     28          1           0        3.179200   -5.301100   -5.669000
     29          1           0        1.485500   -5.578500   -5.386300
     30          1           0        0.896900   -3.912900   -7.179300
     31          1           0        1.988100   -5.134000   -7.810500
     32          1           0        2.605400   -3.538600   -7.400300
 ---------------------------------------------------------------------
                    Distance matrix (angstroms):
                    1          2          3          4          5
     1  O    0.000000
     2  C    1.349735   0.000000
     3  C    2.384780   1.529231   0.000000
     4  C    3.778717   2.605657   1.549466   0.000000
     5  C    4.407801   3.259428   2.593865   1.541999   0.000000
     6  C    5.891967   4.668651   3.963665   2.566354   1.541677
     7  C    6.849962   5.709086   5.183674   3.960210   2.590631
     8  C    7.721647   6.699239   5.963538   4.824508   3.511683
     9  C    7.206572   6.382148   5.550568   4.717411   3.488672
    10  C    8.470139   7.753286   6.841193   6.092557   4.977612
    11  C    9.447128   8.756300   8.021872   7.291475   6.009596
    12  O    2.262581   1.223059   2.447727   2.937503   3.333392
    13  H    0.957744   1.834646   3.183432   4.432440   4.935401
    14  H    2.655681   2.106958   1.089473   2.166242   3.511332
    15  H    2.560175   2.145176   1.089930   2.181195   2.804099
    16  H    4.541195   3.509133   2.160549   1.091601   2.155511
    17  H    4.102354   2.820854   2.179184   1.092682   2.171155
    18  H    4.099366   2.954541   2.841854   2.167722   1.091466
    19  H    4.495849   3.582907   2.794634   2.161524   1.089208
    20  H    6.399228   5.215328   4.230885   2.777451   2.178176
    21  H    6.078832   4.765808   4.237752   2.784175   2.146123
    22  H    7.636051   6.428568   5.983771   4.662934   3.429622
    23  H    6.486823   5.425215   5.157111   4.161197   2.660263
    24  H    8.511796   7.514767   6.904544   5.806357   4.410172
    25  H    8.318576   7.247537   6.355173   5.090382   3.998532
    26  H    6.696618   5.971601   5.349136   4.730577   3.392844
    27  H    6.604887   5.788863   4.774656   3.965932   2.991155
    28  H    8.290828   7.721962   6.765648   6.229982   5.258883
    29  H    9.081622   8.295046   7.254145   6.371418   5.385449
    30  H    9.898238   9.096879   8.406639   7.521404   6.174068
    31  H   10.313088   9.681365   8.889055   8.204666   6.990495
    32  H    9.084422   8.481305   7.904727   7.319339   5.972875
                    6          7          8          9         10
     6  C    0.000000
     7  C    1.544979   0.000000
     8  C    2.613185   1.544057   0.000000
     9  C    3.211438   2.602741   1.541698   0.000000
    10  C    4.661017   3.980643   2.588602   1.541137   0.000000
    11  C    5.629340   4.594826   3.213803   2.584830   1.537264
    12  O    4.537807   5.482382   6.681150   6.615227   8.079887
    13  H    6.376470   7.245924   8.217341   7.784472   9.088030
    14  H    4.724257   6.064411   6.808850   6.396101   7.616745
    15  H    4.240199   5.283694   5.823212   5.140343   6.299392
    16  H    2.768646   4.213312   4.816761   4.649099   5.875350
    17  H    2.794267   4.248483   5.328156   5.488515   6.910905
    18  H    2.157960   2.819044   3.963589   4.026123   5.547241
    19  H    2.176327   2.821772   3.298902   2.817980   4.221630
    20  H    1.091378   2.175080   2.681564   3.192267   4.451046
    21  H    1.091644   2.156187   3.450263   4.258262   5.689659
    22  H    2.150817   1.091524   2.140397   3.507334   4.724268
    23  H    2.179800   1.091559   2.174945   2.881292   4.283134
    24  H    3.516829   2.144057   1.090417   2.163047   2.787921
    25  H    2.866144   2.166637   1.091256   2.164182   2.838141
    26  H    3.471619   2.797822   2.171122   1.091378   2.166620
    27  H    2.911427   2.869948   2.156909   1.090397   2.143113
    28  H    5.220143   4.752370   3.504344   2.154869   1.091395
    29  H    4.850690   4.278029   2.804455   2.169044   1.091402
    30  H    5.554232   4.339686   2.970566   2.902578   2.190536
    31  H    6.623713   5.643063   4.207736   3.522706   2.178219
    32  H    5.796740   4.719746   3.570945   2.826760   2.184744
                   11         12         13         14         15
    11  C    0.000000
    12  O    8.968214   0.000000
    13  H    9.968554   2.251413   0.000000
    14  H    8.882556   3.049872   3.487108   0.000000
    15  H    7.483904   3.189062   3.443383   1.748395   0.000000
    16  H    7.209166   3.980239   5.294730   2.412887   2.544178
    17  H    8.058508   2.795829   4.612458   2.534962   3.079908
    18  H    6.376412   2.732672   4.437456   3.853597   3.130287
    19  H    5.296709   3.912358   5.102673   3.742777   2.563616
    20  H    5.598387   5.257385   6.993380   4.823443   4.442823
    21  H    6.585876   4.412488   6.471618   4.901422   4.753712
    22  H    5.170601   6.043584   7.967836   6.815319   6.210131
    23  H    4.689468   5.115814   6.778678   6.141182   5.214500
    24  H    2.849477   7.409896   8.938638   7.797750   6.746579
    25  H    3.615005   7.264236   8.873746   7.081745   6.267914
    26  H    2.800125   6.183491   7.199819   6.292335   4.874294
    27  H    3.491978   6.159951   7.273532   5.526529   4.344096
    28  H    2.149290   8.197661   8.955435   7.489193   6.079208
    29  H    2.163823   8.626426   9.746379   7.935968   6.780243
    30  H    1.089928   9.177604  10.376514   9.285997   7.990408
    31  H    1.090553   9.959470  10.865116   9.706386   8.285584
    32  H    1.090628   8.672204   9.538212   8.829280   7.325923
                   16         17         18         19         20
    16  H    0.000000
    17  H    1.738173   0.000000
    18  H    3.057642   2.522535   0.000000
    19  H    2.516478   3.064015   1.738685   0.000000
    20  H    2.532807   3.074348   3.066172   2.571935   0.000000
    21  H    3.095376   2.567256   2.469751   3.055932   1.736377
    22  H    4.911116   4.730478   3.552295   3.842895   2.690626
    23  H    4.641015   4.478245   2.486419   2.815334   3.047662
    24  H    5.874564   6.266606   4.680861   4.193059   3.701584
    25  H    4.874953   5.526926   4.626741   3.879348   2.543427
    26  H    4.879581   5.535819   3.676016   2.617270   3.745349
    27  H    3.746262   4.817013   3.752804   2.256340   2.683691
    28  H    5.970482   7.154021   5.855617   4.353804   4.980387
    29  H    5.994217   7.130136   6.085049   4.741388   4.418764
    30  H    7.468084   8.173349   6.495769   5.623656   5.556554
    31  H    8.044172   9.007922   7.404686   6.227756   6.498431
    32  H    7.379688   8.108514   6.178313   5.213453   5.946723
                   21         22         23         24         25
    21  H    0.000000
    22  H    2.272930   0.000000
    23  H    2.695862   1.730055   0.000000
    24  H    4.222713   2.397068   2.470442   0.000000
    25  H    3.595529   2.461018   3.067506   1.737696   0.000000
    26  H    4.489356   3.772984   2.646515   2.556880   3.065294
    27  H    3.995660   3.844030   3.283221   3.053459   2.478412
    28  H    6.294986   5.605836   4.973912   3.811372   3.769794
    29  H    5.821756   4.886482   4.811279   3.064328   2.616387
    30  H    6.402654   4.700535   4.491390   2.304152   3.296397
    31  H    7.592760   6.192033   5.777293   3.845711   4.452789
    32  H    6.750767   5.362007   4.560460   3.165178   4.227048
                   26         27         28         29         30
    26  H    0.000000
    27  H    1.743709   0.000000
    28  H    2.517313   2.388025   0.000000
    29  H    3.066923   2.507264   1.739393   0.000000
    30  H    3.216734   3.899794   3.068713   2.517046   0.000000
    31  H    3.781559   4.300145   2.456148   2.515339   1.755054
    32  H    2.601890   3.769456   2.536346   3.077591   1.762928
                   31         32
    31  H    0.000000
    32  H    1.759154   0.000000
 Stoichiometry    C10H20O2
 Framework group  C1[X(C10H20O2)]
 Deg. of freedom    90
 Full point group                 C1      NOp   1
 Largest Abelian subgroup         C1      NOp   1
 Largest concise Abelian subgroup C1      NOp   1
                         Standard orientation:                         
 ---------------------------------------------------------------------
 Center     Atomic      Atomic             Coordinates (Angstroms)
 Number     Number       Type             X           Y           Z
 ---------------------------------------------------------------------
      1          8           0        4.454591   -1.621561   -0.419977
      2          6           0        3.722067   -0.496495   -0.280624
      3          6           0        2.842531   -0.545430    0.969404
      4          6           0        1.825966    0.614267    1.119538
      5          6           0        0.666034    0.569438    0.104496
      6          6           0       -0.348591    1.711609    0.311256
      7          6           0       -1.539428    1.684472   -0.672680
      8          6           0       -2.811977    0.977002   -0.158657
      9          6           0       -2.645999   -0.525941    0.142083
     10          6           0       -3.950831   -1.236476    0.551542
     11          6           0       -4.987346   -1.351201   -0.577906
     12          8           0        3.786305    0.442711   -1.061417
     13          1           0        4.959784   -1.472156   -1.219810
     14          1           0        3.526908   -0.531582    1.816983
     15          1           0        2.326891   -1.505210    0.999124
     16          1           0        1.409038    0.581972    2.127864
     17          1           0        2.343061    1.574253    1.048871
     18          1           0        1.064289    0.630245   -0.909898
     19          1           0        0.168920   -0.397532    0.169461
     20          1           0       -0.714244    1.715703    1.339550
     21          1           0        0.180861    2.658319    0.188348
     22          1           0       -1.811284    2.715874   -0.904471
     23          1           0       -1.232752    1.254796   -1.628102
     24          1           0       -3.591818    1.111002   -0.908924
     25          1           0       -3.174280    1.487164    0.735385
     26          1           0       -2.209198   -1.031573   -0.720847
     27          1           0       -1.931061   -0.645432    0.956668
     28          1           0       -3.706812   -2.241142    0.901176
     29          1           0       -4.396097   -0.726591    1.407646
     30          1           0       -5.353322   -0.374252   -0.893463
     31          1           0       -5.852527   -1.930097   -0.252872
     32          1           0       -4.568090   -1.850425   -1.452246
 ---------------------------------------------------------------------
 Rotational constants (GHZ):           1.5860489           0.2742410           0.2548507
 Standard basis: 6-31G(d,p) (6D, 7F)
 There are   280 symmetry adapted cartesian basis functions of A   symmetry.
 There are   280 symmetry adapted basis functions of A   symmetry.
   280 basis functions,   476 primitive gaussians,   280 cartesian basis functions
    48 alpha electrons       48 beta electrons
       nuclear repulsion energy       702.3420934673 Hartrees.
 NAtoms=   32 NActive=   32 NUniq=   32 SFac= 1.00D+00 NAtFMM=   60 NAOKFM=F Big=F
 Integral buffers will be    131072 words long.
 Raffenetti 2 integral format.
 Two-electron integral symmetry is turned on.
 Nuclear repulsion after empirical dispersion term =      702.2946707451 Hartrees.
 One-electron integrals computed using PRISM.
 NBasis=   280 RedAO= T EigKep=  3.19D-03  NBF=   280
 NBsUse=   280 1.00D-06 EigRej= -1.00D+00 NBFU=   280
 ExpMin= 1.61D-01 ExpMax= 5.48D+03 ExpMxC= 8.25D+02 IAcc=3 IRadAn=         5 AccDes= 0.00D+00
 Harris functional with IExCor=  402 and IRadAn=       5 diagonalized for initial guess.
 HarFok:  IExCor=  402 AccDes= 0.00D+00 IRadAn=         5 IDoV= 1 UseB2=F ITyADJ=14
 ICtDFT=  3500011 ScaDFX=  1.000000  1.000000  1.000000  1.000000
 FoFCou: FMM=F IPFlag=           0 FMFlag=      100000 FMFlg1=           0
         NFxFlg=           0 DoJE=T BraDBF=F KetDBF=T FulRan=T
         wScrn=  0.000000 ICntrl=       500 IOpCl=  0 I1Cent=   200000004 NGrid=           0
         NMat0=    1 NMatS0=      1 NMatT0=    0 NMatD0=    1 NMtDS0=    0 NMtDT0=    0
 Petite list used in FoFCou.
 Requested convergence on RMS density matrix=1.00D-08 within 128 cycles.
 Requested convergence on MAX density matrix=1.00D-06.
 Requested convergence on             energy=1.00D-06.
 No special actions if energy rises.
 Integral accuracy reduced to 1.0D-05 until final iterations.
 Initial convergence to 1.0D-05 achieved.  Increase integral accuracy.
 SCF Done:  E(RB3LYP) =  -543.663023982     A.U. after   13 cycles
            NFock= 13  Conv=0.50D-08     -V/T= 2.0096

 **********************************************************************

            Population analysis using the SCF Density.

 **********************************************************************

 Orbital symmetries:
       Occupied  (A) (A) (A) (A) (A) (A) (A) (A) (A) (A) (A) (A)
                 (A) (A) (A) (A) (A) (A) (A) (A) (A) (A) (A) (A)
                 (A) (A) (A) (A) (A) (A) (A) (A) (A) (A) (A) (A)
                 (A) (A) (A) (A) (A) (A) (A) (A) (A) (A) (A) (A)
       Virtual   (A) (A) (A) (A) (A) (A) (A) (A) (A) (A) (A) (A)
                 (A) (A) (A) (A) (A) (A) (A) (A) (A) (A) (A) (A)
                 (A) (A) (A) (A) (A) (A) (A) (A) (A) (A) (A) (A)
                 (A) (A) (A) (A) (A) (A) (A) (A) (A) (A) (A) (A)
                 (A) (A) (A) (A) (A) (A) (A) (A) (A) (A) (A) (A)
                 (A) (A) (A) (A) (A) (A) (A) (A) (A) (A) (A) (A)
                 (A) (A) (A) (A) (A) (A) (A) (A) (A) (A) (A) (A)
                 (A) (A) (A) (A) (A) (A) (A) (A) (A) (A) (A) (A)
                 (A) (A) (A) (A) (A) (A) (A) (A) (A) (A) (A) (A)
                 (A) (A) (A) (A) (A) (A) (A) (A) (A) (A) (A) (A)
                 (A) (A) (A) (A) (A) (A) (A) (A) (A) (A) (A) (A)
                 (A) (A) (A) (A) (A) (A) (A) (A) (A) (A) (A) (A)
                 (A) (A) (A) (A) (A) (A) (A) (A) (A) (A) (A) (A)
                 (A) (A) (A) (A) (A) (A) (A) (A) (A) (A) (A) (A)
                 (A) (A) (A) (A) (A) (A) (A) (A) (A) (A) (A) (A)
                 (A) (A) (A) (A) (A) (A) (A) (A) (A) (A) (A) (A)
                 (A) (A) (A) (A) (A) (A) (A) (A) (A) (A) (A) (A)
                 (A) (A) (A) (A) (A) (A) (A) (A) (A) (A) (A) (A)
                 (A) (A) (A) (A) (A) (A) (A) (A) (A) (A) (A) (A)
                 (A) (A) (A) (A)
 The electronic state is 1-A.
 Alpha  occ. eigenvalues --  -19.19928 -19.13899 -10.32225 -10.20116 -10.18421
 Alpha  occ. eigenvalues --  -10.17588 -10.17309 -10.17298 -10.17277 -10.17258
 Alpha  occ. eigenvalues --  -10.17241 -10.16849  -1.10873  -1.01171  -0.80798
 Alpha  occ. eigenvalues --   -0.79225  -0.76434  -0.72617  -0.68572  -0.64982
 Alpha  occ. eigenvalues --   -0.61244  -0.57957  -0.56979  -0.55617  -0.49501
 Alpha  occ. eigenvalues --   -0.48235  -0.47130  -0.46375  -0.44730  -0.43789
 Alpha  occ. eigenvalues --   -0.43018  -0.41212  -0.40609  -0.39789  -0.39150
 Alpha  occ. eigenvalues --   -0.37759  -0.37178  -0.36053  -0.34557  -0.34008
 Alpha  occ. eigenvalues --   -0.33275  -0.32740  -0.32268  -0.31697  -0.31562
 Alpha  occ. eigenvalues --   -0.29873  -0.29618  -0.27289
 Alpha virt. eigenvalues --    0.00927   0.08252   0.08667   0.09845   0.10974
 Alpha virt. eigenvalues --    0.12225   0.12431   0.13555   0.14816   0.15163
 Alpha virt. eigenvalues --    0.15757   0.16521   0.17187   0.17965   0.18387
 Alpha virt. eigenvalues --    0.18876   0.19523   0.19705   0.20644   0.21105
 Alpha virt. eigenvalues --    0.21851   0.23303   0.23563   0.24441   0.25505
 Alpha virt. eigenvalues --    0.26643   0.27069   0.27814   0.28434   0.30469
 Alpha virt. eigenvalues --    0.31344   0.36816   0.49159   0.50081   0.50567
 Alpha virt. eigenvalues --    0.51498   0.52667   0.53167   0.53887   0.55312
 Alpha virt. eigenvalues --    0.56436   0.57987   0.59178   0.61504   0.62451
 Alpha virt. eigenvalues --    0.63050   0.65614   0.66221   0.66873   0.67789
 Alpha virt. eigenvalues --    0.68339   0.69570   0.70437   0.71711   0.73502
 Alpha virt. eigenvalues --    0.74701   0.76749   0.79255   0.80716   0.82340
 Alpha virt. eigenvalues --    0.83220   0.84017   0.84848   0.86380   0.87121
 Alpha virt. eigenvalues --    0.88150   0.88394   0.88829   0.89372   0.89827
 Alpha virt. eigenvalues --    0.90623   0.91592   0.91880   0.92959   0.93615
 Alpha virt. eigenvalues --    0.94388   0.95167   0.95674   0.95936   0.97166
 Alpha virt. eigenvalues --    0.97711   0.99726   1.00392   1.01525   1.03828
 Alpha virt. eigenvalues --    1.06699   1.09340   1.10331   1.12399   1.16965
 Alpha virt. eigenvalues --    1.19704   1.26783   1.29420   1.30037   1.34398
 Alpha virt. eigenvalues --    1.38074   1.38618   1.39701   1.44418   1.50789
 Alpha virt. eigenvalues --    1.51371   1.53650   1.55466   1.56822   1.58444
 Alpha virt. eigenvalues --    1.59066   1.60266   1.64467   1.64860   1.66871
 Alpha virt. eigenvalues --    1.68980   1.70881   1.71515   1.73705   1.74555
 Alpha virt. eigenvalues --    1.76916   1.77274   1.81588   1.81923   1.85400
 Alpha virt. eigenvalues --    1.85500   1.86277   1.87187   1.87737   1.88377
 Alpha virt. eigenvalues --    1.88630   1.90812   1.91168   1.92344   1.95477
 Alpha virt. eigenvalues --    1.96301   2.01796   2.03079   2.06147   2.07264
 Alpha virt. eigenvalues --    2.08865   2.11560   2.12687   2.13767   2.14135
 Alpha virt. eigenvalues --    2.15105   2.16578   2.16969   2.18785   2.21961
 Alpha virt. eigenvalues --    2.22754   2.23522   2.24582   2.26225   2.26593
 Alpha virt. eigenvalues --    2.27630   2.28913   2.29566   2.30916   2.33601
 Alpha virt. eigenvalues --    2.33788   2.35171   2.37626   2.39245   2.40597
 Alpha virt. eigenvalues --    2.42433   2.43690   2.45655   2.47834   2.52036
 Alpha virt. eigenvalues --    2.52633   2.54940   2.55707   2.56264   2.58798
 Alpha virt. eigenvalues --    2.60162   2.61657   2.63602   2.65411   2.66366
 Alpha virt. eigenvalues --    2.68359   2.70773   2.71953   2.74035   2.74188
 Alpha virt. eigenvalues --    2.76426   2.78326   2.80313   2.81002   2.83166
 Alpha virt. eigenvalues --    2.83735   2.85109   2.86928   2.87822   2.88873
 Alpha virt. eigenvalues --    2.90598   2.91556   2.92472   2.92611   2.93051
 Alpha virt. eigenvalues --    2.93647   2.94742   2.98035   3.01631   3.15235
 Alpha virt. eigenvalues --    3.20348   3.25230   3.27618   3.31005   3.32657
 Alpha virt. eigenvalues --    3.33613   3.34212   3.35943   3.37909   3.40307
 Alpha virt. eigenvalues --    3.41678   3.45517   3.45923   3.46432   3.49055
 Alpha virt. eigenvalues --    3.52611   3.55413   3.57980   3.59376   3.61818
 Alpha virt. eigenvalues --    3.93041   4.15290   4.24146   4.27059   4.33825
 Alpha virt. eigenvalues --    4.42015   4.52508   4.58540   4.63895   4.65312
 Alpha virt. eigenvalues --    4.73591   4.75888
          Condensed to atoms (all electrons):
               1          2          3          4          5          6
     1  O    8.113296   0.257367  -0.094336   0.002563  -0.000048  -0.000000
     2  C    0.257367   4.379318   0.325370  -0.033589  -0.002962   0.000037
     3  C   -0.094336   0.325370   5.148151   0.334941  -0.034490   0.003390
     4  C    0.002563  -0.033589   0.334941   4.915999   0.370923  -0.034767
     5  C   -0.000048  -0.002962  -0.034490   0.370923   4.909783   0.380532
     6  C   -0.000000   0.000037   0.003390  -0.034767   0.380532   4.901340
     7  C    0.000000  -0.000001  -0.000124   0.003569  -0.033922   0.361658
     8  C    0.000000  -0.000000   0.000001  -0.000018  -0.001182  -0.037795
     9  C    0.000000   0.000000   0.000000  -0.000055  -0.001213  -0.002640
    10  C   -0.000000   0.000000  -0.000000  -0.000001   0.000086  -0.000029
    11  C   -0.000000  -0.000000  -0.000000   0.000000  -0.000002   0.000002
    12  O   -0.080124   0.565752  -0.084990   0.004967  -0.004069   0.000010
    13  H    0.267673  -0.009259   0.011220  -0.000319   0.000010  -0.000000
    14  H    0.001782  -0.026332   0.363793  -0.026840   0.003614  -0.000114
    15  H    0.002875  -0.025844   0.365190  -0.035325  -0.005410   0.000002
    16  H   -0.000048   0.004669  -0.030025   0.372609  -0.040503  -0.004115
    17  H    0.000107  -0.006078  -0.035461   0.382798  -0.034705  -0.003434
    18  H   -0.000038   0.004260  -0.005717  -0.036244   0.382065  -0.032784
    19  H   -0.000000  -0.000450  -0.003627  -0.041070   0.380658  -0.042286
    20  H   -0.000000  -0.000001   0.000054  -0.003425  -0.041525   0.383241
    21  H   -0.000000  -0.000013   0.000070  -0.004486  -0.039780   0.381353
    22  H    0.000000   0.000000   0.000002  -0.000168   0.004007  -0.033266
    23  H   -0.000000  -0.000003   0.000001   0.000241  -0.008091  -0.043947
    24  H    0.000000  -0.000000  -0.000000   0.000002  -0.000115   0.004852
    25  H   -0.000000  -0.000000  -0.000000   0.000009  -0.000099  -0.007520
    26  H   -0.000000  -0.000000  -0.000000   0.000010  -0.000188  -0.001348
    27  H   -0.000000   0.000000  -0.000013   0.000152  -0.002973   0.004527
    28  H    0.000000  -0.000000   0.000000  -0.000000   0.000005   0.000001
    29  H    0.000000   0.000000   0.000000   0.000000  -0.000002  -0.000010
    30  H    0.000000  -0.000000  -0.000000   0.000000   0.000000  -0.000000
    31  H   -0.000000  -0.000000  -0.000000  -0.000000   0.000000   0.000000
    32  H    0.000000   0.000000  -0.000000   0.000000  -0.000000   0.000000
               7          8          9         10         11         12
     1  O    0.000000   0.000000   0.000000  -0.000000  -0.000000  -0.080124
     2  C   -0.000001  -0.000000   0.000000   0.000000  -0.000000   0.565752
     3  C   -0.000124   0.000001   0.000000  -0.000000  -0.000000  -0.084990
     4  C    0.003569  -0.000018  -0.000055  -0.000001   0.000000   0.004967
     5  C   -0.033922  -0.001182  -0.001213   0.000086  -0.000002  -0.004069
     6  C    0.361658  -0.037795  -0.002640  -0.000029   0.000002   0.000010
     7  C    4.921692   0.376307  -0.041328   0.003912   0.000064   0.000001
     8  C    0.376307   4.889796   0.383027  -0.038174  -0.005079  -0.000000
     9  C   -0.041328   0.383027   4.896618   0.375132  -0.045085   0.000000
    10  C    0.003912  -0.038174   0.375132   4.879802   0.375450   0.000000
    11  C    0.000064  -0.005079  -0.045085   0.375450   4.914733  -0.000000
    12  O    0.000001  -0.000000   0.000000   0.000000  -0.000000   8.044281
    13  H    0.000000   0.000000  -0.000000  -0.000000   0.000000   0.011375
    14  H    0.000001  -0.000000  -0.000000  -0.000000   0.000000   0.000550
    15  H    0.000001  -0.000000  -0.000004   0.000000  -0.000000   0.001889
    16  H   -0.000002  -0.000001   0.000009  -0.000000   0.000000   0.000245
    17  H    0.000034  -0.000003  -0.000001   0.000000  -0.000000   0.005174
    18  H   -0.004917  -0.000040   0.000029  -0.000004   0.000000   0.006994
    19  H   -0.001350  -0.000139   0.001394  -0.000015   0.000002   0.000116
    20  H   -0.042906  -0.007634  -0.000710  -0.000092   0.000000  -0.000002
    21  H   -0.032205   0.003901   0.000052   0.000001   0.000000   0.000012
    22  H    0.371253  -0.033074   0.005011  -0.000153  -0.000001   0.000000
    23  H    0.383569  -0.036652  -0.006972   0.000039  -0.000012  -0.000002
    24  H   -0.033856   0.380496  -0.042387  -0.005701   0.002735  -0.000000
    25  H   -0.036766   0.380861  -0.040971  -0.003336  -0.000454   0.000000
    26  H   -0.002972  -0.041524   0.383059  -0.039347  -0.007228  -0.000000
    27  H   -0.004878  -0.037748   0.379554  -0.033829   0.005052   0.000000
    28  H   -0.000158   0.004533  -0.033024   0.381214  -0.040262  -0.000000
    29  H    0.000061  -0.007232  -0.037388   0.383621  -0.039637  -0.000000
    30  H   -0.000143   0.001781  -0.004315  -0.034836   0.388448  -0.000000
    31  H    0.000001   0.000155   0.004255  -0.028318   0.380862   0.000000
    32  H   -0.000021  -0.000503  -0.004935  -0.035745   0.387085   0.000000
              13         14         15         16         17         18
     1  O    0.267673   0.001782   0.002875  -0.000048   0.000107  -0.000038
     2  C   -0.009259  -0.026332  -0.025844   0.004669  -0.006078   0.004260
     3  C    0.011220   0.363793   0.365190  -0.030025  -0.035461  -0.005717
     4  C   -0.000319  -0.026840  -0.035325   0.372609   0.382798  -0.036244
     5  C    0.000010   0.003614  -0.005410  -0.040503  -0.034705   0.382065
     6  C   -0.000000  -0.000114   0.000002  -0.004115  -0.003434  -0.032784
     7  C    0.000000   0.000001   0.000001  -0.000002   0.000034  -0.004917
     8  C    0.000000  -0.000000  -0.000000  -0.000001  -0.000003  -0.000040
     9  C   -0.000000  -0.000000  -0.000004   0.000009  -0.000001   0.000029
    10  C   -0.000000  -0.000000   0.000000  -0.000000   0.000000  -0.000004
    11  C    0.000000   0.000000  -0.000000   0.000000  -0.000000   0.000000
    12  O    0.011375   0.000550   0.001889   0.000245   0.005174   0.006994
    13  H    0.401134  -0.000378  -0.000394   0.000004  -0.000011   0.000002
    14  H   -0.000378   0.582051  -0.027431  -0.004140  -0.001572   0.000071
    15  H   -0.000394  -0.027431   0.586269  -0.002218   0.005210  -0.000465
    16  H    0.000004  -0.004140  -0.002218   0.648299  -0.040037   0.005985
    17  H   -0.000011  -0.001572   0.005210  -0.040037   0.611925  -0.005885
    18  H    0.000002   0.000071  -0.000465   0.005985  -0.005885   0.608531
    19  H   -0.000001   0.000046   0.005310  -0.005747   0.005838  -0.040420
    20  H    0.000000  -0.000002   0.000002   0.005307  -0.000603   0.005583
    21  H   -0.000000   0.000004   0.000008  -0.000611   0.005003  -0.006512
    22  H   -0.000000  -0.000000   0.000000   0.000002  -0.000002   0.000151
    23  H    0.000000   0.000000   0.000001   0.000012   0.000005   0.004824
    24  H    0.000000   0.000000   0.000000   0.000000  -0.000000   0.000014
    25  H   -0.000000   0.000000   0.000000  -0.000004   0.000000   0.000005
    26  H    0.000000   0.000000  -0.000001   0.000000  -0.000000   0.000062
    27  H    0.000000   0.000000  -0.000003   0.000118  -0.000004   0.000075
    28  H   -0.000000   0.000000   0.000000  -0.000000   0.000000   0.000000
    29  H   -0.000000  -0.000000  -0.000000  -0.000000  -0.000000   0.000000
    30  H    0.000000   0.000000  -0.000000  -0.000000  -0.000000  -0.000000
    31  H    0.000000   0.000000   0.000000  -0.000000   0.000000  -0.000000
    32  H   -0.000000   0.000000  -0.000000   0.000000  -0.000000   0.000000
              19         20         21         22         23         24
     1  O   -0.000000  -0.000000  -0.000000   0.000000  -0.000000   0.000000
     2  C   -0.000450  -0.000001  -0.000013   0.000000  -0.000003  -0.000000
     3  C   -0.003627   0.000054   0.000070   0.000002   0.000001  -0.000000
     4  C   -0.041070  -0.003425  -0.004486  -0.000168   0.000241   0.000002
     5  C    0.380658  -0.041525  -0.039780   0.004007  -0.008091  -0.000115
     6  C   -0.042286   0.383241   0.381353  -0.033266  -0.043947   0.004852
     7  C   -0.001350  -0.042906  -0.032205   0.371253   0.383569  -0.033856
     8  C   -0.000139  -0.007634   0.003901  -0.033074  -0.036652   0.380496
     9  C    0.001394  -0.000710   0.000052   0.005011  -0.006972  -0.042387
    10  C   -0.000015  -0.000092   0.000001  -0.000153   0.000039  -0.005701
    11  C    0.000002   0.000000   0.000000  -0.000001  -0.000012   0.002735
    12  O    0.000116  -0.000002   0.000012   0.000000  -0.000002  -0.000000
    13  H   -0.000001   0.000000  -0.000000  -0.000000   0.000000   0.000000
    14  H    0.000046  -0.000002   0.000004  -0.000000   0.000000   0.000000
    15  H    0.005310   0.000002   0.000008   0.000000   0.000001   0.000000
    16  H   -0.005747   0.005307  -0.000611   0.000002   0.000012   0.000000
    17  H    0.005838  -0.000603   0.005003  -0.000002   0.000005  -0.000000
    18  H   -0.040420   0.005583  -0.006512   0.000151   0.004824   0.000014
    19  H    0.646859  -0.005350   0.006252  -0.000030   0.000395  -0.000059
    20  H   -0.005350   0.649364  -0.041015   0.001554   0.005499   0.000200
    21  H    0.006252  -0.041015   0.642633  -0.010001   0.001303  -0.000217
    22  H   -0.000030   0.001554  -0.010001   0.655384  -0.039487  -0.003974
    23  H    0.000395   0.005499   0.001303  -0.039487   0.640929  -0.004054
    24  H   -0.000059   0.000200  -0.000217  -0.003974  -0.004054   0.648813
    25  H    0.000106   0.004826   0.000116  -0.004371   0.005930  -0.041061
    26  H    0.001910   0.000178  -0.000011  -0.000003   0.005005  -0.004856
    27  H    0.002339   0.001313  -0.000071  -0.000041  -0.000283   0.006319
    28  H   -0.000009   0.000003  -0.000000   0.000003   0.000001   0.000046
    29  H    0.000005   0.000003  -0.000000   0.000001   0.000008  -0.000253
    30  H   -0.000000   0.000000  -0.000000   0.000009   0.000009   0.002776
    31  H   -0.000000  -0.000000  -0.000000  -0.000000  -0.000000  -0.000165
    32  H   -0.000001  -0.000000  -0.000000   0.000000   0.000001   0.000343
              25         26         27         28         29         30
     1  O   -0.000000  -0.000000  -0.000000   0.000000   0.000000   0.000000
     2  C   -0.000000  -0.000000   0.000000  -0.000000   0.000000  -0.000000
     3  C   -0.000000  -0.000000  -0.000013   0.000000   0.000000  -0.000000
     4  C    0.000009   0.000010   0.000152  -0.000000   0.000000   0.000000
     5  C   -0.000099  -0.000188  -0.002973   0.000005  -0.000002   0.000000
     6  C   -0.007520  -0.001348   0.004527   0.000001  -0.000010  -0.000000
     7  C   -0.036766  -0.002972  -0.004878  -0.000158   0.000061  -0.000143
     8  C    0.380861  -0.041524  -0.037748   0.004533  -0.007232   0.001781
     9  C   -0.040971   0.383059   0.379554  -0.033024  -0.037388  -0.004315
    10  C   -0.003336  -0.039347  -0.033829   0.381214   0.383621  -0.034836
    11  C   -0.000454  -0.007228   0.005052  -0.040262  -0.039637   0.388448
    12  O    0.000000  -0.000000   0.000000  -0.000000  -0.000000  -0.000000
    13  H   -0.000000   0.000000   0.000000  -0.000000  -0.000000   0.000000
    14  H    0.000000   0.000000   0.000000   0.000000  -0.000000   0.000000
    15  H    0.000000  -0.000001  -0.000003   0.000000  -0.000000  -0.000000
    16  H   -0.000004   0.000000   0.000118  -0.000000  -0.000000  -0.000000
    17  H    0.000000  -0.000000  -0.000004   0.000000  -0.000000  -0.000000
    18  H    0.000005   0.000062   0.000075   0.000000   0.000000  -0.000000
    19  H    0.000106   0.001910   0.002339  -0.000009   0.000005  -0.000000
    20  H    0.004826   0.000178   0.001313   0.000003   0.000003   0.000000
    21  H    0.000116  -0.000011  -0.000071  -0.000000  -0.000000  -0.000000
    22  H   -0.004371  -0.000003  -0.000041   0.000003   0.000001   0.000009
    23  H    0.005930   0.005005  -0.000283   0.000001   0.000008   0.000009
    24  H   -0.041061  -0.004856   0.006319   0.000046  -0.000253   0.002776
    25  H    0.650277   0.006296  -0.007166  -0.000013   0.005289   0.000247
    26  H    0.006296   0.647867  -0.043136  -0.002823   0.006089  -0.000149
    27  H   -0.007166  -0.043136   0.647273  -0.004548  -0.003241  -0.000020
    28  H   -0.000013  -0.002823  -0.004548   0.649195  -0.040169   0.005535
    29  H    0.005289   0.006089  -0.003241  -0.040169   0.643924  -0.005307
    30  H    0.000247  -0.000149  -0.000020   0.005535  -0.005307   0.606317
    31  H   -0.000017   0.000021  -0.000187  -0.004222  -0.002504  -0.032075
    32  H    0.000059   0.005478   0.000044  -0.004357   0.005522  -0.033933
              31         32
     1  O   -0.000000   0.000000
     2  C   -0.000000   0.000000
     3  C   -0.000000  -0.000000
     4  C   -0.000000   0.000000
     5  C    0.000000  -0.000000
     6  C    0.000000   0.000000
     7  C    0.000001  -0.000021
     8  C    0.000155  -0.000503
     9  C    0.004255  -0.004935
    10  C   -0.028318  -0.035745
    11  C    0.380862   0.387085
    12  O    0.000000   0.000000
    13  H    0.000000  -0.000000
    14  H    0.000000   0.000000
    15  H    0.000000  -0.000000
    16  H   -0.000000   0.000000
    17  H    0.000000  -0.000000
    18  H   -0.000000   0.000000
    19  H   -0.000000  -0.000001
    20  H   -0.000000  -0.000000
    21  H   -0.000000  -0.000000
    22  H   -0.000000   0.000000
    23  H   -0.000000   0.000001
    24  H   -0.000165   0.000343
    25  H   -0.000017   0.000059
    26  H    0.000021   0.005478
    27  H   -0.000187   0.000044
    28  H   -0.004222  -0.004357
    29  H   -0.002504   0.005522
    30  H   -0.032075  -0.033933
    31  H    0.615496  -0.032526
    32  H   -0.032526   0.611758
 Mulliken charges:
               1
     1  O   -0.471069
     2  C    0.567760
     3  C   -0.263400
     4  C   -0.172479
     5  C   -0.180402
     6  C   -0.176890
     7  C   -0.186576
     8  C   -0.174062
     9  C   -0.167112
    10  C   -0.179675
    11  C   -0.316675
    12  O   -0.472180
    13  H    0.318945
    14  H    0.134897
    15  H    0.130337
    16  H    0.090191
    17  H    0.111699
    18  H    0.114373
    19  H    0.089324
    20  H    0.086137
    21  H    0.094214
    22  H    0.087193
    23  H    0.091732
    24  H    0.090101
    25  H    0.087756
    26  H    0.087608
    27  H    0.091376
    28  H    0.089049
    29  H    0.091220
    30  H    0.105655
    31  H    0.099224
    32  H    0.101729
 Sum of Mulliken charges =  -0.00000
 Mulliken charges with hydrogens summed into heavy atoms:
               1
     1  O   -0.152124
     2  C    0.567760
     3  C    0.001834
     4  C    0.029410
     5  C    0.023295
     6  C    0.003461
     7  C   -0.007651
     8  C    0.003796
     9  C    0.011871
    10  C    0.000593
    11  C   -0.010065
    12  O   -0.472180
 Electronic spatial extent (au):  <R**2>=           4362.6416
 Charge=             -0.0000 electrons
 Dipole moment (field-independent basis, Debye):
    X=             -0.0410    Y=             -1.0683    Z=              0.8301  Tot=              1.3535
 Quadrupole moment (field-independent basis, Debye-Ang):
   XX=            -73.9658   YY=            -77.4227   ZZ=            -75.0137
   XY=             -4.9788   XZ=              0.7133   YZ=              2.9368
 Traceless Quadrupole moment (field-independent basis, Debye-Ang):
   XX=              1.5016   YY=             -1.9553   ZZ=              0.4537
   XY=             -4.9788   XZ=              0.7133   YZ=              2.9368
 Octapole moment (field-independent basis, Debye-Ang**2):
  XXX=             71.9429  YYY=             -1.4063  ZZZ=             -5.4826  XYY=              6.3671
  XXY=            -23.2911  XXZ=             -7.8421  XZZ=             19.3730  YZZ=             -7.2794
  YYZ=             -4.2126  XYZ=             15.0378
 Hexadecapole moment (field-independent basis, Debye-Ang**3):
 XXXX=          -4383.3077 YYYY=           -725.6587 ZZZZ=           -336.8028 XXXY=           -145.3535
 XXXZ=           -122.3103 YYYX=            -11.8517 YYYZ=              3.6979 ZZZX=            -29.8451
 ZZZY=              9.8832 XXYY=           -907.4932 XXZZ=           -788.8563 YYZZ=           -173.3737
 XXYZ=             70.5985 YYXZ=            -21.7124 ZZXY=            -36.3092
 N-N= 7.022946707451D+02 E-N=-2.667981883236D+03  KE= 5.384724086690D+02
 Calling FoFJK, ICntrl=      2127 FMM=F ISym2X=0 I1Cent= 0 IOpClX= 0 NMat=1 NMatS=1 NMatT=0.
 ***** Axes restored to original set *****
 -------------------------------------------------------------------
 Center     Atomic                   Forces (Hartrees/Bohr)
 Number     Number              X              Y              Z
 -------------------------------------------------------------------
      1        8          -0.004075828   -0.009917895   -0.000976521
      2        6          -0.023996219   -0.001480064   -0.003542823
      3        6          -0.010459336    0.005777433   -0.000570773
      4        6           0.005702029    0.007110575   -0.005619988
      5        6          -0.003703452   -0.001397161    0.007007597
      6        6           0.006823492    0.006446548   -0.003957729
      7        6          -0.003930100   -0.007995036    0.001455548
      8        6           0.009061153    0.005555306    0.000371261
      9        6          -0.008431623   -0.004928252   -0.000220715
     10        6           0.000907498    0.007574003   -0.003327053
     11        6          -0.000505169   -0.003296867    0.004542162
     12        8           0.013627592   -0.012070249    0.000251022
     13        1           0.006561406    0.014999227    0.001250226
     14        1           0.003349983   -0.002791509    0.003847392
     15        1           0.003739226   -0.000976358   -0.001658426
     16        1           0.001979589   -0.004053374    0.000367945
     17        1           0.000558865    0.003541546    0.000773106
     18        1           0.000095420    0.003230387    0.001118353
     19        1           0.002113110   -0.004032825   -0.002869827
     20        1           0.000156978   -0.005053286   -0.000188310
     21        1          -0.000862048    0.002276924    0.002993871
     22        1          -0.003797358    0.000491624   -0.000490669
     23        1           0.004525907    0.001663364   -0.000977485
     24        1          -0.001082848    0.001388122   -0.004089267
     25        1          -0.001812051   -0.003659091    0.002783071
     26        1           0.002138592    0.003628908   -0.002153198
     27        1           0.001481635   -0.000965004    0.004002494
     28        1           0.003703091   -0.001201211    0.000342813
     29        1          -0.003675284   -0.002007570    0.001484026
     30        1          -0.002496936    0.001729817   -0.000009547
     31        1           0.000153604   -0.002206295   -0.001849102
     32        1           0.002149084    0.002618262   -0.000089453
 -------------------------------------------------------------------
 Cartesian Forces:  Max     0.023996219 RMS     0.005083048

 GradGradGradGradGradGradGradGradGradGradGradGradGradGradGradGradGradGrad
 Berny optimization.
 FormGI is forming the generalized inverse of G from B-inverse, IUseBI=4.
 Internal  Forces:  Max     0.017858054 RMS     0.003052472
 Search for a local minimum.
 Step number   1 out of a maximum of  179
 All quantities printed in internal units (Hartrees-Bohrs-Radians)
 Mixed Optimization -- RFO/linear search
 Second derivative matrix not updated -- first step.
 ITU=  0
     Eigenvalues ---    0.00230   0.00230   0.00230   0.00230   0.00230
     Eigenvalues ---    0.00230   0.00230   0.00273   0.00379   0.00856
     Eigenvalues ---    0.02357   0.03082   0.03177   0.03229   0.03248
     Eigenvalues ---    0.03260   0.03264   0.03387   0.03643   0.04662
     Eigenvalues ---    0.04668   0.04687   0.04694   0.04703   0.04704
     Eigenvalues ---    0.04714   0.05195   0.05336   0.05459   0.08304
     Eigenvalues ---    0.08543   0.08547   0.08559   0.08570   0.08695
     Eigenvalues ---    0.08814   0.09813   0.12198   0.12375   0.12378
     Eigenvalues ---    0.12391   0.12393   0.12478   0.12578   0.13121
     Eigenvalues ---    0.16000   0.16000   0.16000   0.16000   0.21873
     Eigenvalues ---    0.21896   0.21897   0.21908   0.21908   0.21923
     Eigenvalues ---    0.21926   0.22003   0.24997   0.25000   0.27697
     Eigenvalues ---    0.28082   0.28163   0.28343   0.28369   0.28371
     Eigenvalues ---    0.28418   0.28763   0.29495   0.34505   0.34623
     Eigenvalues ---    0.34628   0.34633   0.34637   0.34644   0.34651
     Eigenvalues ---    0.34652   0.34654   0.34654   0.34668   0.34740
     Eigenvalues ---    0.34749   0.34765   0.34767   0.34821   0.34821
     Eigenvalues ---    0.34874   0.34904   0.55078   0.55961   0.94041
 RFO step:  Lambda=-5.44401922D-03 EMin= 2.30000000D-03
 Linear search not attempted -- first point.
 Iteration  1 RMS(Cart)=  0.07461264 RMS(Int)=  0.00060035
 Iteration  2 RMS(Cart)=  0.00112485 RMS(Int)=  0.00012309
 Iteration  3 RMS(Cart)=  0.00000069 RMS(Int)=  0.00012309
 Variable       Old X    -DE/DX   Delta X   Delta X   Delta X     New X
                                 (Linear)    (Quad)   (Total)
    R1        2.55063   0.00286   0.00000   0.00514   0.00514   2.55577
    R2        1.80987   0.01593   0.00000   0.02820   0.02820   1.83807
    R3        2.88983  -0.01055   0.00000  -0.03514  -0.03514   2.85469
    R4        2.31125  -0.01786   0.00000  -0.01888  -0.01888   2.29237
    R5        2.92807  -0.01211   0.00000  -0.04289  -0.04289   2.88518
    R6        2.05881   0.00528   0.00000   0.01492   0.01492   2.07372
    R7        2.05967   0.00366   0.00000   0.01036   0.01036   2.07003
    R8        2.91396  -0.00635   0.00000  -0.02197  -0.02197   2.89199
    R9        2.06283   0.00352   0.00000   0.01001   0.01001   2.07284
   R10        2.06487   0.00203   0.00000   0.00580   0.00580   2.07067
   R11        2.91335  -0.00484   0.00000  -0.01674  -0.01674   2.89661
   R12        2.06257   0.00295   0.00000   0.00837   0.00837   2.07095
   R13        2.05831   0.00511   0.00000   0.01441   0.01441   2.07272
   R14        2.91959  -0.00152   0.00000  -0.00530  -0.00530   2.91429
   R15        2.06241   0.00471   0.00000   0.01337   0.01337   2.07578
   R16        2.06291   0.00364   0.00000   0.01035   0.01035   2.07326
   R17        2.91784  -0.00441   0.00000  -0.01535  -0.01535   2.90250
   R18        2.06268   0.00370   0.00000   0.01051   0.01051   2.07319
   R19        2.06275   0.00407   0.00000   0.01158   0.01158   2.07432
   R20        2.91339  -0.00496   0.00000  -0.01714  -0.01714   2.89624
   R21        2.06059   0.00440   0.00000   0.01245   0.01245   2.07304
   R22        2.06218   0.00464   0.00000   0.01318   0.01318   2.07536
   R23        2.91233  -0.00308   0.00000  -0.01063  -0.01063   2.90170
   R24        2.06240   0.00454   0.00000   0.01290   0.01290   2.07531
   R25        2.06055   0.00430   0.00000   0.01218   0.01218   2.07273
   R26        2.90501  -0.00264   0.00000  -0.00901  -0.00901   2.89600
   R27        2.06244   0.00385   0.00000   0.01093   0.01093   2.07336
   R28        2.06245   0.00422   0.00000   0.01200   0.01200   2.07445
   R29        2.05967   0.00295   0.00000   0.00835   0.00835   2.06801
   R30        2.06085   0.00288   0.00000   0.00817   0.00817   2.06901
   R31        2.06099   0.00327   0.00000   0.00927   0.00927   2.07026
    A1        1.81570   0.00714   0.00000   0.04314   0.04314   1.85884
    A2        1.94966   0.00083   0.00000   0.00319   0.00318   1.95284
    A3        2.14799  -0.00450   0.00000  -0.01768  -0.01769   2.13030
    A4        2.18538   0.00368   0.00000   0.01435   0.01434   2.19972
    A5        2.01816  -0.01021   0.00000  -0.04693  -0.04687   1.97130
    A6        1.84859   0.00310   0.00000   0.01715   0.01767   1.86626
    A7        1.89924   0.00175   0.00000  -0.00870  -0.00880   1.89044
    A8        1.90417   0.00393   0.00000   0.03034   0.03042   1.93459
    A9        1.92415   0.00423   0.00000   0.01741   0.01669   1.94084
   A10        1.86206  -0.00239   0.00000  -0.00663  -0.00698   1.85508
   A11        1.99103  -0.00158   0.00000  -0.01311  -0.01326   1.97777
   A12        1.89435  -0.00091   0.00000  -0.00773  -0.00760   1.88676
   A13        1.91858  -0.00037   0.00000  -0.01483  -0.01504   1.90354
   A14        1.89640   0.00181   0.00000   0.01894   0.01890   1.91530
   A15        1.91660   0.00017   0.00000  -0.00539  -0.00576   1.91084
   A16        1.84053   0.00110   0.00000   0.02574   0.02568   1.86622
   A17        1.96627   0.00035   0.00000  -0.00178  -0.00179   1.96447
   A18        1.91313  -0.00088   0.00000  -0.00887  -0.00888   1.90425
   A19        1.90695  -0.00003   0.00000  -0.00076  -0.00076   1.90619
   A20        1.90023   0.00018   0.00000   0.00058   0.00055   1.90078
   A21        1.92767  -0.00051   0.00000  -0.00353  -0.00354   1.92413
   A22        1.84567   0.00092   0.00000   0.01535   0.01536   1.86103
   A23        1.99199   0.00097   0.00000   0.00215   0.00202   1.99401
   A24        1.92798  -0.00090   0.00000  -0.01568  -0.01579   1.91219
   A25        1.88410  -0.00076   0.00000   0.00119   0.00111   1.88521
   A26        1.91971  -0.00079   0.00000  -0.01213  -0.01223   1.90747
   A27        1.89374   0.00080   0.00000   0.01607   0.01606   1.90980
   A28        1.83934   0.00071   0.00000   0.01015   0.01022   1.84955
   A29        2.01671  -0.00088   0.00000  -0.00815  -0.00847   2.00823
   A30        1.88664   0.00135   0.00000   0.02084   0.02091   1.90754
   A31        1.92601  -0.00088   0.00000  -0.01982  -0.02020   1.90581
   A32        1.87379  -0.00004   0.00000   0.00904   0.00906   1.88285
   A33        1.92045  -0.00005   0.00000  -0.01474  -0.01520   1.90525
   A34        1.82974   0.00072   0.00000   0.01737   0.01757   1.84731
   A35        2.00742  -0.00016   0.00000  -0.00309  -0.00318   2.00424
   A36        1.87974   0.00061   0.00000   0.01092   0.01093   1.89067
   A37        1.90939  -0.00030   0.00000  -0.00894  -0.00907   1.90033
   A38        1.90817  -0.00011   0.00000   0.00392   0.00392   1.91210
   A39        1.90887  -0.00051   0.00000  -0.01192  -0.01203   1.89685
   A40        1.84296   0.00056   0.00000   0.01079   0.01085   1.85381
   A41        1.99340  -0.00114   0.00000  -0.00658  -0.00668   1.98672
   A42        1.91825  -0.00023   0.00000  -0.01106  -0.01117   1.90707
   A43        1.89985   0.00028   0.00000   0.00653   0.00654   1.90639
   A44        1.91275   0.00013   0.00000  -0.00665  -0.00680   1.90596
   A45        1.88192   0.00102   0.00000   0.01405   0.01406   1.89598
   A46        1.85198   0.00006   0.00000   0.00525   0.00530   1.85728
   A47        1.99334  -0.00018   0.00000  -0.00278  -0.00283   1.99050
   A48        1.89676  -0.00011   0.00000   0.00210   0.00211   1.89887
   A49        1.91605  -0.00061   0.00000  -0.01115  -0.01120   1.90485
   A50        1.89381   0.00050   0.00000   0.00883   0.00883   1.90264
   A51        1.91357   0.00001   0.00000  -0.00445  -0.00454   1.90903
   A52        1.84418   0.00044   0.00000   0.00875   0.00876   1.85294
   A53        1.95220   0.00006   0.00000  -0.00018  -0.00020   1.95200
   A54        1.93430   0.00030   0.00000   0.00404   0.00404   1.93834
   A55        1.94332  -0.00117   0.00000  -0.00879  -0.00880   1.93453
   A56        1.87099   0.00019   0.00000   0.00440   0.00439   1.87538
   A57        1.88312   0.00012   0.00000  -0.00335  -0.00338   1.87973
   A58        1.87647   0.00056   0.00000   0.00436   0.00437   1.88084
    D1       -3.13469   0.00040   0.00000   0.01724   0.01717  -3.11752
    D2       -0.01094   0.00036   0.00000   0.00898   0.00905  -0.00190
    D3       -3.00572   0.00043   0.00000   0.01124   0.01096  -2.99476
    D4        1.16654  -0.00049   0.00000  -0.01074  -0.01078   1.15576
    D5       -0.82962  -0.00011   0.00000  -0.00764  -0.00739  -0.83701
    D6        0.15417   0.00058   0.00000   0.02012   0.01988   0.17405
    D7       -1.95675  -0.00034   0.00000  -0.00187  -0.00186  -1.95861
    D8        2.33027   0.00004   0.00000   0.00123   0.00153   2.33180
    D9        1.22242  -0.00142   0.00000  -0.04150  -0.04138   1.18105
   D10       -2.94383  -0.00081   0.00000  -0.03156  -0.03146  -2.97529
   D11       -0.93900  -0.00020   0.00000  -0.01315  -0.01317  -0.95217
   D12       -2.98012  -0.00129   0.00000  -0.02797  -0.02815  -3.00827
   D13       -0.86318  -0.00067   0.00000  -0.01804  -0.01824  -0.88142
   D14        1.14164  -0.00006   0.00000   0.00038   0.00006   1.14170
   D15       -0.94072   0.00057   0.00000  -0.00813  -0.00791  -0.94863
   D16        1.17621   0.00118   0.00000   0.00180   0.00200   1.17821
   D17       -3.10215   0.00179   0.00000   0.02022   0.02030  -3.08185
   D18        3.11013   0.00019   0.00000   0.02001   0.01994   3.13007
   D19       -1.05431   0.00003   0.00000   0.01328   0.01324  -1.04107
   D20        0.96070   0.00063   0.00000   0.02632   0.02626   0.98696
   D21        0.99433   0.00109   0.00000   0.02487   0.02492   1.01926
   D22        3.11307   0.00093   0.00000   0.01814   0.01822   3.13130
   D23       -1.15510   0.00153   0.00000   0.03118   0.03124  -1.12386
   D24       -1.01056  -0.00132   0.00000  -0.01339  -0.01340  -1.02396
   D25        1.10818  -0.00148   0.00000  -0.02011  -0.02011   1.08808
   D26        3.12319  -0.00088   0.00000  -0.00707  -0.00708   3.11611
   D27       -3.12358   0.00049   0.00000   0.01161   0.01158  -3.11201
   D28       -0.94987  -0.00055   0.00000  -0.01550  -0.01548  -0.96535
   D29        1.05282  -0.00060   0.00000  -0.01104  -0.01105   1.04177
   D30        1.03354   0.00126   0.00000   0.02364   0.02361   1.05716
   D31       -3.07593   0.00021   0.00000  -0.00347  -0.00344  -3.07938
   D32       -1.07324   0.00016   0.00000   0.00099   0.00099  -1.07225
   D33       -0.98575   0.00033   0.00000   0.00678   0.00675  -0.97899
   D34        1.18796  -0.00071   0.00000  -0.02033  -0.02030   1.16766
   D35       -3.09253  -0.00077   0.00000  -0.01587  -0.01587  -3.10840
   D36        1.65746  -0.00127   0.00000  -0.06052  -0.06045   1.59701
   D37       -2.52655  -0.00089   0.00000  -0.03872  -0.03868  -2.56523
   D38       -0.53490   0.00025   0.00000  -0.01695  -0.01708  -0.55198
   D39       -0.52065  -0.00016   0.00000  -0.03159  -0.03154  -0.55220
   D40        1.57852   0.00021   0.00000  -0.00979  -0.00977   1.56875
   D41       -2.71302   0.00136   0.00000   0.01198   0.01182  -2.70119
   D42       -2.52432  -0.00103   0.00000  -0.04610  -0.04598  -2.57030
   D43       -0.42514  -0.00065   0.00000  -0.02430  -0.02422  -0.44936
   D44        1.56651   0.00049   0.00000  -0.00253  -0.00262   1.56389
   D45       -1.09777   0.00149   0.00000   0.04374   0.04366  -1.05411
   D46        3.05320   0.00128   0.00000   0.03254   0.03246   3.08567
   D47        1.05824   0.00046   0.00000   0.01860   0.01856   1.07681
   D48        3.07926   0.00036   0.00000   0.01557   0.01554   3.09479
   D49        0.94705   0.00015   0.00000   0.00436   0.00433   0.95138
   D50       -1.04791  -0.00068   0.00000  -0.00957  -0.00956  -1.05747
   D51        1.09744  -0.00044   0.00000  -0.00232  -0.00225   1.09519
   D52       -1.03477  -0.00065   0.00000  -0.01352  -0.01345  -1.04823
   D53       -3.02973  -0.00148   0.00000  -0.02745  -0.02735  -3.05708
   D54       -3.06508  -0.00006   0.00000  -0.01063  -0.01064  -3.07571
   D55       -0.90724  -0.00091   0.00000  -0.03287  -0.03281  -0.94005
   D56        1.11417  -0.00081   0.00000  -0.02900  -0.02898   1.08519
   D57       -0.94827   0.00054   0.00000   0.00444   0.00441  -0.94386
   D58        1.20957  -0.00031   0.00000  -0.01780  -0.01775   1.19181
   D59       -3.05221  -0.00021   0.00000  -0.01393  -0.01393  -3.06614
   D60        1.06182   0.00086   0.00000   0.01292   0.01286   1.07467
   D61       -3.06353   0.00001   0.00000  -0.00932  -0.00931  -3.07284
   D62       -1.04212   0.00011   0.00000  -0.00545  -0.00549  -1.04761
   D63        1.18716  -0.00088   0.00000  -0.03133  -0.03130   1.15586
   D64       -2.97913  -0.00043   0.00000  -0.02032  -0.02030  -2.99943
   D65       -0.96999  -0.00029   0.00000  -0.01476  -0.01477  -0.98476
   D66       -0.97363   0.00016   0.00000  -0.00679  -0.00679  -0.98042
   D67        1.14327   0.00061   0.00000   0.00422   0.00421   1.14747
   D68       -3.13078   0.00075   0.00000   0.00978   0.00974  -3.12104
   D69       -2.98213  -0.00053   0.00000  -0.01717  -0.01715  -2.99928
   D70       -0.86523  -0.00008   0.00000  -0.00616  -0.00615  -0.87138
   D71        1.14390   0.00006   0.00000  -0.00060  -0.00062   1.14329
   D72       -1.13346   0.00078   0.00000   0.02357   0.02356  -1.10990
   D73        3.06290   0.00030   0.00000   0.01539   0.01538   3.07827
   D74        0.97503   0.00016   0.00000   0.01300   0.01301   0.98804
   D75        3.03120   0.00067   0.00000   0.01628   0.01627   3.04747
   D76        0.94437   0.00018   0.00000   0.00809   0.00809   0.95245
   D77       -1.14350   0.00004   0.00000   0.00571   0.00572  -1.13778
   D78        1.02503  -0.00014   0.00000   0.00341   0.00341   1.02844
   D79       -1.06180  -0.00062   0.00000  -0.00477  -0.00477  -1.06658
   D80        3.13351  -0.00076   0.00000  -0.00716  -0.00714   3.12637
         Item               Value     Threshold  Converged?
 Maximum Force            0.017858     0.000450     NO 
 RMS     Force            0.003052     0.000300     NO 
 Maximum Displacement     0.330113     0.001800     NO 
 RMS     Displacement     0.075074     0.001200     NO 
 Predicted change in Energy=-2.855417D-03
 GradGradGradGradGradGradGradGradGradGradGradGradGradGradGradGradGradGrad

                          Input orientation:                          
 ---------------------------------------------------------------------
 Center     Atomic      Atomic             Coordinates (Angstroms)
 Number     Number       Type             X           Y           Z
 ---------------------------------------------------------------------
      1          8           0        6.461190   -0.541782    0.056713
      2          6           0        5.117323   -0.686566    0.009944
      3          6           0        4.706995   -2.140399    0.014955
      4          6           0        3.215182   -2.338753   -0.242300
      5          6           0        2.789410   -1.957946   -1.662072
      6          6           0        1.292384   -2.178972   -1.906188
      7          6           0        0.828363   -1.846230   -3.338765
      8          6           0        0.855212   -3.025981   -4.321908
      9          6           0        2.237254   -3.652074   -4.538496
     10          6           0        2.254376   -4.768210   -5.592889
     11          6           0        1.956881   -4.286575   -7.016992
     12          8           0        4.367130    0.266619   -0.003599
     13          1           0        6.635641    0.414982    0.072412
     14          1           0        4.992482   -2.549623    0.992322
     15          1           0        5.311263   -2.671164   -0.728738
     16          1           0        2.973745   -3.391882   -0.053048
     17          1           0        2.645190   -1.745708    0.481630
     18          1           0        3.025524   -0.902067   -1.836318
     19          1           0        3.380841   -2.535016   -2.383352
     20          1           0        1.031508   -3.220183   -1.672887
     21          1           0        0.736913   -1.560827   -1.189934
     22          1           0       -0.197173   -1.457853   -3.306610
     23          1           0        1.445301   -1.030650   -3.737674
     24          1           0        0.452658   -2.683234   -5.283103
     25          1           0        0.168963   -3.804210   -3.961999
     26          1           0        2.948490   -2.868028   -4.830852
     27          1           0        2.601052   -4.061952   -3.588382
     28          1           0        3.238225   -5.253613   -5.577932
     29          1           0        1.527866   -5.541219   -5.310568
     30          1           0        0.945248   -3.878789   -7.105874
     31          1           0        2.044390   -5.107408   -7.736244
     32          1           0        2.659874   -3.502085   -7.317947
 ---------------------------------------------------------------------
                    Distance matrix (angstroms):
                    1          2          3          4          5
     1  O    0.000000
     2  C    1.352453   0.000000
     3  C    2.373715   1.510638   0.000000
     4  C    3.722241   2.532092   1.526771   0.000000
     5  C    4.294381   3.135478   2.553985   1.530375   0.000000
     6  C    5.766275   4.530893   3.918142   2.547784   1.532818
     7  C    6.705192   5.563619   5.135928   3.940505   2.582535
     8  C    7.534624   6.511789   5.867611   4.762871   3.457824
     9  C    6.973629   6.146327   5.396174   4.597657   3.383601
    10  C    8.214498   7.499868   6.660979   5.954344   4.861601
[...]
 Alpha virt. eigenvalues --    4.20742   4.25088   4.28956   4.30489   4.31942
 Alpha virt. eigenvalues --    4.35468   4.38290   4.40835   4.42366   4.44432
 Alpha virt. eigenvalues --    4.46866   4.48704   4.51235   4.52661   4.54520
 Alpha virt. eigenvalues --    4.57677   4.58217   4.61503   4.62628   4.63909
 Alpha virt. eigenvalues --    4.64540   4.65966   4.68046   4.73849   4.75408
 Alpha virt. eigenvalues --    4.77912   4.79034   4.80463   4.83677   4.91251
 Alpha virt. eigenvalues --    5.02386   5.05197   5.07914   5.17076   5.21469
 Alpha virt. eigenvalues --    5.22238   5.38629   5.40898   5.50476   5.59325
 Alpha virt. eigenvalues --    5.74924   5.84519   5.86474   6.15048   6.19174
 Alpha virt. eigenvalues --    6.33109   6.33640   6.44328   6.48854   6.64396
 Alpha virt. eigenvalues --    6.68772   6.73803   6.81912   6.88181   7.07499
 Alpha virt. eigenvalues --    7.08913   7.26684  22.42212  22.47856  22.55385
 Alpha virt. eigenvalues --   22.57038  22.58302  22.60018  22.61481  22.62771
 Alpha virt. eigenvalues --   22.67169  23.27757  43.94176  44.02201
          Condensed to atoms (all electrons):
               1          2          3          4          5          6
     1  O    7.938788   0.375981  -0.124842   0.010386   0.000519   0.000013
     2  C    0.375981   4.485584   0.251213  -0.033105   0.009370   0.000956
     3  C   -0.124842   0.251213   5.391016   0.182167  -0.032931   0.005443
     4  C    0.010386  -0.033105   0.182167   5.215046   0.197285  -0.035232
     5  C    0.000519   0.009370  -0.032931   0.197285   5.368353   0.185297
     6  C    0.000013   0.000956   0.005443  -0.035232   0.185297   5.310834
     7  C   -0.000001   0.000071  -0.000752   0.009553  -0.025179   0.190466
     8  C    0.000000  -0.000031   0.000201  -0.001454   0.000892  -0.029573
     9  C    0.000000   0.000049  -0.000224   0.001101  -0.001947   0.015690
    10  C   -0.000000   0.000000   0.000002  -0.000095   0.001339  -0.001864
    11  C   -0.000000  -0.000000  -0.000000   0.000003  -0.000108   0.000168
    12  O   -0.088636   0.647715  -0.108995   0.020783  -0.008157   0.000147
    13  H    0.288870  -0.028693   0.020269  -0.001968   0.000191  -0.000014
    14  H    0.002809  -0.019184   0.406960  -0.041945   0.008329  -0.000444
    15  H    0.005638  -0.031681   0.412791  -0.038132  -0.007093  -0.000303
    16  H   -0.000083   0.008349  -0.049247   0.434057  -0.040246  -0.004408
    17  H    0.000206  -0.010288  -0.020782   0.430621  -0.054408  -0.003321
    18  H   -0.000347   0.003006  -0.008222  -0.027766   0.424379  -0.035809
    19  H   -0.000066  -0.002069   0.003884  -0.057703   0.427484  -0.050594
    20  H    0.000000  -0.000108   0.000239  -0.003532  -0.055340   0.429290
    21  H   -0.000000   0.000168  -0.000175  -0.005604  -0.041678   0.428224
    22  H    0.000000  -0.000002   0.000020  -0.000524   0.005837  -0.046604
    23  H    0.000001  -0.000031   0.000109  -0.000299  -0.001533  -0.065440
    24  H   -0.000000  -0.000000  -0.000003   0.000076  -0.001073   0.011901
    25  H   -0.000000   0.000000   0.000008  -0.000054   0.002102  -0.015938
    26  H   -0.000000  -0.000002   0.000043   0.000105  -0.000141  -0.005580
    27  H   -0.000000   0.000002  -0.000144   0.001166  -0.013925   0.017585
    28  H    0.000000  -0.000000  -0.000001   0.000007  -0.000023   0.000004
    29  H    0.000000   0.000000   0.000000   0.000001   0.000005   0.000034
    30  H    0.000000  -0.000000  -0.000000   0.000000  -0.000001  -0.000088
    31  H    0.000000   0.000000  -0.000000  -0.000000   0.000001  -0.000000
    32  H    0.000000   0.000000   0.000000  -0.000000   0.000003   0.000043
               7          8          9         10         11         12
     1  O   -0.000001   0.000000   0.000000  -0.000000  -0.000000  -0.088636
     2  C    0.000071  -0.000031   0.000049   0.000000  -0.000000   0.647715
     3  C   -0.000752   0.000201  -0.000224   0.000002  -0.000000  -0.108995
     4  C    0.009553  -0.001454   0.001101  -0.000095   0.000003   0.020783
     5  C   -0.025179   0.000892  -0.001947   0.001339  -0.000108  -0.008157
     6  C    0.190466  -0.029573   0.015690  -0.001864   0.000168   0.000147
     7  C    5.169416   0.241666  -0.041994   0.009583  -0.000406   0.000087
     8  C    0.241666   5.275769   0.194903  -0.048155   0.010058  -0.000008
     9  C   -0.041994   0.194903   5.307405   0.252033  -0.060020   0.000005
    10  C    0.009583  -0.048155   0.252033   5.093281   0.266813   0.000000
    11  C   -0.000406   0.010058  -0.060020   0.266813   5.075740   0.000000
    12  O    0.000087  -0.000008   0.000005   0.000000   0.000000   7.853806
    13  H    0.000000   0.000000  -0.000000   0.000000  -0.000000   0.006150
    14  H    0.000027  -0.000004   0.000005  -0.000000   0.000000   0.001733
    15  H   -0.000050   0.000033  -0.000063  -0.000006   0.000000   0.002987
    16  H   -0.000060  -0.000042   0.000195  -0.000008  -0.000000   0.000513
    17  H   -0.000294   0.000051  -0.000085   0.000001   0.000000   0.003881
    18  H   -0.007202   0.001438  -0.000813  -0.000042   0.000001   0.005436
    19  H    0.004824  -0.002211  -0.001286   0.001289  -0.000022   0.000540
    20  H   -0.051983   0.006550  -0.009362  -0.000313   0.000009   0.000005
    21  H   -0.033357   0.004331   0.000172   0.000050   0.000003   0.000208
    22  H    0.442228  -0.055629   0.010358  -0.000539  -0.000015   0.000000
    23  H    0.441713  -0.039847  -0.011496  -0.000651   0.000223  -0.000032
    24  H   -0.048264   0.434417  -0.047188  -0.005230  -0.000241  -0.000000
    25  H   -0.028640   0.421746  -0.057845  -0.001126  -0.000801   0.000000
    26  H    0.008741  -0.073295   0.430402  -0.028348  -0.010668  -0.000000
    27  H   -0.017435  -0.038785   0.416547  -0.033651   0.009372  -0.000002
    28  H   -0.000472   0.011772  -0.059943   0.436102  -0.039278   0.000000
    29  H    0.000007  -0.013659  -0.037441   0.430724  -0.054478  -0.000000
    30  H    0.000682   0.004638  -0.012245  -0.040017   0.418944  -0.000000
    31  H    0.000027  -0.000125   0.011896  -0.045444   0.417053   0.000000
    32  H   -0.000159  -0.004023   0.003900  -0.046809   0.406959   0.000000
              13         14         15         16         17         18
     1  O    0.288870   0.002809   0.005638  -0.000083   0.000206  -0.000347
     2  C   -0.028693  -0.019184  -0.031681   0.008349  -0.010288   0.003006
     3  C    0.020269   0.406960   0.412791  -0.049247  -0.020782  -0.008222
     4  C   -0.001968  -0.041945  -0.038132   0.434057   0.430621  -0.027766
     5  C    0.000191   0.008329  -0.007093  -0.040246  -0.054408   0.424379
     6  C   -0.000014  -0.000444  -0.000303  -0.004408  -0.003321  -0.035809
     7  C    0.000000   0.000027  -0.000050  -0.000060  -0.000294  -0.007202
     8  C    0.000000  -0.000004   0.000033  -0.000042   0.000051   0.001438
     9  C   -0.000000   0.000005  -0.000063   0.000195  -0.000085  -0.000813
    10  C    0.000000  -0.000000  -0.000006  -0.000008   0.000001  -0.000042
    11  C   -0.000000   0.000000   0.000000  -0.000000   0.000000   0.000001
    12  O    0.006150   0.001733   0.002987   0.000513   0.003881   0.005436
    13  H    0.382172  -0.000582  -0.000839   0.000029  -0.000028   0.000013
    14  H   -0.000582   0.488467  -0.014950  -0.005182  -0.002116   0.000105
    15  H   -0.000839  -0.014950   0.492327  -0.001247   0.005101   0.000726
    16  H    0.000029  -0.005182  -0.001247   0.529999  -0.021459   0.004092
    17  H   -0.000028  -0.002116   0.005101  -0.021459   0.500148  -0.001194
    18  H    0.000013   0.000105   0.000726   0.004092  -0.001194   0.486035
    19  H   -0.000002   0.000275   0.000271  -0.002985   0.006134  -0.024550
    20  H   -0.000000  -0.000014   0.000106   0.001399   0.000733   0.005537
    21  H    0.000000   0.000019  -0.000060   0.001152   0.000516  -0.003330
    22  H   -0.000000  -0.000000   0.000001  -0.000008  -0.000007   0.000346
    23  H   -0.000000   0.000000   0.000003  -0.000006   0.000051   0.001903
    24  H    0.000000   0.000000   0.000000  -0.000003   0.000001  -0.000028
    25  H   -0.000000  -0.000000  -0.000001   0.000017  -0.000005   0.000007
    26  H    0.000000  -0.000000   0.000011   0.000020  -0.000009   0.000354
    27  H    0.000000   0.000004   0.000040   0.000161   0.000006   0.000554
    28  H   -0.000000   0.000000   0.000001  -0.000001   0.000000   0.000000
    29  H    0.000000  -0.000000  -0.000000   0.000002  -0.000000   0.000002
    30  H    0.000000  -0.000000   0.000000  -0.000000  -0.000000   0.000000
    31  H    0.000000   0.000000  -0.000000  -0.000000   0.000000  -0.000000
    32  H    0.000000  -0.000000  -0.000000   0.000000  -0.000000   0.000000
              19         20         21         22         23         24
     1  O   -0.000066   0.000000  -0.000000   0.000000   0.000001  -0.000000
     2  C   -0.002069  -0.000108   0.000168  -0.000002  -0.000031  -0.000000
     3  C    0.003884   0.000239  -0.000175   0.000020   0.000109  -0.000003
     4  C   -0.057703  -0.003532  -0.005604  -0.000524  -0.000299   0.000076
     5  C    0.427484  -0.055340  -0.041678   0.005837  -0.001533  -0.001073
     6  C   -0.050594   0.429290   0.428224  -0.046604  -0.065440   0.011901
     7  C    0.004824  -0.051983  -0.033357   0.442228   0.441713  -0.048264
     8  C   -0.002211   0.006550   0.004331  -0.055629  -0.039847   0.434417
     9  C   -0.001286  -0.009362   0.000172   0.010358  -0.011496  -0.047188
    10  C    0.001289  -0.000313   0.000050  -0.000539  -0.000651  -0.005230
    11  C   -0.000022   0.000009   0.000003  -0.000015   0.000223  -0.000241
    12  O    0.000540   0.000005   0.000208   0.000000  -0.000032  -0.000000
    13  H   -0.000002  -0.000000   0.000000  -0.000000  -0.000000   0.000000
    14  H    0.000275  -0.000014   0.000019  -0.000000   0.000000   0.000000
    15  H    0.000271   0.000106  -0.000060   0.000001   0.000003   0.000000
    16  H   -0.002985   0.001399   0.001152  -0.000008  -0.000006  -0.000003
    17  H    0.006134   0.000733   0.000516  -0.000007   0.000051   0.000001
    18  H   -0.024550   0.005537  -0.003330   0.000346   0.001903  -0.000028
    19  H    0.554353  -0.001655   0.005403  -0.000310   0.000455   0.000081
    20  H   -0.001655   0.539810  -0.023679   0.002727   0.006623  -0.000052
    21  H    0.005403  -0.023679   0.525602  -0.010600   0.001050  -0.000181
    22  H   -0.000310   0.002727  -0.010600   0.539322  -0.019534  -0.006969
    23  H    0.000455   0.006623   0.001050  -0.019534   0.528753  -0.002802
    24  H    0.000081  -0.000052  -0.000181  -0.006969  -0.002802   0.546486
    25  H   -0.000058   0.003359  -0.000163  -0.003363   0.006026  -0.022248
    26  H   -0.003717   0.001001  -0.000163   0.000052   0.001913  -0.000575
    27  H   -0.004746  -0.000769   0.000197  -0.000546   0.001440   0.005893
    28  H   -0.000023   0.000048  -0.000001   0.000016   0.000039  -0.000413
    29  H   -0.000043   0.000031  -0.000005   0.000026  -0.000027   0.001234
    30  H   -0.000003   0.000012  -0.000000  -0.000003   0.000062  -0.005474
    31  H    0.000001   0.000000  -0.000000  -0.000002  -0.000004   0.000222
    32  H   -0.000005  -0.000003  -0.000000   0.000014  -0.000034   0.000776
              25         26         27         28         29         30
     1  O   -0.000000  -0.000000  -0.000000   0.000000   0.000000   0.000000
     2  C    0.000000  -0.000002   0.000002  -0.000000   0.000000  -0.000000
     3  C    0.000008   0.000043  -0.000144  -0.000001   0.000000  -0.000000
     4  C   -0.000054   0.000105   0.001166   0.000007   0.000001   0.000000
     5  C    0.002102  -0.000141  -0.013925  -0.000023   0.000005  -0.000001
     6  C   -0.015938  -0.005580   0.017585   0.000004   0.000034  -0.000088
     7  C   -0.028640   0.008741  -0.017435  -0.000472   0.000007   0.000682
     8  C    0.421746  -0.073295  -0.038785   0.011772  -0.013659   0.004638
     9  C   -0.057845   0.430402   0.416547  -0.059943  -0.037441  -0.012245
    10  C   -0.001126  -0.028348  -0.033651   0.436102   0.430724  -0.040017
    11  C   -0.000801  -0.010668   0.009372  -0.039278  -0.054478   0.418944
    12  O    0.000000  -0.000000  -0.000002   0.000000  -0.000000  -0.000000
    13  H   -0.000000   0.000000   0.000000  -0.000000   0.000000   0.000000
    14  H   -0.000000  -0.000000   0.000004   0.000000  -0.000000  -0.000000
    15  H   -0.000001   0.000011   0.000040   0.000001  -0.000000   0.000000
    16  H    0.000017   0.000020   0.000161  -0.000001   0.000002  -0.000000
    17  H   -0.000005  -0.000009   0.000006   0.000000  -0.000000  -0.000000
    18  H    0.000007   0.000354   0.000554   0.000000   0.000002   0.000000
    19  H   -0.000058  -0.003717  -0.004746  -0.000023  -0.000043  -0.000003
    20  H    0.003359   0.001001  -0.000769   0.000048   0.000031   0.000012
    21  H   -0.000163  -0.000163   0.000197  -0.000001  -0.000005  -0.000000
    22  H   -0.003363   0.000052  -0.000546   0.000016   0.000026  -0.000003
    23  H    0.006026   0.001913   0.001440   0.000039  -0.000027   0.000062
    24  H   -0.022248  -0.000575   0.005893  -0.000413   0.001234  -0.005474
    25  H    0.540792   0.007262  -0.002427   0.000054   0.002830   0.000375
    26  H    0.007262   0.538897  -0.027755  -0.002904   0.006941   0.000864
    27  H   -0.002427  -0.027755   0.561665  -0.007740  -0.003784  -0.000523
    28  H    0.000054  -0.002904  -0.007740   0.556664  -0.025595   0.006547
    29  H    0.002830   0.006941  -0.003784  -0.025595   0.559358  -0.003901
    30  H    0.000375   0.000864  -0.000523   0.006547  -0.003901   0.546209
    31  H   -0.000083  -0.000096  -0.000323  -0.005554  -0.003534  -0.024421
    32  H    0.000090   0.002543   0.000132  -0.003987   0.007799  -0.031053
              31         32
     1  O    0.000000   0.000000
     2  C    0.000000   0.000000
     3  C   -0.000000   0.000000
     4  C   -0.000000  -0.000000
     5  C    0.000001   0.000003
     6  C   -0.000000   0.000043
     7  C    0.000027  -0.000159
     8  C   -0.000125  -0.004023
     9  C    0.011896   0.003900
    10  C   -0.045444  -0.046809
    11  C    0.417053   0.406959
    12  O    0.000000   0.000000
    13  H    0.000000   0.000000
    14  H    0.000000  -0.000000
    15  H   -0.000000  -0.000000
    16  H   -0.000000   0.000000
    17  H    0.000000  -0.000000
    18  H   -0.000000   0.000000
    19  H    0.000001  -0.000005
    20  H    0.000000  -0.000003
    21  H   -0.000000  -0.000000
    22  H   -0.000002   0.000014
    23  H   -0.000004  -0.000034
    24  H    0.000222   0.000776
    25  H   -0.000083   0.000090
    26  H   -0.000096   0.002543
    27  H   -0.000323   0.000132
    28  H   -0.005554  -0.003987
    29  H   -0.003534   0.007799
    30  H   -0.024421  -0.031053
    31  H    0.531427  -0.023642
    32  H   -0.023642   0.550495
 Mulliken charges:
               1
     1  O   -0.409234
     2  C    0.342729
     3  C   -0.328047
     4  C   -0.254942
     5  C   -0.347601
     6  C   -0.300879
     7  C   -0.262843
     8  C   -0.301625
     9  C   -0.302709
    10  C   -0.238918
    11  C   -0.439309
    12  O   -0.338166
    13  H    0.334431
    14  H    0.175689
    15  H    0.174391
    16  H    0.145001
    17  H    0.166546
    18  H    0.175369
    19  H    0.147054
    20  H    0.149330
    21  H    0.151901
    22  H    0.143708
    23  H    0.151374
    24  H    0.139656
    25  H    0.148086
    26  H    0.154106
    27  H    0.137789
    28  H    0.134682
    29  H    0.133475
    30  H    0.139397
    31  H    0.142601
    32  H    0.136961
 Sum of Mulliken charges =  -0.00000
 Mulliken charges with hydrogens summed into heavy atoms:
               1
     1  O   -0.074803
     2  C    0.342729
     3  C    0.022033
     4  C    0.056604
     5  C   -0.025179
     6  C    0.000351
     7  C    0.032240
     8  C   -0.013883
     9  C   -0.010814
    10  C    0.029238
    11  C   -0.020350
    12  O   -0.338166
 Electronic spatial extent (au):  <R**2>=           4276.3149
 Charge=              0.0000 electrons
 Dipole moment (field-independent basis, Debye):
    X=             -0.2161    Y=             -1.1402    Z=              0.8733  Tot=              1.4524
 Quadrupole moment (field-independent basis, Debye-Ang):
   XX=            -76.5420   YY=            -79.5133   ZZ=            -75.6984
   XY=             -4.9450   XZ=              0.5835   YZ=              2.3014
 Traceless Quadrupole moment (field-independent basis, Debye-Ang):
   XX=              0.7092   YY=             -2.2621   ZZ=              1.5529
   XY=             -4.9450   XZ=              0.5835   YZ=              2.3014
 Octapole moment (field-independent basis, Debye-Ang**2):
  XXX=             65.5034  YYY=              0.3858  ZZZ=             -6.0922  XYY=              1.8123
  XXY=            -22.8440  XXZ=             -7.6916  XZZ=             23.1100  YZZ=             -7.6900
  YYZ=             -2.8607  XYZ=             13.4044
 Hexadecapole moment (field-independent basis, Debye-Ang**3):
 XXXX=          -4435.4328 YYYY=           -717.3740 ZZZZ=           -346.8010 XXXY=           -133.3655
 XXXZ=           -130.9817 YYYX=             -3.6869 YYYZ=              0.1100 ZZZX=            -36.2743
 ZZZY=             10.6516 XXYY=           -922.6399 XXZZ=           -778.0725 YYZZ=           -176.3124
 XXYZ=             61.4377 YYXZ=            -15.2187 ZZXY=            -38.5906
 N-N= 7.074877489928D+02 E-N=-2.679963525477D+03  KE= 5.405728114066D+02
 Unable to Open any file for archive entry.
 1\1\GINC-NOTCH075\SP\RM062X\def2TZVP\C10H20O2\U6032257\03-Feb-2022\0\\
 # M062X/def2tzvp int=(grid=ultrafine) nmr=giao guess=read geom=check\\
 Ac1.xyz\\0,1\O,0,6.4329272407,-0.4548345833,0.1294097344\C,0,5.0890035
 422,-0.6386807278,0.1238602961\C,0,4.7291804881,-2.1057867315,0.048123
 6306\C,0,3.2470269463,-2.3467358378,-0.2396380258\C,0,2.8337256419,-1.
 9563068511,-1.6612685909\C,0,1.3403576302,-2.1817659552,-1.9247831373\
 C,0,0.8822064862,-1.8355725655,-3.3559461683\C,0,0.8705489452,-3.01044
 68173,-4.3461220725\C,0,2.2261301533,-3.6843195013,-4.5843540076\C,0,2
 .1903285693,-4.8083953505,-5.6304854451\C,0,1.8883852054,-4.3328156795
 ,-7.0546586479\O,0,4.3094532522,0.2864089381,0.1948662425\H,0,6.570615
 18,0.5044847019,0.205937786\H,0,5.0233847512,-2.5497188512,1.007926124
 \H,0,5.3700741059,-2.5769656531,-0.7058880997\H,0,3.026818631,-3.40824
 49966,-0.0731869359\H,0,2.6498945185,-1.7797013265,0.4830426209\H,0,3.
 0653850711,-0.8974305176,-1.8234179349\H,0,3.4372423309,-2.5224063331,
 -2.3808274749\H,0,1.0782016806,-3.2256674826,-1.7000494321\H,0,0.77838
 78165,-1.5719625248,-1.2064720025\H,0,-0.1335472446,-1.4245875308,-3.3
 173955762\H,0,1.5153701434,-1.0300852161,-3.7526884178\H,0,0.471426072
 3,-2.6474920586,-5.300932946\H,0,0.1592332709,-3.7691434549,-3.9892296
 721\H,0,2.9614147418,-2.9269629407,-4.8919755517\H,0,2.5926495513,-4.1
 016201671,-3.6391429208\H,0,3.1583920731,-5.3246882729,-5.6256894814\H
 ,0,1.4454173487,-5.5570973739,-5.3283801495\H,0,0.8916719359,-3.888379
 5255,-7.1342691804\H,0,1.9343451339,-5.1633147956,-7.7662367799\H,0,2.
 6140487866,-3.5771640175,-7.3768277833\\Version=ES64L-G16RevC.01\State
 =1-A\HF=-543.5403982\RMSD=2.841e-09\Dipole=0.3227816,-0.4697234,-0.041
 1577\Quadrupole=2.0479297,-1.4796749,-0.5682547,2.564046,1.8110858,-2.
 3758317\PG=C01 [X(C10H20O2)]\\@
 The archive entry for this job was punched.


 "TIGER, TIGER BURNING BRIGHT
 IN THE FOREST OF THE NIGHT.
 WHAT IMMORTAL HAND OR EYE
 CAN FRAME THY FEARFUL SYMMETRYE?"
                     - WILLIAM BLAKE
 Job cpu time:       0 days  0 hours 36 minutes 38.9 seconds.
 Elapsed time:       0 days  0 hours  1 minutes 19.4 seconds.
 File lengths (MBytes):  RWF=    140 Int=      0 D2E=      0 Chk=     24 Scr=      1
 Normal termination of Gaussian 16 at Thu Feb  3 08:49:17 2022.
