 Entering Gaussian System, Link 0=/uufs/chpc.utah.edu/sys/installdir/gaussian16/C01/AVX2/g16/g16
 Input=Ac1_clust-3.com
 Output=Ac1_clust-3.log
 Initial command:
 /uufs/chpc.utah.edu/sys/installdir/gaussian16/C01/AVX2/g16/l1.exe "/scratch/general/lustre/u6032257/3857497/notchpeak.peaks/Gau-57234.inp" -scrdir="/scratch/general/lustre/u6032257/3857497/notchpeak.peaks/"
 Entering Link 1 = /uufs/chpc.utah.edu/sys/installdir/gaussian16/C01/AVX2/g16/l1.exe PID=     57236.
  
 Copyright (c) 1988-2019, Gaussian, Inc.  All Rights Reserved.
  
 This is part of the Gaussian(R) 16 program.  It is based on
 the Gaussian(R) 09 system (copyright 2009, Gaussian, Inc.),
 the Gaussian(R) 03 system (copyright 2003, Gaussian, Inc.),
 the Gaussian(R) 98 system (copyright 1998, Gaussian, Inc.),
 the Gaussian(R) 94 system (copyright 1995, Gaussian, Inc.),
 the Gaussian 92(TM) system (copyright 1992, Gaussian, Inc.),
 the Gaussian 90(TM) system (copyright 1990, Gaussian, Inc.),
 the Gaussian 88(TM) system (copyright 1988, Gaussian, Inc.),
 the Gaussian 86(TM) system (copyright 1986, Carnegie Mellon
 University), and the Gaussian 82(TM) system (copyright 1983,
 Carnegie Mellon University). Gaussian is a federally registered
 trademark of Gaussian, Inc.
  
 This software contains proprietary and confidential information,
 including trade secrets, belonging to Gaussian, Inc.
  
 This software is provided under written license and may be
 used, copied, transmitted, or stored only in accord with that
 written license.
  
 The following legend is applicable only to US Government
 contracts under FAR:
  
                    RESTRICTED RIGHTS LEGEND
  
 Use, reproduction and disclosure by the US Government is
 subject to restrictions as set forth in subparagraphs (a)
 and (c) of the Commercial Computer Software - Restricted
 Rights clause in FAR 52.227-19.
  
 Gaussian, Inc.
 340 Quinnipiac St., Bldg. 40, Wallingford CT 06492
  
  
 ---------------------------------------------------------------
 Warning -- This program may not be used in any manner that
 competes with the business of Gaussian, Inc. or will provide
 assistance to any competitor of Gaussian, Inc.  The licensee
 of this program is prohibited from giving any competitor of
 Gaussian, Inc. access to this program.  By using this program,
 the user acknowledges that Gaussian, Inc. is engaged in the
 business of creating and licensing software in the field of
 computational chemistry and represents and warrants to the
 licensee that it is not a competitor of Gaussian, Inc. and that
 it will not use this program in any manner prohibited above.
 ---------------------------------------------------------------
  

 Cite this work as:
 Gaussian 16, Revision C.01,
 M. J. Frisch, G. W. Trucks, H. B. Schlegel, G. E. Scuseria, 
 M. A. Robb, J. R. Cheeseman, G. Scalmani, V. Barone, 
 G. A. Petersson, H. Nakatsuji, X. Li, M. Caricato, A. V. Marenich, 
 J. Bloino, B. G. Janesko, R. Gomperts, B. Mennucci, H. P. Hratchian, 
 J. V. Ortiz, A. F. Izmaylov, J. L. Sonnenberg, D. Williams-Young, 
 F. Ding, F. Lipparini, F. Egidi, J. Goings, B. Peng, A. Petrone, 
 T. Henderson, D. Ranasinghe, V. G. Zakrzewski, J. Gao, N. Rega, 
 G. Zheng, W. Liang, M. Hada, M. Ehara, K. Toyota, R. Fukuda, 
 J. Hasegawa, M. Ishida, T. Nakajima, Y. Honda, O. Kitao, H. Nakai, 
 T. Vreven, K. Throssell, J. A. Montgomery, Jr., J. E. Peralta, 
 F. Ogliaro, M. J. Bearpark, J. J. Heyd, E. N. Brothers, K. N. Kudin, 
 V. N. Staroverov, T. A. Keith, R. Kobayashi, J. Normand, 
 K. Raghavachari, A. P. Rendell, J. C. Burant, S. S. Iyengar, 
 J. Tomasi, M. Cossi, J. M. Millam, M. Klene, C. Adamo, R. Cammi, 
 J. W. Ochterski, R. L. Martin, K. Morokuma, O. Farkas, 
 J. B. Foresman, and D. J. Fox, Gaussian, Inc., Wallingford CT, 2019.
 
 ******************************************
 Gaussian 16:  ES64L-G16RevC.01  3-Jul-2019
                 3-Feb-2022 
 ******************************************
 %NProcShared=32
 Will use up to   32 processors via shared memory.
 %mem=16GB
 %chk=Ac1_clust-3.chk
 ----------------------------------------------------------------------
 # B3LYP/6-31G(d,p) empiricaldispersion=GD3BJ int=(grid=ultrafine) opt 
 freq=noraman
 ----------------------------------------------------------------------
 1/18=20,19=15,26=4,38=1/1,3;
 2/9=110,12=2,17=6,18=5,40=1/2;
 3/5=1,6=6,7=101,11=2,25=1,30=1,71=1,74=-5,75=-5,124=41/1,2,3;
 4//1;
 5/5=2,38=5/2;
 6/7=2,8=2,9=2,10=2,28=1/1;
 7//1,2,3,16;
 1/18=20,19=15,26=4/3(2);
 2/9=110/2;
 99//99;
 2/9=110/2;
 3/5=1,6=6,7=101,11=2,25=1,30=1,71=1,74=-5,75=-5,124=41/1,2,3;
 4/5=5,16=3,69=1/1;
 5/5=2,38=5/2;
 7//1,2,3,16;
 1/18=20,19=15,26=4/3(-5);
 2/9=110/2;
 6/7=2,8=2,9=2,10=2,19=2,28=1/1;
 99/9=1/99;
 -------
 Ac1.xyz
 -------
 Symbolic Z-matrix:
 Charge =  0 Multiplicity = 1
 O                     4.8696   -0.0652   -1.5999 
 C                     4.8722   -0.4757   -0.313 
 C                     3.4696   -0.542     0.2865 
 C                     2.4967   -1.5076   -0.4342 
 C                     2.912    -2.993    -0.3625 
 C                     1.8941   -3.9664   -0.994 
 C                     1.6038   -3.7487   -2.4946 
 C                     2.8459   -3.8679   -3.4018 
 C                     2.5341   -3.801    -4.9097 
 C                     2.0032   -2.4344   -5.3822 
 C                     1.7949   -2.3749   -6.9019 
 O                     5.8923   -0.7449    0.3037 
 H                     5.7943   -0.0672   -1.848 
 H                     3.0715    0.4719    0.2691 
 H                     3.5599   -0.812     1.3387 
 H                     1.5048   -1.3978    0.0078 
 H                     2.3852   -1.199    -1.4758 
 H                     3.8873   -3.1331   -0.8306 
 H                     3.0536   -3.2711    0.6834 
 H                     2.2493   -4.9881   -0.848 
 H                     0.9552   -3.906    -0.4411 
 H                     0.8612   -4.4828   -2.8119 
 H                     1.129    -2.7776   -2.6356 
 H                     3.3482   -4.8137   -3.1919 
 H                     3.5664   -3.0873   -3.1522 
 H                     3.4463   -4.036    -5.4612 
 H                     1.821    -4.5849   -5.171 
 H                     1.0574   -2.2093   -4.8877 
 H                     2.6974   -1.647    -5.0832 
 H                     1.075    -3.1241   -7.2335 
 H                     1.4174   -1.3981   -7.2065 
 H                     2.7286   -2.5486   -7.4383 
 

 GradGradGradGradGradGradGradGradGradGradGradGradGradGradGradGradGradGrad
 Berny optimization.
 Initialization pass.
                           ----------------------------
                           !    Initial Parameters    !
                           ! (Angstroms and Degrees)  !
 --------------------------                            --------------------------
 ! Name  Definition              Value          Derivative Info.                !
 --------------------------------------------------------------------------------
 ! R1    R(1,2)                  1.3508         estimate D2E/DX2                !
 ! R2    R(1,13)                 0.9574         estimate D2E/DX2                !
 ! R3    R(2,3)                  1.5268         estimate D2E/DX2                !
 ! R4    R(2,12)                 1.222          estimate D2E/DX2                !
 ! R5    R(3,4)                  1.5487         estimate D2E/DX2                !
 ! R6    R(3,14)                 1.0894         estimate D2E/DX2                !
 ! R7    R(3,15)                 1.09           estimate D2E/DX2                !
 ! R8    R(4,5)                  1.544          estimate D2E/DX2                !
 ! R9    R(4,16)                 1.0915         estimate D2E/DX2                !
 ! R10   R(4,17)                 1.0921         estimate D2E/DX2                !
 ! R11   R(5,6)                  1.5435         estimate D2E/DX2                !
 ! R12   R(5,18)                 1.0909         estimate D2E/DX2                !
 ! R13   R(5,19)                 1.0915         estimate D2E/DX2                !
 ! R14   R(6,7)                  1.5438         estimate D2E/DX2                !
 ! R15   R(6,20)                 1.0915         estimate D2E/DX2                !
 ! R16   R(6,21)                 1.0913         estimate D2E/DX2                !
 ! R17   R(7,8)                  1.5427         estimate D2E/DX2                !
 ! R18   R(7,22)                 1.0913         estimate D2E/DX2                !
 ! R19   R(7,23)                 1.0901         estimate D2E/DX2                !
 ! R20   R(8,9)                  1.5413         estimate D2E/DX2                !
 ! R21   R(8,24)                 1.0913         estimate D2E/DX2                !
 ! R22   R(8,25)                 1.0912         estimate D2E/DX2                !
 ! R23   R(9,10)                 1.5404         estimate D2E/DX2                !
 ! R24   R(9,26)                 1.0916         estimate D2E/DX2                !
 ! R25   R(9,27)                 1.0915         estimate D2E/DX2                !
 ! R26   R(10,11)                1.5351         estimate D2E/DX2                !
 ! R27   R(10,28)                1.0908         estimate D2E/DX2                !
 ! R28   R(10,29)                1.0915         estimate D2E/DX2                !
 ! R29   R(11,30)                1.0906         estimate D2E/DX2                !
 ! R30   R(11,31)                1.0906         estimate D2E/DX2                !
 ! R31   R(11,32)                1.0907         estimate D2E/DX2                !
 ! A1    A(2,1,13)             104.1456         estimate D2E/DX2                !
 ! A2    A(1,2,3)              112.6755         estimate D2E/DX2                !
 ! A3    A(1,2,12)             123.321          estimate D2E/DX2                !
 ! A4    A(3,2,12)             123.9959         estimate D2E/DX2                !
 ! A5    A(2,3,4)              114.9274         estimate D2E/DX2                !
 ! A6    A(2,3,14)             106.7994         estimate D2E/DX2                !
 ! A7    A(2,3,15)             108.281          estimate D2E/DX2                !
 ! A8    A(4,3,14)             110.0777         estimate D2E/DX2                !
 ! A9    A(4,3,15)             110.2929         estimate D2E/DX2                !
 ! A10   A(14,3,15)            106.0349         estimate D2E/DX2                !
 ! A11   A(3,4,5)              114.1577         estimate D2E/DX2                !
 ! A12   A(3,4,16)             108.6469         estimate D2E/DX2                !
 ! A13   A(3,4,17)             109.379          estimate D2E/DX2                !
 ! A14   A(5,4,16)             108.8088         estimate D2E/DX2                !
 ! A15   A(5,4,17)             110.0968         estimate D2E/DX2                !
 ! A16   A(16,4,17)            105.369          estimate D2E/DX2                !
 ! A17   A(4,5,6)              114.2247         estimate D2E/DX2                !
 ! A18   A(4,5,18)             110.1274         estimate D2E/DX2                !
 ! A19   A(4,5,19)             108.9361         estimate D2E/DX2                !
 ! A20   A(6,5,18)             109.4544         estimate D2E/DX2                !
 ! A21   A(6,5,19)             108.477          estimate D2E/DX2                !
 ! A22   A(18,5,19)            105.2176         estimate D2E/DX2                !
 ! A23   A(5,6,7)              115.6421         estimate D2E/DX2                !
 ! A24   A(5,6,20)             108.7223         estimate D2E/DX2                !
 ! A25   A(5,6,21)             108.9774         estimate D2E/DX2                !
 ! A26   A(7,6,20)             108.8567         estimate D2E/DX2                !
 ! A27   A(7,6,21)             108.837          estimate D2E/DX2                !
 ! A28   A(20,6,21)            105.309          estimate D2E/DX2                !
 ! A29   A(6,7,8)              114.1599         estimate D2E/DX2                !
 ! A30   A(6,7,22)             108.4027         estimate D2E/DX2                !
 ! A31   A(6,7,23)             109.4653         estimate D2E/DX2                !
 ! A32   A(8,7,22)             108.9596         estimate D2E/DX2                !
 ! A33   A(8,7,23)             110.0868         estimate D2E/DX2                !
 ! A34   A(22,7,23)            105.3814         estimate D2E/DX2                !
 ! A35   A(7,8,9)              114.1475         estimate D2E/DX2                !
 ! A36   A(7,8,24)             108.932          estimate D2E/DX2                !
 ! A37   A(7,8,25)             109.9881         estimate D2E/DX2                !
 ! A38   A(9,8,24)             108.5974         estimate D2E/DX2                !
 ! A39   A(9,8,25)             109.045          estimate D2E/DX2                !
 ! A40   A(24,8,25)            105.7877         estimate D2E/DX2                !
 ! A41   A(8,9,10)             114.1009         estimate D2E/DX2                !
 ! A42   A(8,9,26)             108.4153         estimate D2E/DX2                !
 ! A43   A(8,9,27)             109.586          estimate D2E/DX2                !
 ! A44   A(10,9,26)            108.9081         estimate D2E/DX2                !
 ! A45   A(10,9,27)            109.7901         estimate D2E/DX2                !
 ! A46   A(26,9,27)            105.6888         estimate D2E/DX2                !
 ! A47   A(9,10,11)            112.6334         estimate D2E/DX2                !
 ! A48   A(9,10,28)            110.0527         estimate D2E/DX2                !
 ! A49   A(9,10,29)            109.6815         estimate D2E/DX2                !
 ! A50   A(11,10,28)           108.8541         estimate D2E/DX2                !
 ! A51   A(11,10,29)           109.241          estimate D2E/DX2                !
 ! A52   A(28,10,29)           106.1664         estimate D2E/DX2                !
 ! A53   A(10,11,30)           111.3422         estimate D2E/DX2                !
 ! A54   A(10,11,31)           110.9887         estimate D2E/DX2                !
 ! A55   A(10,11,32)           111.3785         estimate D2E/DX2                !
 ! A56   A(30,11,31)           107.5692         estimate D2E/DX2                !
 ! A57   A(30,11,32)           107.8257         estimate D2E/DX2                !
 ! A58   A(31,11,32)           107.5529         estimate D2E/DX2                !
 ! D1    D(13,1,2,3)           179.9298         estimate D2E/DX2                !
 ! D2    D(13,1,2,12)            0.8988         estimate D2E/DX2                !
 ! D3    D(1,2,3,4)             60.0636         estimate D2E/DX2                !
 ! D4    D(1,2,3,14)           -62.3314         estimate D2E/DX2                !
 ! D5    D(1,2,3,15)          -176.1354         estimate D2E/DX2                !
 ! D6    D(12,2,3,4)          -120.913          estimate D2E/DX2                !
 ! D7    D(12,2,3,14)          116.6921         estimate D2E/DX2                !
 ! D8    D(12,2,3,15)            2.8881         estimate D2E/DX2                !
 ! D9    D(2,3,4,5)             64.2423         estimate D2E/DX2                !
 ! D10   D(2,3,4,16)          -174.1372         estimate D2E/DX2                !
 ! D11   D(2,3,4,17)           -59.6045         estimate D2E/DX2                !
 ! D12   D(14,3,4,5)          -175.1465         estimate D2E/DX2                !
 ! D13   D(14,3,4,16)          -53.5261         estimate D2E/DX2                !
 ! D14   D(14,3,4,17)           61.0067         estimate D2E/DX2                !
 ! D15   D(15,3,4,5)           -58.4854         estimate D2E/DX2                !
 ! D16   D(15,3,4,16)           63.135          estimate D2E/DX2                !
 ! D17   D(15,3,4,17)          177.6678         estimate D2E/DX2                !
 ! D18   D(3,4,5,6)            175.9339         estimate D2E/DX2                !
 ! D19   D(3,4,5,18)           -60.4333         estimate D2E/DX2                !
 ! D20   D(3,4,5,19)            54.4826         estimate D2E/DX2                !
 ! D21   D(16,4,5,6)            54.4028         estimate D2E/DX2                !
 ! D22   D(16,4,5,18)          178.0355         estimate D2E/DX2                !
 ! D23   D(16,4,5,19)          -67.0486         estimate D2E/DX2                !
 ! D24   D(17,4,5,6)           -60.6062         estimate D2E/DX2                !
 ! D25   D(17,4,5,18)           63.0266         estimate D2E/DX2                !
 ! D26   D(17,4,5,19)          177.9425         estimate D2E/DX2                !
 ! D27   D(4,5,6,7)             60.1714         estimate D2E/DX2                !
 ! D28   D(4,5,6,20)          -177.0614         estimate D2E/DX2                !
 ! D29   D(4,5,6,21)           -62.7719         estimate D2E/DX2                !
 ! D30   D(18,5,6,7)           -63.8229         estimate D2E/DX2                !
 ! D31   D(18,5,6,20)           58.9443         estimate D2E/DX2                !
 ! D32   D(18,5,6,21)          173.2338         estimate D2E/DX2                !
 ! D33   D(19,5,6,7)          -178.1244         estimate D2E/DX2                !
 ! D34   D(19,5,6,20)          -55.3572         estimate D2E/DX2                !
 ! D35   D(19,5,6,21)           58.9324         estimate D2E/DX2                !
 ! D36   D(5,6,7,8)             59.396          estimate D2E/DX2                !
 ! D37   D(5,6,7,22)          -178.9674         estimate D2E/DX2                !
 ! D38   D(5,6,7,23)           -64.5062         estimate D2E/DX2                !
 ! D39   D(20,6,7,8)           -63.3001         estimate D2E/DX2                !
 ! D40   D(20,6,7,22)           58.3365         estimate D2E/DX2                !
 ! D41   D(20,6,7,23)          172.7977         estimate D2E/DX2                !
 ! D42   D(21,6,7,8)          -177.5866         estimate D2E/DX2                !
 ! D43   D(21,6,7,22)          -55.95           estimate D2E/DX2                !
 ! D44   D(21,6,7,23)           58.5112         estimate D2E/DX2                !
 ! D45   D(6,7,8,9)            173.79           estimate D2E/DX2                !
 ! D46   D(6,7,8,24)            52.2388         estimate D2E/DX2                !
 ! D47   D(6,7,8,25)           -63.2815         estimate D2E/DX2                !
 ! D48   D(22,7,8,9)            52.4609         estimate D2E/DX2                !
 ! D49   D(22,7,8,24)          -69.0903         estimate D2E/DX2                !
 ! D50   D(22,7,8,25)          175.3894         estimate D2E/DX2                !
 ! D51   D(23,7,8,9)           -62.6424         estimate D2E/DX2                !
 ! D52   D(23,7,8,24)          175.8064         estimate D2E/DX2                !
 ! D53   D(23,7,8,25)           60.2861         estimate D2E/DX2                !
 ! D54   D(7,8,9,10)            66.457          estimate D2E/DX2                !
 ! D55   D(7,8,9,26)          -172.0026         estimate D2E/DX2                !
 ! D56   D(7,8,9,27)           -57.1062         estimate D2E/DX2                !
 ! D57   D(24,8,9,10)         -171.8074         estimate D2E/DX2                !
 ! D58   D(24,8,9,26)          -50.2669         estimate D2E/DX2                !
 ! D59   D(24,8,9,27)           64.6295         estimate D2E/DX2                !
 ! D60   D(25,8,9,10)          -56.9827         estimate D2E/DX2                !
 ! D61   D(25,8,9,26)           64.5578         estimate D2E/DX2                !
 ! D62   D(25,8,9,27)          179.4542         estimate D2E/DX2                !
 ! D63   D(8,9,10,11)          176.0823         estimate D2E/DX2                !
 ! D64   D(8,9,10,28)          -62.2557         estimate D2E/DX2                !
 ! D65   D(8,9,10,29)           54.1898         estimate D2E/DX2                !
 ! D66   D(26,9,10,11)          54.8145         estimate D2E/DX2                !
 ! D67   D(26,9,10,28)         176.4765         estimate D2E/DX2                !
 ! D68   D(26,9,10,29)         -67.0781         estimate D2E/DX2                !
 ! D69   D(27,9,10,11)         -60.4649         estimate D2E/DX2                !
 ! D70   D(27,9,10,28)          61.1972         estimate D2E/DX2                !
 ! D71   D(27,9,10,29)         177.6426         estimate D2E/DX2                !
 ! D72   D(9,10,11,30)          60.0853         estimate D2E/DX2                !
 ! D73   D(9,10,11,31)         179.8879         estimate D2E/DX2                !
 ! D74   D(9,10,11,32)         -60.306          estimate D2E/DX2                !
 ! D75   D(28,10,11,30)        -62.2542         estimate D2E/DX2                !
 ! D76   D(28,10,11,31)         57.5484         estimate D2E/DX2                !
 ! D77   D(28,10,11,32)        177.3544         estimate D2E/DX2                !
 ! D78   D(29,10,11,30)       -177.7733         estimate D2E/DX2                !
 ! D79   D(29,10,11,31)        -57.9707         estimate D2E/DX2                !
 ! D80   D(29,10,11,32)         61.8354         estimate D2E/DX2                !
 --------------------------------------------------------------------------------
 Trust Radius=3.00D-01 FncErr=1.00D-07 GrdErr=1.00D-06 EigMax=2.50D+02 EigMin=1.00D-04
 Number of steps in this run=    179 maximum allowed number of steps=    192.
 GradGradGradGradGradGradGradGradGradGradGradGradGradGradGradGradGradGrad

                          Input orientation:                          
 ---------------------------------------------------------------------
 Center     Atomic      Atomic             Coordinates (Angstroms)
 Number     Number       Type             X           Y           Z
 ---------------------------------------------------------------------
      1          8           0        4.869600   -0.065200   -1.599900
      2          6           0        4.872200   -0.475700   -0.313000
      3          6           0        3.469600   -0.542000    0.286500
      4          6           0        2.496700   -1.507600   -0.434200
      5          6           0        2.912000   -2.993000   -0.362500
      6          6           0        1.894100   -3.966400   -0.994000
      7          6           0        1.603800   -3.748700   -2.494600
      8          6           0        2.845900   -3.867900   -3.401800
      9          6           0        2.534100   -3.801000   -4.909700
     10          6           0        2.003200   -2.434400   -5.382200
     11          6           0        1.794900   -2.374900   -6.901900
     12          8           0        5.892300   -0.744900    0.303700
     13          1           0        5.794300   -0.067200   -1.848000
     14          1           0        3.071500    0.471900    0.269100
     15          1           0        3.559900   -0.812000    1.338700
     16          1           0        1.504800   -1.397800    0.007800
     17          1           0        2.385200   -1.199000   -1.475800
     18          1           0        3.887300   -3.133100   -0.830600
     19          1           0        3.053600   -3.271100    0.683400
     20          1           0        2.249300   -4.988100   -0.848000
     21          1           0        0.955200   -3.906000   -0.441100
     22          1           0        0.861200   -4.482800   -2.811900
     23          1           0        1.129000   -2.777600   -2.635600
     24          1           0        3.348200   -4.813700   -3.191900
     25          1           0        3.566400   -3.087300   -3.152200
     26          1           0        3.446300   -4.036000   -5.461200
     27          1           0        1.821000   -4.584900   -5.171000
     28          1           0        1.057400   -2.209300   -4.887700
     29          1           0        2.697400   -1.647000   -5.083200
     30          1           0        1.075000   -3.124100   -7.233500
     31          1           0        1.417400   -1.398100   -7.206500
     32          1           0        2.728600   -2.548600   -7.438300
 ---------------------------------------------------------------------
                    Distance matrix (angstroms):
                    1          2          3          4          5
     1  O    0.000000
     2  C    1.350788   0.000000
     3  C    2.397049   1.526788   0.000000
     4  C    3.011649   2.592780   1.548653   0.000000
     5  C    3.733011   3.190867   2.596059   1.544030   0.000000
     6  C    4.943691   4.638731   3.981004   2.592721   1.543509
     7  C    5.003410   5.114132   4.636664   3.172546   2.613105
     8  C    4.669340   5.015336   5.005414   3.807835   3.163410
     9  C    5.510493   6.136284   6.204574   5.029034   4.633865
    10  C    5.304258   6.145279   6.153508   5.058182   5.131797
    11  C    6.549786   7.516006   7.605080   6.563221   6.662861
    12  O    2.265304   1.222044   2.431242   3.557570   3.792092
    13  H    0.957407   1.836672   3.191513   3.866232   4.367456
    14  H    2.648547   2.116437   1.089394   2.177945   3.525605
    15  H    3.302786   2.136198   1.090036   2.181153   2.840883
    16  H    3.960101   3.506075   2.161135   1.091460   2.159166
    17  H    2.733706   2.839091   2.171008   1.092061   2.176095
    18  H    3.311910   2.880922   2.852400   2.175581   1.090851
    19  H    4.334641   3.480572   2.789009   2.160810   1.091466
    20  H    5.627279   5.246674   4.748055   3.513733   2.157616
    21  H    5.605095   5.208287   4.262406   2.851069   2.160744
    22  H    6.086986   6.195924   5.650994   4.144892   3.524889
    23  H    4.735174   4.970388   4.360617   2.886116   2.896976
    24  H    5.234250   5.424840   5.510120   4.388651   3.392746
    25  H    3.638826   4.072668   4.279320   3.320728   2.866977
    26  H    5.718625   6.419727   6.726413   5.706599   5.231641
    27  H    6.517239   7.056593   6.989079   5.688903   5.181322
    28  H    5.471715   6.203704   5.947348   4.732613   4.952894
    29  H    4.399309   5.371825   5.536334   4.655418   4.913530
    30  H    7.449383   8.326228   8.303719   7.131955   7.113536
    31  H    6.717758   7.765746   7.815976   6.858639   7.184558
    32  H    6.696124   7.724107   8.015489   7.084834   7.092113
                    6          7          8          9         10
     6  C    0.000000
     7  C    1.543848   0.000000
     8  C    2.590970   1.542736   0.000000
     9  C    3.971104   2.588610   1.541252   0.000000
    10  C    4.649218   3.197677   2.585933   1.540359   0.000000
    11  C    6.119313   4.620405   3.947702   2.559109   1.535063
    12  O    5.296007   5.936710   5.724021   6.913523   7.092881
    13  H    5.580738   5.615320   5.054966   5.826163   5.697951
    14  H    4.762373   5.254107   5.688608   6.735462   6.443992
    15  H    4.262232   5.210060   5.685126   7.002063   7.087030
    16  H    2.784396   3.434900   4.418746   5.569258   5.511356
    17  H    2.851633   2.854735   3.323364   4.310945   4.114863
    18  H    2.166549   2.891752   2.869759   4.349287   4.975447
    19  H    2.154426   3.525579   4.133784   5.642113   6.212480
    20  H    1.091492   2.159647   2.851784   4.241194   5.209695
    21  H    1.091274   2.159233   3.513110   4.740500   5.261025
    22  H    2.153674   1.091346   2.159888   2.768431   3.479447
    23  H    2.166443   1.090115   2.173376   2.862374   2.902727
    24  H    2.768228   2.159487   1.091284   2.153870   3.502500
    25  H    2.868315   2.172944   1.091218   2.159587   2.800495
    26  H    4.729698   3.504007   2.151712   1.091552   2.157290
    27  H    4.223176   2.812387   2.166697   1.091462   2.168514
    28  H    4.352972   2.897453   2.856149   2.171321   1.090751
    29  H    4.769325   3.509124   2.789544   2.167138   1.091473
    30  H    6.349154   4.809046   4.286170   2.826166   2.182786
    31  H    6.739330   5.268972   4.755656   3.506599   2.178336
    32  H    6.650981   5.210142   4.248252   2.828454   2.183299
                   11         12         13         14         15
    11  C    0.000000
    12  O    8.447855   0.000000
    13  H    6.845625   2.258029   0.000000
    14  H    7.820308   3.072249   3.490900   0.000000
    15  H    8.571194   2.552610   3.962616   1.740970   0.000000
    16  H    6.984471   4.445671   4.859455   2.453284   2.517517
    17  H    5.583346   3.958861   3.611297   2.511492   3.074264
    18  H    6.466350   3.318156   3.751199   3.856280   3.193831
    19  H    7.741077   3.818910   4.917763   3.765901   2.594789
    20  H    6.609463   5.709869   6.146729   5.633429   4.892764
    21  H    6.692630   5.909504   6.335033   4.914175   4.418709
    22  H    4.695012   6.999345   6.690449   6.239154   6.163216
    23  H    4.336693   5.954862   5.452670   4.771775   5.056473
    24  H    4.703678   5.936901   5.506245   6.323974   6.048533
    25  H    4.207847   4.779110   3.973095   4.961665   5.034403
    26  H    2.749908   7.074484   5.858301   7.300546   7.526335
    27  H    2.807276   7.829012   6.873067   7.531910   7.722353
    28  H    2.151356   7.243712   6.022175   6.151262   6.854415
    29  H    2.156853   6.327706   4.749008   5.768605   6.533141
    30  H    1.090649   9.256152   7.785887   8.556064   9.219715
    31  H    1.090608   8.766670   7.045713   7.881468   8.829171
    32  H    1.090730   8.555752   6.841587   8.285229   8.985687
                   16         17         18         19         20
    16  H    0.000000
    17  H    1.736576   0.000000
    18  H    3.064390   2.532455   0.000000
    19  H    2.522790   3.066350   1.733867   0.000000
    20  H    3.765226   3.843160   2.474747   2.437247   0.000000
    21  H    2.606653   3.231618   3.057171   2.463916   1.735282
    22  H    4.228730   3.858896   3.860637   4.300228   2.457448
    23  H    3.005435   2.327048   3.315513   3.868254   3.055634
    24  H    5.030365   4.115632   2.948013   4.181430   2.594584
    25  H    4.134030   2.787692   2.344121   3.874090   3.264526
    26  H    6.374910   5.005788   4.738372   6.204466   4.860136
    27  H    6.089134   5.043525   5.021592   6.125306   4.362836
    28  H    4.982431   3.798002   5.032077   6.012436   5.045942
    29  H    5.234757   3.648494   4.659288   6.001521   5.413009
    30  H    7.456626   6.210776   6.993300   8.161726   6.754857
    31  H    7.214829   5.815256   7.054270   8.272593   7.349196
    32  H    7.633245   6.122969   6.733938   8.160248   7.043646
                   21         22         23         24         25
    21  H    0.000000
    22  H    2.441767   0.000000
    23  H    2.473727   1.735081   0.000000
    24  H    3.757295   2.537531   3.062682   0.000000
    25  H    3.852103   3.062896   2.510719   1.740587   0.000000
    26  H    5.605701   3.728426   3.864902   2.400867   2.499187
    27  H    4.856178   2.548920   3.189585   2.510284   3.060193
    28  H    4.760408   3.084841   2.323800   3.860881   3.174575
    29  H    5.448618   4.070896   3.119115   3.745470   2.560935
    30  H    6.838305   4.630586   4.611254   4.935252   4.781782
    31  H    7.230064   5.397892   4.783233   5.613495   4.889678
    32  H    7.344950   5.350877   5.067257   4.852473   4.400314
                   26         27         28         29         30
    26  H    0.000000
    27  H    1.739858   0.000000
    28  H    3.061467   2.511338   0.000000
    29  H    2.532006   3.067090   1.744707   0.000000
    30  H    3.097688   2.635215   2.517925   3.072100   0.000000
    31  H    3.757795   3.802874   2.482837   2.491737   1.759842
    32  H    2.576117   3.179765   3.068158   2.521974   1.762821
                   31         32
    31  H    0.000000
    32  H    1.759724   0.000000
 Stoichiometry    C10H20O2
 Framework group  C1[X(C10H20O2)]
 Deg. of freedom    90
 Full point group                 C1      NOp   1
 Largest Abelian subgroup         C1      NOp   1
 Largest concise Abelian subgroup C1      NOp   1
                         Standard orientation:                         
 ---------------------------------------------------------------------
 Center     Atomic      Atomic             Coordinates (Angstroms)
 Number     Number       Type             X           Y           Z
 ---------------------------------------------------------------------
      1          8           0       -2.032399   -2.058282    0.007064
      2          6           0       -2.980885   -1.107908   -0.140554
      3          6           0       -2.929196   -0.049072    0.958208
      4          6           0       -1.596057    0.733877    1.047968
      5          6           0       -1.282841    1.593053   -0.196114
      6          6           0       -0.005535    2.450174   -0.068619
      7          6           0        1.304362    1.666726    0.163429
      8          6           0        1.642654    0.657357   -0.953158
      9          6           0        3.021170   -0.014554   -0.799260
     10          6           0        3.135970   -0.941245    0.425801
     11          6           0        4.487488   -1.665952    0.493735
     12          8           0       -3.800146   -1.112243   -1.047298
     13          1           0       -2.175246   -2.648387   -0.733205
     14          1           0       -3.125862   -0.561798    1.899067
     15          1           0       -3.762092    0.638329    0.810084
     16          1           0       -1.631129    1.383384    1.924436
     17          1           0       -0.777912    0.035819    1.237573
     18          1           0       -1.208313    0.959336   -1.080875
     19          1           0       -2.127144    2.257126   -0.389654
     20          1           0        0.100970    3.056441   -0.969980
     21          1           0       -0.137549    3.164886    0.745407
     22          1           0        2.122804    2.382980    0.253822
     23          1           0        1.257647    1.158004    1.126430
     24          1           0        1.611113    1.170485   -1.915762
     25          1           0        0.873588   -0.115166   -1.003182
     26          1           0        3.224942   -0.594116   -1.701518
     27          1           0        3.798538    0.750488   -0.758048
     28          1           0        2.997137   -0.367545    1.343042
     29          1           0        2.332518   -1.679711    0.404691
     30          1           0        5.314814   -0.958005    0.555846
     31          1           0        4.540603   -2.312134    1.370692
     32          1           0        4.648151   -2.290952   -0.385615
 ---------------------------------------------------------------------
 Rotational constants (GHZ):           1.1346812           0.3801517           0.3181781
 Standard basis: 6-31G(d,p) (6D, 7F)
 There are   280 symmetry adapted cartesian basis functions of A   symmetry.
 There are   280 symmetry adapted basis functions of A   symmetry.
   280 basis functions,   476 primitive gaussians,   280 cartesian basis functions
    48 alpha electrons       48 beta electrons
       nuclear repulsion energy       721.0976674876 Hartrees.
 NAtoms=   32 NActive=   32 NUniq=   32 SFac= 1.00D+00 NAtFMM=   60 NAOKFM=F Big=F
 Integral buffers will be    131072 words long.
 Raffenetti 2 integral format.
 Two-electron integral symmetry is turned on.
 Nuclear repulsion after empirical dispersion term =      721.0495513392 Hartrees.
 One-electron integrals computed using PRISM.
 NBasis=   280 RedAO= T EigKep=  3.31D-03  NBF=   280
 NBsUse=   280 1.00D-06 EigRej= -1.00D+00 NBFU=   280
 ExpMin= 1.61D-01 ExpMax= 5.48D+03 ExpMxC= 8.25D+02 IAcc=3 IRadAn=         5 AccDes= 0.00D+00
 Harris functional with IExCor=  402 and IRadAn=       5 diagonalized for initial guess.
 HarFok:  IExCor=  402 AccDes= 0.00D+00 IRadAn=         5 IDoV= 1 UseB2=F ITyADJ=14
 ICtDFT=  3500011 ScaDFX=  1.000000  1.000000  1.000000  1.000000
 FoFCou: FMM=F IPFlag=           0 FMFlag=      100000 FMFlg1=           0
         NFxFlg=           0 DoJE=T BraDBF=F KetDBF=T FulRan=T
         wScrn=  0.000000 ICntrl=       500 IOpCl=  0 I1Cent=   200000004 NGrid=           0
         NMat0=    1 NMatS0=      1 NMatT0=    0 NMatD0=    1 NMtDS0=    0 NMtDT0=    0
 Petite list used in FoFCou.
 Requested convergence on RMS density matrix=1.00D-08 within 128 cycles.
 Requested convergence on MAX density matrix=1.00D-06.
 Requested convergence on             energy=1.00D-06.
 No special actions if energy rises.
 Integral accuracy reduced to 1.0D-05 until final iterations.
 Initial convergence to 1.0D-05 achieved.  Increase integral accuracy.
 SCF Done:  E(RB3LYP) =  -543.665292547     A.U. after   13 cycles
            NFock= 13  Conv=0.80D-08     -V/T= 2.0096

 **********************************************************************

            Population analysis using the SCF Density.

 **********************************************************************

 Orbital symmetries:
       Occupied  (A) (A) (A) (A) (A) (A) (A) (A) (A) (A) (A) (A)
                 (A) (A) (A) (A) (A) (A) (A) (A) (A) (A) (A) (A)
                 (A) (A) (A) (A) (A) (A) (A) (A) (A) (A) (A) (A)
                 (A) (A) (A) (A) (A) (A) (A) (A) (A) (A) (A) (A)
       Virtual   (A) (A) (A) (A) (A) (A) (A) (A) (A) (A) (A) (A)
                 (A) (A) (A) (A) (A) (A) (A) (A) (A) (A) (A) (A)
                 (A) (A) (A) (A) (A) (A) (A) (A) (A) (A) (A) (A)
                 (A) (A) (A) (A) (A) (A) (A) (A) (A) (A) (A) (A)
                 (A) (A) (A) (A) (A) (A) (A) (A) (A) (A) (A) (A)
                 (A) (A) (A) (A) (A) (A) (A) (A) (A) (A) (A) (A)
                 (A) (A) (A) (A) (A) (A) (A) (A) (A) (A) (A) (A)
                 (A) (A) (A) (A) (A) (A) (A) (A) (A) (A) (A) (A)
                 (A) (A) (A) (A) (A) (A) (A) (A) (A) (A) (A) (A)
                 (A) (A) (A) (A) (A) (A) (A) (A) (A) (A) (A) (A)
                 (A) (A) (A) (A) (A) (A) (A) (A) (A) (A) (A) (A)
                 (A) (A) (A) (A) (A) (A) (A) (A) (A) (A) (A) (A)
                 (A) (A) (A) (A) (A) (A) (A) (A) (A) (A) (A) (A)
                 (A) (A) (A) (A) (A) (A) (A) (A) (A) (A) (A) (A)
                 (A) (A) (A) (A) (A) (A) (A) (A) (A) (A) (A) (A)
                 (A) (A) (A) (A) (A) (A) (A) (A) (A) (A) (A) (A)
                 (A) (A) (A) (A) (A) (A) (A) (A) (A) (A) (A) (A)
                 (A) (A) (A) (A) (A) (A) (A) (A) (A) (A) (A) (A)
                 (A) (A) (A) (A) (A) (A) (A) (A) (A) (A) (A) (A)
                 (A) (A) (A) (A)
 The electronic state is 1-A.
 Alpha  occ. eigenvalues --  -19.19982 -19.13638 -10.32026 -10.19941 -10.19076
 Alpha  occ. eigenvalues --  -10.18061 -10.17891 -10.17622 -10.17595 -10.17507
 Alpha  occ. eigenvalues --  -10.17482 -10.16985  -1.10784  -1.01049  -0.81329
 Alpha  occ. eigenvalues --   -0.79466  -0.76642  -0.72804  -0.68633  -0.64432
 Alpha  occ. eigenvalues --   -0.61681  -0.59838  -0.57699  -0.55168  -0.48450
 Alpha  occ. eigenvalues --   -0.48175  -0.46966  -0.45980  -0.45836  -0.44284
 Alpha  occ. eigenvalues --   -0.42671  -0.41770  -0.40722  -0.40117  -0.39636
 Alpha  occ. eigenvalues --   -0.37862  -0.37456  -0.36183  -0.35217  -0.35001
 Alpha  occ. eigenvalues --   -0.33394  -0.32862  -0.32168  -0.31613  -0.31321
 Alpha  occ. eigenvalues --   -0.30535  -0.30481  -0.26856
 Alpha virt. eigenvalues --    0.00791   0.07073   0.09042   0.10064   0.11343
 Alpha virt. eigenvalues --    0.11653   0.12121   0.13181   0.14725   0.15191
 Alpha virt. eigenvalues --    0.15962   0.16910   0.17129   0.17475   0.18307
 Alpha virt. eigenvalues --    0.18596   0.18975   0.19866   0.20241   0.21164
 Alpha virt. eigenvalues --    0.21818   0.22412   0.23939   0.24531   0.24780
 Alpha virt. eigenvalues --    0.25173   0.26477   0.27067   0.27701   0.29149
 Alpha virt. eigenvalues --    0.31126   0.35990   0.48864   0.49544   0.49972
 Alpha virt. eigenvalues --    0.50660   0.53342   0.53604   0.54194   0.54629
 Alpha virt. eigenvalues --    0.55778   0.57705   0.58262   0.60557   0.62360
 Alpha virt. eigenvalues --    0.63070   0.63894   0.65507   0.65977   0.67416
 Alpha virt. eigenvalues --    0.68122   0.69615   0.70310   0.71592   0.72843
 Alpha virt. eigenvalues --    0.75537   0.77202   0.78686   0.80701   0.82739
 Alpha virt. eigenvalues --    0.84157   0.85079   0.85729   0.85884   0.86709
 Alpha virt. eigenvalues --    0.87017   0.87952   0.88166   0.89794   0.90455
 Alpha virt. eigenvalues --    0.90843   0.91507   0.91912   0.92634   0.93294
 Alpha virt. eigenvalues --    0.93992   0.94801   0.95438   0.96880   0.97696
 Alpha virt. eigenvalues --    0.98845   1.00181   1.01228   1.03049   1.05686
 Alpha virt. eigenvalues --    1.06391   1.08402   1.10379   1.11581   1.14311
 Alpha virt. eigenvalues --    1.19945   1.27055   1.29254   1.29942   1.36330
 Alpha virt. eigenvalues --    1.36628   1.38706   1.41144   1.42446   1.45669
 Alpha virt. eigenvalues --    1.46058   1.51538   1.55100   1.56291   1.59211
 Alpha virt. eigenvalues --    1.59413   1.62245   1.63984   1.65445   1.68283
 Alpha virt. eigenvalues --    1.69355   1.70246   1.70993   1.72606   1.74860
 Alpha virt. eigenvalues --    1.75691   1.78031   1.80122   1.81036   1.81249
 Alpha virt. eigenvalues --    1.82035   1.84009   1.87015   1.87377   1.88017
 Alpha virt. eigenvalues --    1.90145   1.91168   1.91399   1.97061   1.98576
 Alpha virt. eigenvalues --    2.00387   2.00912   2.02467   2.04965   2.05681
 Alpha virt. eigenvalues --    2.07813   2.11608   2.11860   2.12313   2.14436
 Alpha virt. eigenvalues --    2.14870   2.16391   2.18528   2.19232   2.20382
 Alpha virt. eigenvalues --    2.22421   2.23918   2.25210   2.25942   2.27260
 Alpha virt. eigenvalues --    2.28024   2.28425   2.29434   2.30196   2.32156
 Alpha virt. eigenvalues --    2.32595   2.33715   2.34016   2.36994   2.40746
 Alpha virt. eigenvalues --    2.44474   2.45064   2.46730   2.48554   2.52580
 Alpha virt. eigenvalues --    2.53231   2.54248   2.55621   2.56086   2.58757
 Alpha virt. eigenvalues --    2.59461   2.60936   2.61729   2.64218   2.65988
 Alpha virt. eigenvalues --    2.69647   2.71737   2.72639   2.73535   2.74516
 Alpha virt. eigenvalues --    2.75554   2.78410   2.79340   2.81133   2.82650
 Alpha virt. eigenvalues --    2.83782   2.84873   2.84976   2.89055   2.89216
 Alpha virt. eigenvalues --    2.90054   2.91177   2.91525   2.92251   2.92525
 Alpha virt. eigenvalues --    2.92663   2.94782   2.98045   3.02281   3.11345
 Alpha virt. eigenvalues --    3.19658   3.26120   3.28476   3.30874   3.31204
 Alpha virt. eigenvalues --    3.32531   3.34332   3.35026   3.37221   3.39690
 Alpha virt. eigenvalues --    3.41135   3.44219   3.46752   3.48562   3.49248
 Alpha virt. eigenvalues --    3.53263   3.55273   3.58144   3.58803   3.60441
 Alpha virt. eigenvalues --    3.92016   4.13818   4.25062   4.28476   4.34442
 Alpha virt. eigenvalues --    4.43265   4.52622   4.59744   4.64284   4.65626
 Alpha virt. eigenvalues --    4.70693   4.75144
          Condensed to atoms (all electrons):
               1          2          3          4          5          6
     1  O    8.123162   0.243819  -0.099359   0.003883  -0.000908  -0.000001
     2  C    0.243819   4.381519   0.348079  -0.029780  -0.000828   0.000121
     3  C   -0.099359   0.348079   5.096424   0.337894  -0.043458   0.003752
     4  C    0.003883  -0.029780   0.337894   4.917334   0.376039  -0.038473
     5  C   -0.000908  -0.000828  -0.043458   0.376039   4.914992   0.372625
     6  C   -0.000001   0.000121   0.003752  -0.038473   0.372625   4.912497
     7  C    0.000000  -0.000017   0.000152  -0.004030  -0.043593   0.369617
     8  C   -0.000131  -0.000009   0.000025  -0.001965  -0.003949  -0.039635
     9  C    0.000001  -0.000000   0.000000   0.000014   0.000164   0.003700
    10  C   -0.000003  -0.000000  -0.000000  -0.000016  -0.000023   0.000182
    11  C    0.000000   0.000000  -0.000000   0.000000   0.000000  -0.000002
    12  O   -0.083417   0.571202  -0.072369   0.000048   0.000799   0.000005
    13  H    0.268300  -0.009224   0.010812  -0.000291  -0.000073   0.000001
    14  H    0.001721  -0.025956   0.355913  -0.023556   0.004547  -0.000125
    15  H    0.003354  -0.032599   0.376786  -0.032338  -0.005652   0.000031
    16  H    0.000018   0.003663  -0.030276   0.379096  -0.043187  -0.002387
    17  H    0.005128  -0.008741  -0.034241   0.383821  -0.037970  -0.004889
    18  H    0.000198   0.005845  -0.004890  -0.039953   0.383501  -0.035853
    19  H    0.000021  -0.000933  -0.003006  -0.041425   0.379330  -0.031580
    20  H    0.000000   0.000000  -0.000143   0.004674  -0.033965   0.378173
    21  H   -0.000000   0.000003  -0.000008  -0.006999  -0.039004   0.376297
    22  H   -0.000000   0.000000  -0.000002   0.000065   0.005008  -0.032057
    23  H   -0.000005   0.000000  -0.000080   0.003835  -0.007871  -0.036993
    24  H    0.000000  -0.000001   0.000001   0.000135  -0.001315  -0.003003
    25  H    0.000866   0.000122  -0.000165   0.000210   0.002682  -0.004902
    26  H   -0.000000   0.000000  -0.000000  -0.000001   0.000005  -0.000155
    27  H   -0.000000   0.000000  -0.000000  -0.000002   0.000005   0.000014
    28  H   -0.000000   0.000000  -0.000000  -0.000021   0.000014  -0.000094
    29  H    0.000021   0.000001  -0.000000  -0.000028  -0.000003  -0.000022
    30  H    0.000000   0.000000   0.000000  -0.000000  -0.000000  -0.000000
    31  H   -0.000000   0.000000  -0.000000   0.000000  -0.000000  -0.000000
    32  H   -0.000000   0.000000  -0.000000  -0.000000   0.000000   0.000000
               7          8          9         10         11         12
     1  O    0.000000  -0.000131   0.000001  -0.000003   0.000000  -0.083417
     2  C   -0.000017  -0.000009  -0.000000  -0.000000   0.000000   0.571202
     3  C    0.000152   0.000025   0.000000  -0.000000  -0.000000  -0.072369
     4  C   -0.004030  -0.001965   0.000014  -0.000016   0.000000   0.000048
     5  C   -0.043593  -0.003949   0.000164  -0.000023   0.000000   0.000799
     6  C    0.369617  -0.039635   0.003700   0.000182  -0.000002   0.000005
     7  C    4.908697   0.381467  -0.037978  -0.005332   0.000147   0.000000
     8  C    0.381467   4.909402   0.368389  -0.038876   0.003916   0.000000
     9  C   -0.037978   0.368389   4.896097   0.387020  -0.042147  -0.000000
    10  C   -0.005332  -0.038876   0.387020   4.867916   0.369685  -0.000000
    11  C    0.000147   0.003916  -0.042147   0.369685   4.917714   0.000000
    12  O    0.000000   0.000000  -0.000000  -0.000000   0.000000   8.038111
    13  H   -0.000000   0.000004  -0.000000   0.000000  -0.000000   0.011473
    14  H    0.000004  -0.000000  -0.000000   0.000000   0.000000   0.001947
    15  H    0.000004  -0.000001  -0.000000   0.000000   0.000000   0.001611
    16  H   -0.001082   0.000109   0.000001  -0.000001  -0.000000  -0.000083
    17  H    0.002950   0.000257  -0.000119   0.000111  -0.000001   0.000018
    18  H   -0.007574   0.003970  -0.000093   0.000003  -0.000000  -0.000030
    19  H    0.004898   0.000061  -0.000003   0.000000   0.000000   0.000038
    20  H   -0.038078  -0.006637  -0.000012   0.000003   0.000000   0.000000
    21  H   -0.033959   0.004697  -0.000139   0.000002  -0.000000  -0.000000
    22  H    0.378810  -0.041784  -0.003801  -0.000831  -0.000027   0.000000
    23  H    0.383411  -0.040446  -0.003620   0.002473  -0.000108  -0.000000
    24  H   -0.042395   0.376598  -0.031871   0.004703  -0.000165   0.000000
    25  H   -0.039028   0.380424  -0.036786  -0.007905   0.000075  -0.000006
    26  H    0.004652  -0.032211   0.377530  -0.041493  -0.004183   0.000000
    27  H   -0.007572  -0.037677   0.380848  -0.040377  -0.003058   0.000000
    28  H    0.002601  -0.003991  -0.039195   0.387289  -0.037904   0.000000
    29  H   -0.000825  -0.003394  -0.040733   0.386757  -0.038282   0.000000
    30  H   -0.000016   0.000080  -0.004688  -0.034765   0.387466  -0.000000
    31  H    0.000002  -0.000160   0.004177  -0.027629   0.379128   0.000000
    32  H    0.000003   0.000014  -0.004945  -0.034764   0.387084  -0.000000
              13         14         15         16         17         18
     1  O    0.268300   0.001721   0.003354   0.000018   0.005128   0.000198
     2  C   -0.009224  -0.025956  -0.032599   0.003663  -0.008741   0.005845
     3  C    0.010812   0.355913   0.376786  -0.030276  -0.034241  -0.004890
     4  C   -0.000291  -0.023556  -0.032338   0.379096   0.383821  -0.039953
     5  C   -0.000073   0.004547  -0.005652  -0.043187  -0.037970   0.383501
     6  C    0.000001  -0.000125   0.000031  -0.002387  -0.004889  -0.035853
     7  C   -0.000000   0.000004   0.000004  -0.001082   0.002950  -0.007574
     8  C    0.000004  -0.000000  -0.000001   0.000109   0.000257   0.003970
     9  C   -0.000000  -0.000000  -0.000000   0.000001  -0.000119  -0.000093
    10  C    0.000000   0.000000   0.000000  -0.000001   0.000111   0.000003
    11  C   -0.000000   0.000000   0.000000  -0.000000  -0.000001  -0.000000
    12  O    0.011473   0.001947   0.001611  -0.000083   0.000018  -0.000030
    13  H    0.400845  -0.000478  -0.000318   0.000016  -0.000200   0.000062
    14  H   -0.000478   0.601361  -0.032322  -0.005515  -0.002746  -0.000010
    15  H   -0.000318  -0.032322   0.586978  -0.003686   0.005138  -0.000312
    16  H    0.000016  -0.005515  -0.003686   0.636617  -0.038116   0.006071
    17  H   -0.000200  -0.002746   0.005138  -0.038116   0.609084  -0.005624
    18  H    0.000062  -0.000010  -0.000312   0.006071  -0.005624   0.626258
    19  H    0.000000   0.000003   0.004834  -0.005434   0.005835  -0.039142
    20  H   -0.000000   0.000002  -0.000006  -0.000025  -0.000025  -0.003814
    21  H    0.000000  -0.000001  -0.000002   0.005294  -0.000264   0.005965
    22  H    0.000000  -0.000000   0.000000  -0.000040  -0.000064  -0.000009
    23  H    0.000000   0.000006  -0.000001   0.000497   0.001406   0.000112
    24  H   -0.000000   0.000000  -0.000000  -0.000002  -0.000037   0.000705
    25  H    0.000009  -0.000001   0.000000  -0.000009   0.001109   0.001432
    26  H   -0.000000  -0.000000  -0.000000   0.000000   0.000000   0.000009
    27  H    0.000000  -0.000000  -0.000000  -0.000000   0.000003  -0.000000
    28  H   -0.000000  -0.000000  -0.000000  -0.000001   0.000021   0.000001
    29  H    0.000001  -0.000000   0.000000  -0.000000   0.000240  -0.000004
    30  H    0.000000  -0.000000  -0.000000   0.000000   0.000000  -0.000000
    31  H   -0.000000  -0.000000  -0.000000   0.000000  -0.000000   0.000000
    32  H    0.000000  -0.000000   0.000000   0.000000   0.000000   0.000000
              19         20         21         22         23         24
     1  O    0.000021   0.000000  -0.000000  -0.000000  -0.000005   0.000000
     2  C   -0.000933   0.000000   0.000003   0.000000   0.000000  -0.000001
     3  C   -0.003006  -0.000143  -0.000008  -0.000002  -0.000080   0.000001
     4  C   -0.041425   0.004674  -0.006999   0.000065   0.003835   0.000135
     5  C    0.379330  -0.033965  -0.039004   0.005008  -0.007871  -0.001315
     6  C   -0.031580   0.378173   0.376297  -0.032057  -0.036993  -0.003003
     7  C    0.004898  -0.038078  -0.033959   0.378810   0.383411  -0.042395
     8  C    0.000061  -0.006637   0.004697  -0.041784  -0.040446   0.376598
     9  C   -0.000003  -0.000012  -0.000139  -0.003801  -0.003620  -0.031871
    10  C    0.000000   0.000003   0.000002  -0.000831   0.002473   0.004703
    11  C    0.000000   0.000000  -0.000000  -0.000027  -0.000108  -0.000165
    12  O    0.000038   0.000000  -0.000000   0.000000  -0.000000   0.000000
    13  H    0.000000  -0.000000   0.000000   0.000000   0.000000  -0.000000
    14  H    0.000003   0.000002  -0.000001  -0.000000   0.000006   0.000000
    15  H    0.004834  -0.000006  -0.000002   0.000000  -0.000001  -0.000000
    16  H   -0.005434  -0.000025   0.005294  -0.000040   0.000497  -0.000002
    17  H    0.005835  -0.000025  -0.000264  -0.000064   0.001406  -0.000037
    18  H   -0.039142  -0.003814   0.005965  -0.000009   0.000112   0.000705
    19  H    0.640431  -0.003645  -0.004430  -0.000149  -0.000024  -0.000047
    20  H   -0.003645   0.644467  -0.039037  -0.004650   0.005992   0.005348
    21  H   -0.004430  -0.039037   0.651299  -0.003451  -0.003775   0.000033
    22  H   -0.000149  -0.004650  -0.003451   0.648255  -0.040684  -0.005050
    23  H   -0.000024   0.005992  -0.003775  -0.040684   0.638973   0.006235
    24  H   -0.000047   0.005348   0.000033  -0.005050   0.006235   0.652272
    25  H   -0.000036  -0.000253  -0.000056   0.006095  -0.006587  -0.040977
    26  H   -0.000000  -0.000006   0.000003   0.000054  -0.000051  -0.004727
    27  H    0.000000   0.000000  -0.000007   0.005874  -0.000253  -0.003042
    28  H   -0.000000  -0.000001   0.000006   0.000491   0.002036  -0.000048
    29  H    0.000000   0.000000  -0.000000   0.000083   0.000348   0.000048
    30  H   -0.000000   0.000000   0.000000  -0.000000   0.000008   0.000003
    31  H   -0.000000   0.000000   0.000000   0.000000   0.000006   0.000003
    32  H    0.000000  -0.000000   0.000000   0.000001  -0.000000  -0.000006
              25         26         27         28         29         30
     1  O    0.000866  -0.000000  -0.000000  -0.000000   0.000021   0.000000
     2  C    0.000122   0.000000   0.000000   0.000000   0.000001   0.000000
     3  C   -0.000165  -0.000000  -0.000000  -0.000000  -0.000000   0.000000
     4  C    0.000210  -0.000001  -0.000002  -0.000021  -0.000028  -0.000000
     5  C    0.002682   0.000005   0.000005   0.000014  -0.000003  -0.000000
     6  C   -0.004902  -0.000155   0.000014  -0.000094  -0.000022  -0.000000
     7  C   -0.039028   0.004652  -0.007572   0.002601  -0.000825  -0.000016
     8  C    0.380424  -0.032211  -0.037677  -0.003991  -0.003394   0.000080
     9  C   -0.036786   0.377530   0.380848  -0.039195  -0.040733  -0.004688
    10  C   -0.007905  -0.041493  -0.040377   0.387289   0.386757  -0.034765
    11  C    0.000075  -0.004183  -0.003058  -0.037904  -0.038282   0.387466
    12  O   -0.000006   0.000000   0.000000   0.000000   0.000000  -0.000000
    13  H    0.000009  -0.000000   0.000000  -0.000000   0.000001   0.000000
    14  H   -0.000001  -0.000000  -0.000000  -0.000000  -0.000000  -0.000000
    15  H    0.000000  -0.000000  -0.000000  -0.000000   0.000000  -0.000000
    16  H   -0.000009   0.000000  -0.000000  -0.000001  -0.000000   0.000000
    17  H    0.001109   0.000000   0.000003   0.000021   0.000240   0.000000
    18  H    0.001432   0.000009  -0.000000   0.000001  -0.000004  -0.000000
    19  H   -0.000036  -0.000000   0.000000  -0.000000   0.000000  -0.000000
    20  H   -0.000253  -0.000006   0.000000  -0.000001   0.000000   0.000000
    21  H   -0.000056   0.000003  -0.000007   0.000006  -0.000000   0.000000
    22  H    0.006095   0.000054   0.005874   0.000491   0.000083  -0.000000
    23  H   -0.006587  -0.000051  -0.000253   0.002036   0.000348   0.000008
    24  H   -0.040977  -0.004727  -0.003042  -0.000048   0.000048   0.000003
    25  H    0.640552  -0.003083   0.005991  -0.000204   0.005632   0.000008
    26  H   -0.003083   0.653128  -0.041088   0.006169  -0.005449  -0.000491
    27  H    0.005991  -0.041088   0.648011  -0.006186   0.006117   0.004589
    28  H   -0.000204   0.006169  -0.006186   0.637329  -0.041332  -0.005038
    29  H    0.005632  -0.005449   0.006117  -0.041332   0.640000   0.005478
    30  H    0.000008  -0.000491   0.004589  -0.005038   0.005478   0.611252
    31  H   -0.000001   0.000011  -0.000046  -0.003057  -0.003102  -0.032571
    32  H   -0.000000   0.005221  -0.000454   0.005430  -0.005022  -0.033745
              31         32
     1  O   -0.000000  -0.000000
     2  C    0.000000   0.000000
     3  C   -0.000000  -0.000000
     4  C    0.000000  -0.000000
     5  C   -0.000000   0.000000
     6  C   -0.000000   0.000000
     7  C    0.000002   0.000003
     8  C   -0.000160   0.000014
     9  C    0.004177  -0.004945
    10  C   -0.027629  -0.034764
    11  C    0.379128   0.387084
    12  O    0.000000  -0.000000
    13  H   -0.000000   0.000000
    14  H   -0.000000  -0.000000
    15  H   -0.000000   0.000000
    16  H    0.000000   0.000000
    17  H   -0.000000   0.000000
    18  H    0.000000   0.000000
    19  H   -0.000000   0.000000
    20  H    0.000000  -0.000000
    21  H    0.000000   0.000000
    22  H    0.000000   0.000001
    23  H    0.000006  -0.000000
    24  H    0.000003  -0.000006
    25  H   -0.000001  -0.000000
    26  H    0.000011   0.005221
    27  H   -0.000046  -0.000454
    28  H   -0.003057   0.005430
    29  H   -0.003102  -0.005022
    30  H   -0.032571  -0.033745
    31  H    0.617312  -0.032674
    32  H   -0.032674   0.611977
 Mulliken charges:
               1
     1  O   -0.466668
     2  C    0.553714
     3  C   -0.241841
     4  C   -0.188171
     5  C   -0.177915
     6  C   -0.186844
     7  C   -0.175936
     8  C   -0.178549
     9  C   -0.171812
    10  C   -0.174128
    11  C   -0.319339
    12  O   -0.469348
    13  H    0.319060
    14  H    0.125207
    15  H    0.128501
    16  H    0.098460
    17  H    0.117915
    18  H    0.103175
    19  H    0.094401
    20  H    0.091638
    21  H    0.087534
    22  H    0.087861
    23  H    0.095162
    24  H    0.086600
    25  H    0.094794
    26  H    0.086156
    27  H    0.088308
    28  H    0.095683
    29  H    0.093469
    30  H    0.102430
    31  H    0.098601
    32  H    0.101881
 Sum of Mulliken charges =  -0.00000
 Mulliken charges with hydrogens summed into heavy atoms:
               1
     1  O   -0.147608
     2  C    0.553714
     3  C    0.011867
     4  C    0.028204
     5  C    0.019662
     6  C   -0.007672
     7  C    0.007087
     8  C    0.002845
     9  C    0.002653
    10  C    0.015024
    11  C   -0.016427
    12  O   -0.469348
 Electronic spatial extent (au):  <R**2>=           3610.6859
 Charge=             -0.0000 electrons
 Dipole moment (field-independent basis, Debye):
    X=              1.3762    Y=              0.0133    Z=              1.0885  Tot=              1.7547
 Quadrupole moment (field-independent basis, Debye-Ang):
   XX=            -86.3745   YY=            -72.1086   ZZ=            -76.3824
   XY=             -0.6978   XZ=             -6.4915   YZ=              1.4797
 Traceless Quadrupole moment (field-independent basis, Debye-Ang):
   XX=             -8.0860   YY=              6.1799   ZZ=              1.9061
   XY=             -0.6978   XZ=             -6.4915   YZ=              1.4797
 Octapole moment (field-independent basis, Debye-Ang**2):
  XXX=             21.3300  YYY=            -28.7597  ZZZ=             -0.4253  XYY=            -17.0567
  XXY=              8.4106  XXZ=             28.3359  XZZ=             -4.1734  YZZ=             -5.0047
  YYZ=             -8.9855  XYZ=              1.3509
 Hexadecapole moment (field-independent basis, Debye-Ang**3):
 XXXX=          -3637.2277 YYYY=           -979.9114 ZZZZ=           -353.3674 XXXY=             -2.4914
 XXXZ=           -108.7568 YYYX=             71.8734 YYYZ=             31.0709 ZZZX=              0.8696
 ZZZY=              3.8533 XXYY=           -722.0861 XXZZ=           -643.3657 YYZZ=           -223.3019
 XXYZ=            -14.8577 YYXZ=             13.3624 ZZXY=              6.6656
 N-N= 7.210495513392D+02 E-N=-2.705307321977D+03  KE= 5.384764589313D+02
 Calling FoFJK, ICntrl=      2127 FMM=F ISym2X=0 I1Cent= 0 IOpClX= 0 NMat=1 NMatS=1 NMatT=0.
 ***** Axes restored to original set *****
 -------------------------------------------------------------------
 Center     Atomic                   Forces (Hartrees/Bohr)
 Number     Number              X              Y              Z
 -------------------------------------------------------------------
      1        8          -0.010648797   -0.001813012    0.004217588
      2        6          -0.000458830   -0.008821172    0.023327401
      3        6           0.000849814   -0.004121126   -0.004765106
      4        6           0.005064263   -0.003152488   -0.002069850
      5        6          -0.004309300    0.003447487   -0.002216783
      6        6           0.002569689    0.005368623   -0.004063226
      7        6           0.007662426   -0.000509885    0.002605203
      8        6          -0.008086155    0.000297829   -0.001530332
      9        6           0.000753128    0.007858304    0.006017145
     10        6           0.000259420   -0.007352633   -0.005465524
     11        6           0.000088413    0.001676605    0.004850504
     12        8          -0.011000404    0.004639467   -0.013904319
     13        1           0.014645578    0.001125543   -0.007475979
     14        1          -0.003413778    0.004128105   -0.002985109
     15        1           0.004074018   -0.002432768    0.000591819
     16        1          -0.002406167    0.000930147    0.003361293
     17        1           0.001938886    0.000834661   -0.002211582
     18        1           0.003515647    0.001075467   -0.002594188
     19        1          -0.000130710   -0.000459746    0.003984049
     20        1           0.002881503   -0.003284850    0.000092553
     21        1          -0.004056839    0.001620340    0.001866246
     22        1          -0.002234591   -0.003515372   -0.001312506
     23        1          -0.000657895    0.004137136   -0.000704697
     24        1           0.001285064   -0.004179935    0.001621117
     25        1           0.002076907    0.003840964    0.000836967
     26        1           0.003558109    0.000066550   -0.002563423
     27        1          -0.004087298   -0.002484493   -0.000720274
     28        1          -0.003094903    0.000258611    0.002302243
     29        1           0.003390124    0.002104989    0.001937462
     30        1          -0.001770754   -0.002634301   -0.000703911
     31        1          -0.001060468    0.002461946   -0.001118505
     32        1           0.002803900   -0.001110992   -0.001206275
 -------------------------------------------------------------------
 Cartesian Forces:  Max     0.023327401 RMS     0.004814748

 GradGradGradGradGradGradGradGradGradGradGradGradGradGradGradGradGradGrad
 Berny optimization.
 FormGI is forming the generalized inverse of G from B-inverse, IUseBI=4.
 Internal  Forces:  Max     0.017222031 RMS     0.003052236
 Search for a local minimum.
 Step number   1 out of a maximum of  179
 All quantities printed in internal units (Hartrees-Bohrs-Radians)
 Mixed Optimization -- RFO/linear search
 Second derivative matrix not updated -- first step.
 ITU=  0
     Eigenvalues ---    0.00230   0.00230   0.00230   0.00230   0.00230
     Eigenvalues ---    0.00230   0.00232   0.00302   0.00412   0.00890
     Eigenvalues ---    0.02343   0.03117   0.03228   0.03240   0.03240
     Eigenvalues ---    0.03258   0.03260   0.03438   0.03706   0.04649
     Eigenvalues ---    0.04675   0.04680   0.04680   0.04689   0.04691
     Eigenvalues ---    0.04749   0.05163   0.05409   0.05465   0.08304
     Eigenvalues ---    0.08542   0.08545   0.08564   0.08564   0.08581
     Eigenvalues ---    0.08809   0.09755   0.12191   0.12372   0.12373
     Eigenvalues ---    0.12388   0.12388   0.12400   0.12556   0.13064
     Eigenvalues ---    0.16000   0.16000   0.16000   0.16000   0.21890
     Eigenvalues ---    0.21890   0.21895   0.21895   0.21906   0.21911
     Eigenvalues ---    0.21926   0.21959   0.24998   0.25000   0.27766
     Eigenvalues ---    0.28165   0.28181   0.28210   0.28278   0.28408
     Eigenvalues ---    0.28487   0.28961   0.29722   0.34576   0.34634
     Eigenvalues ---    0.34641   0.34643   0.34644   0.34644   0.34644
     Eigenvalues ---    0.34658   0.34665   0.34666   0.34672   0.34714
     Eigenvalues ---    0.34726   0.34728   0.34738   0.34742   0.34799
     Eigenvalues ---    0.34808   0.34883   0.54854   0.56035   0.94483
 RFO step:  Lambda=-5.83237627D-03 EMin= 2.30000000D-03
 Linear search not attempted -- first point.
 Iteration  1 RMS(Cart)=  0.14126078 RMS(Int)=  0.00321860
 Iteration  2 RMS(Cart)=  0.00725256 RMS(Int)=  0.00019575
 Iteration  3 RMS(Cart)=  0.00002760 RMS(Int)=  0.00019524
 Iteration  4 RMS(Cart)=  0.00000001 RMS(Int)=  0.00019524
 Variable       Old X    -DE/DX   Delta X   Delta X   Delta X     New X
                                 (Linear)    (Quad)   (Total)
    R1        2.55262   0.00289   0.00000   0.00521   0.00521   2.55783
    R2        1.80924   0.01608   0.00000   0.02840   0.02840   1.83764
    R3        2.88521  -0.00949   0.00000  -0.03131  -0.03131   2.85390
    R4        2.30933  -0.01722   0.00000  -0.01812  -0.01812   2.29121
    R5        2.92653  -0.00875   0.00000  -0.03087  -0.03087   2.89566
    R6        2.05866   0.00514   0.00000   0.01449   0.01449   2.07314
    R7        2.05987   0.00151   0.00000   0.00427   0.00427   2.06414
    R8        2.91779  -0.00790   0.00000  -0.02746  -0.02746   2.89033
    R9        2.06256   0.00364   0.00000   0.01034   0.01034   2.07290
   R10        2.06370   0.00215   0.00000   0.00611   0.00611   2.06980
   R11        2.91681  -0.00554   0.00000  -0.01923  -0.01923   2.89758
   R12        2.06141   0.00412   0.00000   0.01167   0.01167   2.07308
   R13        2.06257   0.00392   0.00000   0.01112   0.01112   2.07369
   R14        2.91745  -0.00475   0.00000  -0.01651  -0.01651   2.90095
   R15        2.06262   0.00403   0.00000   0.01143   0.01143   2.07405
   R16        2.06221   0.00452   0.00000   0.01284   0.01284   2.07505
   R17        2.91535  -0.00569   0.00000  -0.01973  -0.01973   2.89562
   R18        2.06235   0.00427   0.00000   0.01211   0.01211   2.07445
   R19        2.06002   0.00406   0.00000   0.01148   0.01148   2.07150
   R20        2.91254  -0.00339   0.00000  -0.01170  -0.01170   2.90085
   R21        2.06223   0.00453   0.00000   0.01284   0.01284   2.07507
   R22        2.06210   0.00431   0.00000   0.01223   0.01223   2.07433
   R23        2.91086  -0.00447   0.00000  -0.01538  -0.01538   2.89547
   R24        2.06273   0.00425   0.00000   0.01208   0.01208   2.07482
   R25        2.06256   0.00463   0.00000   0.01313   0.01313   2.07570
   R26        2.90085  -0.00180   0.00000  -0.00608  -0.00608   2.89477
   R27        2.06122   0.00378   0.00000   0.01071   0.01071   2.07193
   R28        2.06259   0.00421   0.00000   0.01194   0.01194   2.07452
   R29        2.06103   0.00319   0.00000   0.00904   0.00904   2.07007
   R30        2.06095   0.00288   0.00000   0.00817   0.00817   2.06912
   R31        2.06118   0.00317   0.00000   0.00898   0.00898   2.07016
    A1        1.81768   0.00654   0.00000   0.03946   0.03946   1.85714
    A2        1.96656  -0.00215   0.00000  -0.00807  -0.00878   1.95778
    A3        2.15236  -0.00613   0.00000  -0.02361  -0.02429   2.12807
    A4        2.16414   0.00830   0.00000   0.03275   0.03201   2.19614
    A5        2.00586  -0.00665   0.00000  -0.03845  -0.03876   1.96711
    A6        1.86400   0.00394   0.00000   0.01976   0.01956   1.88356
    A7        1.88986  -0.00090   0.00000  -0.02301  -0.02305   1.86681
    A8        1.92122  -0.00086   0.00000  -0.00872  -0.00878   1.91244
    A9        1.92497   0.00398   0.00000   0.02016   0.01946   1.94443
   A10        1.85066   0.00103   0.00000   0.03595   0.03594   1.88660
   A11        1.99243  -0.00477   0.00000  -0.02739  -0.02759   1.96484
   A12        1.89625   0.00074   0.00000   0.00298   0.00319   1.89944
   A13        1.90902   0.00059   0.00000  -0.01070  -0.01102   1.89800
   A14        1.89907   0.00226   0.00000   0.01866   0.01866   1.91773
   A15        1.92155   0.00127   0.00000  -0.00159  -0.00213   1.91942
   A16        1.83904   0.00031   0.00000   0.02238   0.02232   1.86136
   A17        1.99360  -0.00294   0.00000  -0.01645  -0.01657   1.97703
   A18        1.92209  -0.00042   0.00000  -0.01548  -0.01563   1.90646
   A19        1.90129   0.00089   0.00000   0.00771   0.00783   1.90913
   A20        1.91034   0.00133   0.00000   0.00096   0.00060   1.91094
   A21        1.89328   0.00130   0.00000   0.01408   0.01411   1.90739
   A22        1.83639   0.00010   0.00000   0.01209   0.01208   1.84848
   A23        2.01834  -0.00391   0.00000  -0.02201  -0.02210   1.99624
   A24        1.89756   0.00031   0.00000  -0.00478  -0.00483   1.89273
   A25        1.90201   0.00137   0.00000   0.00530   0.00526   1.90728
   A26        1.89991   0.00159   0.00000   0.00595   0.00579   1.90570
   A27        1.89956   0.00076   0.00000   0.00166   0.00162   1.90118
   A28        1.83799   0.00024   0.00000   0.01761   0.01757   1.85556
   A29        1.99247  -0.00169   0.00000  -0.01030  -0.01035   1.98212
   A30        1.89198   0.00063   0.00000   0.00658   0.00659   1.89857
   A31        1.91053   0.00071   0.00000  -0.00002  -0.00016   1.91037
   A32        1.90170   0.00050   0.00000   0.00395   0.00399   1.90570
   A33        1.92138  -0.00026   0.00000  -0.00903  -0.00909   1.91229
   A34        1.83925   0.00027   0.00000   0.01084   0.01084   1.85009
   A35        1.99225  -0.00081   0.00000  -0.00564  -0.00567   1.98658
   A36        1.90122  -0.00038   0.00000  -0.00196  -0.00193   1.89929
   A37        1.91965  -0.00002   0.00000  -0.00633  -0.00639   1.91326
   A38        1.89538   0.00105   0.00000   0.01129   0.01130   1.90668
   A39        1.90319  -0.00006   0.00000  -0.00450  -0.00457   1.89863
   A40        1.84634   0.00032   0.00000   0.00849   0.00849   1.85484
   A41        1.99144   0.00027   0.00000  -0.00074  -0.00077   1.99067
   A42        1.89220   0.00054   0.00000   0.00889   0.00889   1.90109
   A43        1.91264  -0.00010   0.00000  -0.00338  -0.00344   1.90920
   A44        1.90081  -0.00054   0.00000  -0.00224  -0.00224   1.89856
   A45        1.91620  -0.00069   0.00000  -0.01062  -0.01065   1.90555
   A46        1.84462   0.00056   0.00000   0.00920   0.00919   1.85381
   A47        1.96582   0.00045   0.00000   0.00173   0.00174   1.96757
   A48        1.92078  -0.00049   0.00000  -0.00446  -0.00447   1.91631
   A49        1.91430  -0.00112   0.00000  -0.01176  -0.01176   1.90254
   A50        1.89986   0.00028   0.00000   0.00597   0.00597   1.90583
   A51        1.90662   0.00065   0.00000   0.00645   0.00644   1.91306
   A52        1.85295   0.00023   0.00000   0.00228   0.00221   1.85516
   A53        1.94329  -0.00059   0.00000  -0.00486  -0.00488   1.93841
   A54        1.93712   0.00085   0.00000   0.00753   0.00754   1.94465
   A55        1.94392  -0.00067   0.00000  -0.00516  -0.00519   1.93874
   A56        1.87744   0.00011   0.00000   0.00273   0.00273   1.88017
   A57        1.88191   0.00014   0.00000  -0.00360  -0.00364   1.87827
   A58        1.87715   0.00019   0.00000   0.00361   0.00361   1.88076
    D1        3.14037   0.00054   0.00000   0.03355   0.03257  -3.11025
    D2        0.01569  -0.00059   0.00000  -0.03512  -0.03414  -0.01846
    D3        1.04831  -0.00163   0.00000  -0.07297  -0.07369   0.97462
    D4       -1.08789   0.00088   0.00000  -0.05138  -0.05166  -1.13954
    D5       -3.07414  -0.00183   0.00000  -0.09175  -0.09167   3.11738
    D6       -2.11033  -0.00066   0.00000  -0.00440  -0.00451  -2.11484
    D7        2.03666   0.00185   0.00000   0.01719   0.01752   2.05418
    D8        0.05041  -0.00086   0.00000  -0.02318  -0.02249   0.02792
    D9        1.12124  -0.00165   0.00000  -0.04832  -0.04842   1.07282
   D10       -3.03927  -0.00141   0.00000  -0.04055  -0.04071  -3.07997
   D11       -1.04029  -0.00033   0.00000  -0.01809  -0.01841  -1.05871
   D12       -3.05688  -0.00181   0.00000  -0.05600  -0.05585  -3.11274
   D13       -0.93421  -0.00157   0.00000  -0.04823  -0.04814  -0.98234
   D14        1.06477  -0.00048   0.00000  -0.02578  -0.02584   1.03892
   D15       -1.02076   0.00131   0.00000  -0.00533  -0.00511  -1.02587
   D16        1.10191   0.00155   0.00000   0.00244   0.00261   1.10452
   D17        3.10089   0.00264   0.00000   0.02490   0.02490   3.12579
   D18        3.07063   0.00100   0.00000   0.05566   0.05548   3.12611
   D19       -1.05476   0.00026   0.00000   0.03263   0.03265  -1.02211
   D20        0.95090   0.00065   0.00000   0.04296   0.04286   0.99376
   D21        0.94951   0.00160   0.00000   0.05658   0.05658   1.00609
   D22        3.10731   0.00086   0.00000   0.03355   0.03375   3.14106
   D23       -1.17022   0.00125   0.00000   0.04389   0.04396  -1.12626
   D24       -1.05778  -0.00073   0.00000   0.02017   0.02007  -1.03770
   D25        1.10002  -0.00147   0.00000  -0.00286  -0.00276   1.09726
   D26        3.10568  -0.00108   0.00000   0.00747   0.00745   3.11314
   D27        1.05019  -0.00084   0.00000  -0.03130  -0.03133   1.01886
   D28       -3.09030  -0.00128   0.00000  -0.04290  -0.04284  -3.13314
   D29       -1.09558  -0.00012   0.00000  -0.02184  -0.02182  -1.11740
   D30       -1.11392   0.00081   0.00000   0.00033   0.00031  -1.11361
   D31        1.02877   0.00037   0.00000  -0.01127  -0.01120   1.01757
   D32        3.02350   0.00154   0.00000   0.00980   0.00982   3.03332
   D33       -3.10886  -0.00070   0.00000  -0.02207  -0.02216  -3.13101
   D34       -0.96616  -0.00115   0.00000  -0.03367  -0.03366  -0.99983
   D35        1.02856   0.00002   0.00000  -0.01261  -0.01265   1.01591
   D36        1.03666  -0.00076   0.00000  -0.03294  -0.03296   1.00370
   D37       -3.12357  -0.00078   0.00000  -0.02993  -0.02996   3.12965
   D38       -1.12585   0.00026   0.00000  -0.01356  -0.01357  -1.13942
   D39       -1.10480   0.00037   0.00000  -0.01562  -0.01559  -1.12039
   D40        1.01816   0.00035   0.00000  -0.01261  -0.01260   1.00556
   D41        3.01589   0.00139   0.00000   0.00376   0.00379   3.01968
   D42       -3.09947  -0.00115   0.00000  -0.04045  -0.04044  -3.13991
   D43       -0.97651  -0.00117   0.00000  -0.03743  -0.03745  -1.01396
   D44        1.02121  -0.00013   0.00000  -0.02106  -0.02106   1.00016
   D45        3.03321   0.00065   0.00000   0.02271   0.02267   3.05588
   D46        0.91174   0.00013   0.00000   0.01343   0.01339   0.92513
   D47       -1.10447  -0.00003   0.00000   0.00786   0.00784  -1.09663
   D48        0.91562   0.00061   0.00000   0.01830   0.01828   0.93390
   D49       -1.20585   0.00008   0.00000   0.00901   0.00900  -1.19685
   D50        3.06112  -0.00007   0.00000   0.00344   0.00345   3.06457
   D51       -1.09332   0.00014   0.00000   0.00805   0.00807  -1.08524
   D52        3.06840  -0.00038   0.00000  -0.00124  -0.00120   3.06720
   D53        1.05219  -0.00053   0.00000  -0.00681  -0.00676   1.04543
   D54        1.15989  -0.00042   0.00000  -0.02094  -0.02093   1.13896
   D55       -3.00201  -0.00054   0.00000  -0.01783  -0.01782  -3.01983
   D56       -0.99669   0.00037   0.00000  -0.00385  -0.00384  -1.00053
   D57       -2.99860  -0.00068   0.00000  -0.01895  -0.01896  -3.01756
   D58       -0.87732  -0.00080   0.00000  -0.01584  -0.01585  -0.89317
   D59        1.12800   0.00011   0.00000  -0.00186  -0.00186   1.12613
   D60       -0.99454   0.00023   0.00000  -0.00523  -0.00524  -0.99978
   D61        1.12675   0.00011   0.00000  -0.00212  -0.00213   1.12462
   D62        3.13207   0.00102   0.00000   0.01186   0.01185  -3.13926
   D63        3.07322   0.00034   0.00000   0.00825   0.00824   3.08145
   D64       -1.08657   0.00066   0.00000   0.01392   0.01389  -1.07268
   D65        0.94579   0.00000   0.00000   0.00721   0.00721   0.95300
   D66        0.95669  -0.00014   0.00000  -0.00103  -0.00103   0.95566
   D67        3.08010   0.00018   0.00000   0.00463   0.00462   3.08471
   D68       -1.17073  -0.00048   0.00000  -0.00207  -0.00206  -1.17279
   D69       -1.05531  -0.00013   0.00000  -0.00495  -0.00494  -1.06025
   D70        1.06809   0.00020   0.00000   0.00071   0.00071   1.06880
   D71        3.10045  -0.00046   0.00000  -0.00599  -0.00597   3.09448
   D72        1.04869  -0.00015   0.00000  -0.00246  -0.00244   1.04625
   D73        3.13964   0.00017   0.00000   0.00279   0.00280  -3.14075
   D74       -1.05254   0.00054   0.00000   0.00896   0.00895  -1.04359
   D75       -1.08654  -0.00003   0.00000  -0.00219  -0.00216  -1.08870
   D76        1.00441   0.00028   0.00000   0.00307   0.00307   1.00748
   D77        3.09542   0.00065   0.00000   0.00924   0.00923   3.10465
   D78       -3.10273  -0.00082   0.00000  -0.01170  -0.01170  -3.11443
   D79       -1.01178  -0.00050   0.00000  -0.00645  -0.00646  -1.01824
   D80        1.07923  -0.00013   0.00000  -0.00028  -0.00031   1.07892
         Item               Value     Threshold  Converged?
 Maximum Force            0.017222     0.000450     NO 
 RMS     Force            0.003052     0.000300     NO 
 Maximum Displacement     0.748826     0.001800     NO 
 RMS     Displacement     0.143293     0.001200     NO 
 Predicted change in Energy=-3.141097D-03
 GradGradGradGradGradGradGradGradGradGradGradGradGradGradGradGradGradGrad

                          Input orientation:                          
 ---------------------------------------------------------------------
 Center     Atomic      Atomic             Coordinates (Angstroms)
 Number     Number       Type             X           Y           Z
 ---------------------------------------------------------------------
      1          8           0        4.744098   -0.383510   -1.817423
      2          6           0        4.791315   -0.596825   -0.481626
      3          6           0        3.421711   -0.544869    0.152601
      4          6           0        2.435571   -1.527298   -0.487994
      5          6           0        2.881977   -2.983366   -0.346755
      6          6           0        1.895508   -3.982089   -0.963632
      7          6           0        1.626428   -3.765187   -2.459334
      8          6           0        2.891313   -3.814336   -3.322804
      9          6           0        2.617232   -3.717419   -4.830088
     10          6           0        2.024299   -2.375497   -5.272094
     11          6           0        1.841373   -2.280380   -6.790000
     12          8           0        5.829229   -0.852386    0.090628
     13          1           0        5.657699   -0.463461   -2.140798
     14          1           0        3.040421    0.478586    0.049163
     15          1           0        3.555373   -0.751153    1.216881
     16          1           0        1.450390   -1.392627   -0.024811
     17          1           0        2.321988   -1.271818   -1.547000
     18          1           0        3.867114   -3.106194   -0.813535
     19          1           0        3.020855   -3.220327    0.715667
     20          1           0        2.286756   -4.996075   -0.810825
     21          1           0        0.942885   -3.933777   -0.419640
     22          1           0        0.922417   -4.532511   -2.806673
     23          1           0        1.120592   -2.803445   -2.603614
     24          1           0        3.428133   -4.748745   -3.111898
     25          1           0        3.567140   -2.999240   -3.033328
     26          1           0        3.555926   -3.885470   -5.374234
     27          1           0        1.939340   -4.527876   -5.130309
     28          1           0        1.056427   -2.217651   -4.781748
     29          1           0        2.679556   -1.564527   -4.928423
     30          1           0        1.168195   -3.063575   -7.155252
     31          1           0        1.417744   -1.313848   -7.081932
     32          1           0        2.798393   -2.396604   -7.310271
 ---------------------------------------------------------------------
                    Distance matrix (angstroms):
                    1          2          3          4          5
     1  O    0.000000
     2  C    1.353545   0.000000
     3  C    2.378180   1.510218   0.000000
     4  C    2.899126   2.532854   1.532319   0.000000
     5  C    3.519888   3.059304   2.546947   1.529497   0.000000
     6  C    4.668318   4.480852   3.922977   2.558104   1.533331
     7  C    4.644099   4.895544   4.518373   3.090152   2.578882
     8  C    4.179660   4.694111   4.800956   3.670748   3.089897
     9  C    4.971385   5.777012   5.961498   4.866561   4.550736
[...]
 Alpha virt. eigenvalues --    4.09320   4.15173   4.15296   4.16754   4.18640
 Alpha virt. eigenvalues --    4.19260   4.20439   4.25521   4.31329   4.33132
 Alpha virt. eigenvalues --    4.35958   4.36381   4.39456   4.41953   4.42998
 Alpha virt. eigenvalues --    4.48160   4.52114   4.52382   4.53993   4.54853
 Alpha virt. eigenvalues --    4.57163   4.58572   4.60542   4.62297   4.64830
 Alpha virt. eigenvalues --    4.66369   4.67881   4.68931   4.72475   4.75505
 Alpha virt. eigenvalues --    4.76408   4.78736   4.81340   4.82889   4.91638
 Alpha virt. eigenvalues --    4.93014   5.02534   5.12138   5.17172   5.20468
 Alpha virt. eigenvalues --    5.22532   5.39534   5.40091   5.51046   5.59250
 Alpha virt. eigenvalues --    5.73460   5.85417   5.86604   6.15735   6.19693
 Alpha virt. eigenvalues --    6.33500   6.33965   6.45937   6.47701   6.64898
 Alpha virt. eigenvalues --    6.69784   6.74242   6.81059   6.90867   7.06922
 Alpha virt. eigenvalues --    7.07903   7.28551  22.41808  22.53174  22.54819
 Alpha virt. eigenvalues --   22.57456  22.58516  22.60756  22.61164  22.63104
 Alpha virt. eigenvalues --   22.67264  23.26958  43.94490  44.01701
          Condensed to atoms (all electrons):
               1          2          3          4          5          6
     1  O    7.981088   0.329202  -0.116893   0.012199   0.002378  -0.000634
     2  C    0.329202   4.540138   0.267189  -0.039593   0.019292  -0.000289
     3  C   -0.116893   0.267189   5.290961   0.195318  -0.063483   0.010794
     4  C    0.012199  -0.039593   0.195318   5.322073   0.175898  -0.053235
     5  C    0.002378   0.019292  -0.063483   0.175898   5.372296   0.215420
     6  C   -0.000634  -0.000289   0.010794  -0.053235   0.215420   5.200285
     7  C    0.000935   0.000387  -0.001269   0.042565  -0.094869   0.218355
     8  C   -0.009342  -0.000726   0.000788  -0.013157   0.031437  -0.037749
     9  C    0.001023   0.000071   0.000061   0.000007  -0.000003   0.008530
    10  C   -0.001371   0.000036  -0.000069  -0.000503   0.000399  -0.000064
    11  C    0.000032   0.000003   0.000003  -0.000030  -0.000007   0.000031
    12  O   -0.092943   0.673777  -0.096555   0.006678  -0.001570   0.000243
    13  H    0.284198  -0.019894   0.016834  -0.002628   0.000204  -0.000078
    14  H    0.003694  -0.017980   0.398473  -0.046769   0.009210  -0.000565
    15  H    0.004954  -0.056850   0.434863  -0.030146  -0.006371   0.000227
    16  H   -0.000043   0.007344  -0.031622   0.414242  -0.039423   0.002724
    17  H    0.000704  -0.013542  -0.026434   0.432219  -0.057825  -0.010259
    18  H   -0.005223   0.009384  -0.005426  -0.061390   0.439210  -0.038768
    19  H    0.000033  -0.003871   0.004532  -0.040839   0.418780  -0.039416
    20  H    0.000004   0.000162  -0.000758   0.010791  -0.064122   0.441822
    21  H    0.000005   0.000015  -0.000456  -0.008259  -0.032983   0.440911
    22  H   -0.000005  -0.000024   0.000039  -0.000136   0.009706  -0.041908
    23  H   -0.000081   0.000289   0.000354  -0.003339  -0.008507  -0.037780
    24  H    0.000098   0.000052  -0.000012   0.000564  -0.004654   0.004058
    25  H    0.011097  -0.001496  -0.001765  -0.001004   0.009504  -0.012617
    26  H   -0.000015   0.000013  -0.000002  -0.000037   0.000264  -0.000654
    27  H   -0.000009  -0.000002  -0.000002  -0.000001  -0.000101  -0.000228
    28  H   -0.000022   0.000017  -0.000022   0.000237   0.000204   0.000215
    29  H    0.002014  -0.000066  -0.000030   0.000142  -0.000570   0.000232
    30  H   -0.000001  -0.000000  -0.000000   0.000001  -0.000001  -0.000005
    31  H    0.000002  -0.000000   0.000000   0.000000   0.000002  -0.000005
    32  H    0.000001   0.000001  -0.000000   0.000000   0.000000   0.000002
               7          8          9         10         11         12
     1  O    0.000935  -0.009342   0.001023  -0.001371   0.000032  -0.092943
     2  C    0.000387  -0.000726   0.000071   0.000036   0.000003   0.673777
     3  C   -0.001269   0.000788   0.000061  -0.000069   0.000003  -0.096555
     4  C    0.042565  -0.013157   0.000007  -0.000503  -0.000030   0.006678
     5  C   -0.094869   0.031437  -0.000003   0.000399  -0.000007  -0.001570
     6  C    0.218355  -0.037749   0.008530  -0.000064   0.000031   0.000243
     7  C    5.393000   0.151091  -0.041057   0.010425   0.000590  -0.000006
     8  C    0.151091   5.306545   0.232330  -0.050910   0.007547   0.000268
     9  C   -0.041057   0.232330   5.215630   0.233742  -0.047904  -0.000010
    10  C    0.010425  -0.050910   0.233742   5.204049   0.264008  -0.000012
    11  C    0.000590   0.007547  -0.047904   0.264008   5.023555  -0.000000
    12  O   -0.000006   0.000268  -0.000010  -0.000012  -0.000000   7.815488
    13  H    0.000109  -0.000011  -0.000056   0.000235  -0.000008   0.006805
    14  H    0.000244  -0.000030  -0.000003  -0.000002   0.000000   0.002358
    15  H   -0.000079   0.000051  -0.000003  -0.000002  -0.000000   0.008123
    16  H   -0.003957   0.000602  -0.000004   0.000039   0.000001  -0.000319
    17  H    0.005753   0.001418  -0.000448  -0.001601  -0.000031   0.000085
    18  H   -0.010719   0.000441   0.000483   0.000228   0.000003   0.001280
    19  H    0.011100  -0.000363   0.000028  -0.000023  -0.000000  -0.000239
    20  H   -0.036308  -0.008358  -0.000129  -0.000031   0.000003   0.000002
    21  H   -0.068478   0.010913  -0.000767   0.000142  -0.000003  -0.000003
    22  H    0.424087  -0.039473  -0.001421  -0.000997  -0.000184   0.000000
    23  H    0.442453  -0.069098  -0.002037   0.000197   0.000715  -0.000004
    24  H   -0.046696   0.423949  -0.036276   0.008635  -0.000315  -0.000005
    25  H   -0.059932   0.424165  -0.035116  -0.012604  -0.000105  -0.000717
    26  H    0.010638  -0.047525   0.427728  -0.040822  -0.004836  -0.000000
    27  H   -0.013908  -0.030318   0.426145  -0.055986  -0.003656   0.000000
    28  H    0.003731  -0.010518  -0.047707   0.425421  -0.033362   0.000000
    29  H   -0.005233   0.013499  -0.063259   0.421263  -0.039412   0.000028
    30  H   -0.000082   0.000494  -0.007207  -0.041237   0.414762  -0.000000
    31  H    0.000028  -0.000852   0.012645  -0.052068   0.423021   0.000000
    32  H   -0.000008  -0.000441  -0.007980  -0.044080   0.420064   0.000000
              13         14         15         16         17         18
     1  O    0.284198   0.003694   0.004954  -0.000043   0.000704  -0.005223
     2  C   -0.019894  -0.017980  -0.056850   0.007344  -0.013542   0.009384
     3  C    0.016834   0.398473   0.434863  -0.031622  -0.026434  -0.005426
     4  C   -0.002628  -0.046769  -0.030146   0.414242   0.432219  -0.061390
     5  C    0.000204   0.009210  -0.006371  -0.039423  -0.057825   0.439210
     6  C   -0.000078  -0.000565   0.000227   0.002724  -0.010259  -0.038768
     7  C    0.000109   0.000244  -0.000079  -0.003957   0.005753  -0.010719
     8  C   -0.000011  -0.000030   0.000051   0.000602   0.001418   0.000441
     9  C   -0.000056  -0.000003  -0.000003  -0.000004  -0.000448   0.000483
    10  C    0.000235  -0.000002  -0.000002   0.000039  -0.001601   0.000228
    11  C   -0.000008   0.000000  -0.000000   0.000001  -0.000031   0.000003
    12  O    0.006805   0.002358   0.008123  -0.000319   0.000085   0.001280
    13  H    0.377896  -0.000755  -0.000710   0.000053  -0.000164  -0.000129
    14  H   -0.000755   0.511112  -0.014985  -0.006395  -0.003142  -0.000069
    15  H   -0.000710  -0.014985   0.492589  -0.003927   0.005396   0.000691
    16  H    0.000053  -0.006395  -0.003927   0.522476  -0.018771   0.004911
    17  H   -0.000164  -0.003142   0.005396  -0.018771   0.510963   0.003214
    18  H   -0.000129  -0.000069   0.000691   0.004911   0.003214   0.506878
    19  H    0.000022  -0.000142   0.001088  -0.003513   0.005187  -0.015087
    20  H   -0.000002   0.000014  -0.000018   0.000055  -0.000664  -0.001925
    21  H    0.000000   0.000011   0.000020   0.001800   0.001352   0.005346
    22  H    0.000000  -0.000001   0.000003  -0.000222   0.000863  -0.000844
    23  H   -0.000004  -0.000018  -0.000041   0.000987  -0.011312   0.001730
    24  H   -0.000011   0.000000  -0.000002  -0.000007  -0.000241   0.001134
    25  H    0.000212  -0.000012   0.000030  -0.000226   0.001720  -0.013613
    26  H    0.000014   0.000000  -0.000000   0.000001   0.000014  -0.000013
    27  H    0.000002  -0.000000   0.000000  -0.000001   0.000028  -0.000040
    28  H    0.000006   0.000004   0.000000  -0.000011   0.000185  -0.000036
    29  H   -0.000150   0.000004   0.000001   0.000001   0.000006   0.000056
    30  H    0.000000   0.000000   0.000000  -0.000000  -0.000003   0.000000
    31  H   -0.000001  -0.000000   0.000000  -0.000000  -0.000002  -0.000000
    32  H    0.000001  -0.000000  -0.000000  -0.000000   0.000001  -0.000000
              19         20         21         22         23         24
     1  O    0.000033   0.000004   0.000005  -0.000005  -0.000081   0.000098
     2  C   -0.003871   0.000162   0.000015  -0.000024   0.000289   0.000052
     3  C    0.004532  -0.000758  -0.000456   0.000039   0.000354  -0.000012
     4  C   -0.040839   0.010791  -0.008259  -0.000136  -0.003339   0.000564
     5  C    0.418780  -0.064122  -0.032983   0.009706  -0.008507  -0.004654
     6  C   -0.039416   0.441822   0.440911  -0.041908  -0.037780   0.004058
     7  C    0.011100  -0.036308  -0.068478   0.424087   0.442453  -0.046696
     8  C   -0.000363  -0.008358   0.010913  -0.039473  -0.069098   0.423949
     9  C    0.000028  -0.000129  -0.000767  -0.001421  -0.002037  -0.036276
    10  C   -0.000023  -0.000031   0.000142  -0.000997   0.000197   0.008635
    11  C   -0.000000   0.000003  -0.000003  -0.000184   0.000715  -0.000315
    12  O   -0.000239   0.000002  -0.000003   0.000000  -0.000004  -0.000005
    13  H    0.000022  -0.000002   0.000000   0.000000  -0.000004  -0.000011
    14  H   -0.000142   0.000014   0.000011  -0.000001  -0.000018   0.000000
    15  H    0.001088  -0.000018   0.000020   0.000003  -0.000041  -0.000002
    16  H   -0.003513   0.000055   0.001800  -0.000222   0.000987  -0.000007
    17  H    0.005187  -0.000664   0.001352   0.000863  -0.011312  -0.000241
    18  H   -0.015087  -0.001925   0.005346  -0.000844   0.001730   0.001134
    19  H    0.522098  -0.007524  -0.003288   0.000055  -0.000939  -0.000279
    20  H   -0.007524   0.527907  -0.017510  -0.003977   0.005894   0.001774
    21  H   -0.003288  -0.017510   0.531674  -0.006958  -0.001416   0.000152
    22  H    0.000055  -0.003977  -0.006958   0.523133  -0.019498  -0.001564
    23  H   -0.000939   0.005894  -0.001416  -0.019498   0.539848   0.005723
    24  H   -0.000279   0.001774   0.000152  -0.001564   0.005723   0.525579
    25  H    0.000952   0.001496  -0.000765   0.005669   0.001321  -0.020918
    26  H   -0.000001  -0.000005   0.000014   0.000198  -0.000575  -0.009216
    27  H    0.000003   0.000049  -0.000017   0.002269   0.001271  -0.001790
    28  H    0.000002  -0.000019  -0.000036   0.001014  -0.006658  -0.000683
    29  H    0.000001   0.000001   0.000006   0.000034   0.001209   0.000429
    30  H   -0.000000   0.000000   0.000000  -0.000005   0.000096   0.000023
    31  H   -0.000000  -0.000000   0.000000   0.000007   0.000002   0.000014
    32  H    0.000000  -0.000000  -0.000000   0.000007  -0.000061  -0.000050
              25         26         27         28         29         30
     1  O    0.011097  -0.000015  -0.000009  -0.000022   0.002014  -0.000001
     2  C   -0.001496   0.000013  -0.000002   0.000017  -0.000066  -0.000000
     3  C   -0.001765  -0.000002  -0.000002  -0.000022  -0.000030  -0.000000
     4  C   -0.001004  -0.000037  -0.000001   0.000237   0.000142   0.000001
     5  C    0.009504   0.000264  -0.000101   0.000204  -0.000570  -0.000001
     6  C   -0.012617  -0.000654  -0.000228   0.000215   0.000232  -0.000005
     7  C   -0.059932   0.010638  -0.013908   0.003731  -0.005233  -0.000082
     8  C    0.424165  -0.047525  -0.030318  -0.010518   0.013499   0.000494
     9  C   -0.035116   0.427728   0.426145  -0.047707  -0.063259  -0.007207
    10  C   -0.012604  -0.040822  -0.055986   0.425421   0.421263  -0.041237
    11  C   -0.000105  -0.004836  -0.003656  -0.033362  -0.039412   0.414762
    12  O   -0.000717  -0.000000   0.000000   0.000000   0.000028  -0.000000
    13  H    0.000212   0.000014   0.000002   0.000006  -0.000150   0.000000
    14  H   -0.000012   0.000000  -0.000000   0.000004   0.000004   0.000000
    15  H    0.000030  -0.000000   0.000000   0.000000   0.000001   0.000000
    16  H   -0.000226   0.000001  -0.000001  -0.000011   0.000001  -0.000000
    17  H    0.001720   0.000014   0.000028   0.000185   0.000006  -0.000003
    18  H   -0.013613  -0.000013  -0.000040  -0.000036   0.000056   0.000000
    19  H    0.000952  -0.000001   0.000003   0.000002   0.000001  -0.000000
    20  H    0.001496  -0.000005   0.000049  -0.000019   0.000001   0.000000
    21  H   -0.000765   0.000014  -0.000017  -0.000036   0.000006   0.000000
    22  H    0.005669   0.000198   0.002269   0.001014   0.000034  -0.000005
    23  H    0.001321  -0.000575   0.001271  -0.006658   0.001209   0.000096
    24  H   -0.020918  -0.009216  -0.001790  -0.000683   0.000429   0.000023
    25  H    0.561626  -0.003620   0.007279   0.001118   0.000330  -0.000060
    26  H   -0.003620   0.547585  -0.023636   0.006731  -0.003655   0.000183
    27  H    0.007279  -0.023636   0.544420  -0.003525   0.007682   0.002743
    28  H    0.001118   0.006731  -0.003525   0.569078  -0.033995  -0.006263
    29  H    0.000330  -0.003655   0.007682  -0.033995   0.564805   0.008033
    30  H   -0.000060   0.000183   0.002743  -0.006263   0.008033   0.548947
    31  H    0.000022  -0.000058  -0.000221  -0.004625  -0.004253  -0.024826
    32  H    0.000133   0.003305   0.000316   0.008020  -0.006653  -0.032061
              31         32
     1  O    0.000002   0.000001
     2  C   -0.000000   0.000001
     3  C    0.000000  -0.000000
     4  C    0.000000   0.000000
     5  C    0.000002   0.000000
     6  C   -0.000005   0.000002
     7  C    0.000028  -0.000008
     8  C   -0.000852  -0.000441
     9  C    0.012645  -0.007980
    10  C   -0.052068  -0.044080
    11  C    0.423021   0.420064
    12  O    0.000000   0.000000
    13  H   -0.000001   0.000001
    14  H   -0.000000  -0.000000
    15  H    0.000000  -0.000000
    16  H   -0.000000  -0.000000
    17  H   -0.000002   0.000001
    18  H   -0.000000  -0.000000
    19  H   -0.000000   0.000000
    20  H   -0.000000  -0.000000
    21  H    0.000000  -0.000000
    22  H    0.000007   0.000007
    23  H    0.000002  -0.000061
    24  H    0.000014  -0.000050
    25  H    0.000022   0.000133
    26  H   -0.000058   0.003305
    27  H   -0.000221   0.000316
    28  H   -0.004625   0.008020
    29  H   -0.004253  -0.006653
    30  H   -0.024826  -0.032061
    31  H    0.534761  -0.025046
    32  H   -0.025046   0.548809
 Mulliken charges:
               1
     1  O   -0.407077
     2  C    0.306962
     3  C   -0.275414
     4  C   -0.311866
     5  C   -0.329715
     6  C   -0.269596
     7  C   -0.332889
     8  C   -0.286665
     9  C   -0.267034
    10  C   -0.266436
    11  C   -0.424484
    12  O   -0.322754
    13  H    0.338007
    14  H    0.165745
    15  H    0.165097
    16  H    0.153205
    17  H    0.175330
    18  H    0.178294
    19  H    0.151644
    20  H    0.151375
    21  H    0.148577
    22  H    0.150133
    23  H    0.159279
    24  H    0.150532
    25  H    0.137895
    26  H    0.137984
    27  H    0.141234
    28  H    0.131498
    29  H    0.137500
    30  H    0.136468
    31  H    0.141452
    32  H    0.135718
 Sum of Mulliken charges =  -0.00000
 Mulliken charges with hydrogens summed into heavy atoms:
               1
     1  O   -0.069070
     2  C    0.306962
     3  C    0.055429
     4  C    0.016670
     5  C    0.000222
     6  C    0.030357
     7  C   -0.023477
     8  C    0.001762
     9  C    0.012183
    10  C    0.002562
    11  C   -0.010846
    12  O   -0.322754
 Electronic spatial extent (au):  <R**2>=           3144.6246
 Charge=             -0.0000 electrons
 Dipole moment (field-independent basis, Debye):
    X=              1.1768    Y=              0.6517    Z=              1.2962  Tot=              1.8680
 Quadrupole moment (field-independent basis, Debye-Ang):
   XX=            -85.5653   YY=            -75.4594   ZZ=            -77.8304
   XY=             -4.1277   XZ=             -7.2874   YZ=             -0.1084
 Traceless Quadrupole moment (field-independent basis, Debye-Ang):
   XX=             -5.9469   YY=              4.1589   ZZ=              1.7880
   XY=             -4.1277   XZ=             -7.2874   YZ=             -0.1084
 Octapole moment (field-independent basis, Debye-Ang**2):
  XXX=              5.3962  YYY=            -22.5556  ZZZ=              0.7952  XYY=             -2.4136
  XXY=             19.2779  XXZ=             25.8844  XZZ=             -1.9930  YZZ=             -3.7350
  YYZ=             -4.7628  XYZ=              8.4623
 Hexadecapole moment (field-independent basis, Debye-Ang**3):
 XXXX=          -2900.6414 YYYY=          -1102.4025 ZZZZ=           -374.4622 XXXY=            -27.4185
 XXXZ=            -77.6980 YYYX=             28.7569 YYYZ=             21.5088 ZZZX=             -5.1970
 ZZZY=              2.0246 XXYY=           -677.8558 XXZZ=           -541.2475 YYZZ=           -245.7943
 XXYZ=            -31.1483 YYXZ=            -10.9516 ZZXY=             -2.1773
 N-N= 7.432782146762D+02 E-N=-2.751373370300D+03  KE= 5.405750086659D+02
 Unable to Open any file for archive entry.
 1\1\GINC-NOTCH075\SP\RM062X\def2TZVP\C10H20O2\U6032257\03-Feb-2022\0\\
 # M062X/def2tzvp int=(grid=ultrafine) nmr=giao guess=read geom=check\\
 Ac1.xyz\\0,1\O,0,4.458202588,-0.5381967015,-2.1561000791\C,0,4.6990895
 305,-0.6270348237,-0.8183301103\C,0,3.4247162935,-0.5384192069,-0.0096
 703858\C,0,2.364146698,-1.5532312006,-0.4647973181\C,0,2.8201933093,-3
 .0058250486,-0.2884531625\C,0,1.8642736065,-4.0395301264,-0.9026082857
 \C,0,1.6165261238,-3.8663898133,-2.4097608528\C,0,2.8938231102,-3.8835
 504717,-3.2577305895\C,0,2.6498059126,-3.6961649799,-4.7607806037\C,0,
 2.1363795307,-2.3007709448,-5.1366530079\C,0,2.0161707691,-2.099931093
 7,-6.6485709928\O,0,5.8181080918,-0.7590741077,-0.3769625384\H,0,5.326
 4931017,-0.6101257766,-2.586651261\H,0,3.0341315471,0.4806618049,-0.11
 73558772\H,0,3.7015921785,-0.6849729876,1.0369422324\H,0,1.4415810753,
 -1.3832122331,0.1029716518\H,0,2.129558033,-1.3537119532,-1.5137819515
 \H,0,3.8172451947,-3.1292653912,-0.7283212063\H,0,2.9416665069,-3.2164
 486087,0.7815713807\H,0,2.2715293854,-5.0420301494,-0.7180652047\H,0,0
 .9010937814,-3.9988534079,-0.3769773227\H,0,0.9492376829,-4.6679457174
 ,-2.7528417907\H,0,1.070904547,-2.9321291982,-2.5832478882\H,0,3.41822
 16646,-4.8334169685,-3.0871747704\H,0,3.5731146932,-3.0919129985,-2.91
 92012389\H,0,3.5891914217,-3.8799521739,-5.299359061\H,0,1.9406437894,
 -4.4552684827,-5.120257339\H,0,1.1590298627,-2.1254121562,-4.671092912
 3\H,0,2.8127947893,-1.546140683,-4.7125609264\H,0,1.3245929286,-2.8271
 322687,-7.0887745359\H,0,1.6473192016,-1.0990189601,-6.8942612765\H,0,
 2.986023051,-2.229093171,-7.1422427754\\Version=ES64L-G16RevC.01\State
 =1-A\HF=-543.5426623\RMSD=2.431e-09\Dipole=-0.6919693,-0.0158193,-0.24
 71294\Quadrupole=-3.0015586,2.4570681,0.5444905,-1.5191926,-6.6238034,
 -0.6024075\PG=C01 [X(C10H20O2)]\\@
 The archive entry for this job was punched.


 JUST WHEN YOU THINK YOU'VE GOT THE WORLD ON A STRING,
 YOU FIND OUT IT'S YOUR LEASH.
 Job cpu time:       0 days  0 hours 42 minutes 15.1 seconds.
 Elapsed time:       0 days  0 hours  1 minutes 30.8 seconds.
 File lengths (MBytes):  RWF=    140 Int=      0 D2E=      0 Chk=     24 Scr=      1
 Normal termination of Gaussian 16 at Thu Feb  3 10:58:49 2022.
