 Entering Gaussian System, Link 0=/uufs/chpc.utah.edu/sys/installdir/gaussian16/C01/AVX2/g16/g16
 Input=Ac1_clust-44.com
 Output=Ac1_clust-44.log
 Initial command:
 /uufs/chpc.utah.edu/sys/installdir/gaussian16/C01/AVX2/g16/l1.exe "/scratch/general/lustre/u6032257/3867910/notchpeak.peaks/Gau-305027.inp" -scrdir="/scratch/general/lustre/u6032257/3867910/notchpeak.peaks/"
 Entering Link 1 = /uufs/chpc.utah.edu/sys/installdir/gaussian16/C01/AVX2/g16/l1.exe PID=    305029.
  
 Copyright (c) 1988-2019, Gaussian, Inc.  All Rights Reserved.
  
 This is part of the Gaussian(R) 16 program.  It is based on
 the Gaussian(R) 09 system (copyright 2009, Gaussian, Inc.),
 the Gaussian(R) 03 system (copyright 2003, Gaussian, Inc.),
 the Gaussian(R) 98 system (copyright 1998, Gaussian, Inc.),
 the Gaussian(R) 94 system (copyright 1995, Gaussian, Inc.),
 the Gaussian 92(TM) system (copyright 1992, Gaussian, Inc.),
 the Gaussian 90(TM) system (copyright 1990, Gaussian, Inc.),
 the Gaussian 88(TM) system (copyright 1988, Gaussian, Inc.),
 the Gaussian 86(TM) system (copyright 1986, Carnegie Mellon
 University), and the Gaussian 82(TM) system (copyright 1983,
 Carnegie Mellon University). Gaussian is a federally registered
 trademark of Gaussian, Inc.
  
 This software contains proprietary and confidential information,
 including trade secrets, belonging to Gaussian, Inc.
  
 This software is provided under written license and may be
 used, copied, transmitted, or stored only in accord with that
 written license.
  
 The following legend is applicable only to US Government
 contracts under FAR:
  
                    RESTRICTED RIGHTS LEGEND
  
 Use, reproduction and disclosure by the US Government is
 subject to restrictions as set forth in subparagraphs (a)
 and (c) of the Commercial Computer Software - Restricted
 Rights clause in FAR 52.227-19.
  
 Gaussian, Inc.
 340 Quinnipiac St., Bldg. 40, Wallingford CT 06492
  
  
 ---------------------------------------------------------------
 Warning -- This program may not be used in any manner that
 competes with the business of Gaussian, Inc. or will provide
 assistance to any competitor of Gaussian, Inc.  The licensee
 of this program is prohibited from giving any competitor of
 Gaussian, Inc. access to this program.  By using this program,
 the user acknowledges that Gaussian, Inc. is engaged in the
 business of creating and licensing software in the field of
 computational chemistry and represents and warrants to the
 licensee that it is not a competitor of Gaussian, Inc. and that
 it will not use this program in any manner prohibited above.
 ---------------------------------------------------------------
  

 Cite this work as:
 Gaussian 16, Revision C.01,
 M. J. Frisch, G. W. Trucks, H. B. Schlegel, G. E. Scuseria, 
 M. A. Robb, J. R. Cheeseman, G. Scalmani, V. Barone, 
 G. A. Petersson, H. Nakatsuji, X. Li, M. Caricato, A. V. Marenich, 
 J. Bloino, B. G. Janesko, R. Gomperts, B. Mennucci, H. P. Hratchian, 
 J. V. Ortiz, A. F. Izmaylov, J. L. Sonnenberg, D. Williams-Young, 
 F. Ding, F. Lipparini, F. Egidi, J. Goings, B. Peng, A. Petrone, 
 T. Henderson, D. Ranasinghe, V. G. Zakrzewski, J. Gao, N. Rega, 
 G. Zheng, W. Liang, M. Hada, M. Ehara, K. Toyota, R. Fukuda, 
 J. Hasegawa, M. Ishida, T. Nakajima, Y. Honda, O. Kitao, H. Nakai, 
 T. Vreven, K. Throssell, J. A. Montgomery, Jr., J. E. Peralta, 
 F. Ogliaro, M. J. Bearpark, J. J. Heyd, E. N. Brothers, K. N. Kudin, 
 V. N. Staroverov, T. A. Keith, R. Kobayashi, J. Normand, 
 K. Raghavachari, A. P. Rendell, J. C. Burant, S. S. Iyengar, 
 J. Tomasi, M. Cossi, J. M. Millam, M. Klene, C. Adamo, R. Cammi, 
 J. W. Ochterski, R. L. Martin, K. Morokuma, O. Farkas, 
 J. B. Foresman, and D. J. Fox, Gaussian, Inc., Wallingford CT, 2019.
 
 ******************************************
 Gaussian 16:  ES64L-G16RevC.01  3-Jul-2019
                 5-Feb-2022 
 ******************************************
 %NProcShared=52
 Will use up to   52 processors via shared memory.
 %mem=16GB
 %chk=Ac1_clust-44.chk
 ----------------------------------------------------------------------
 # B3LYP/6-31G(d,p) empiricaldispersion=GD3BJ int=(grid=ultrafine) opt 
 freq=noraman
 ----------------------------------------------------------------------
 1/18=20,19=15,26=4,38=1/1,3;
 2/9=110,12=2,17=6,18=5,40=1/2;
 3/5=1,6=6,7=101,11=2,25=1,30=1,71=1,74=-5,75=-5,124=41/1,2,3;
 4//1;
 5/5=2,38=5/2;
 6/7=2,8=2,9=2,10=2,28=1/1;
 7//1,2,3,16;
 1/18=20,19=15,26=4/3(2);
 2/9=110/2;
 99//99;
 2/9=110/2;
 3/5=1,6=6,7=101,11=2,25=1,30=1,71=1,74=-5,75=-5,124=41/1,2,3;
 4/5=5,16=3,69=1/1;
 5/5=2,38=5/2;
 7//1,2,3,16;
 1/18=20,19=15,26=4/3(-5);
 2/9=110/2;
 6/7=2,8=2,9=2,10=2,19=2,28=1/1;
 99/9=1/99;
 -------
 Ac1.xyz
 -------
 Symbolic Z-matrix:
 Charge =  0 Multiplicity = 1
 O                     4.5756   -0.1096    1.1933 
 C                     5.4794   -0.6995    0.3813 
 C                     5.1858   -2.1801    0.1539 
 C                     3.8366   -2.4787   -0.5456 
 C                     3.7407   -1.9472   -1.9902 
 C                     2.4114   -2.3148   -2.6724 
 C                     2.3194   -1.7883   -4.1172 
 C                     0.9619   -2.052    -4.8032 
 C                     0.5644   -3.5355   -4.9597 
 C                     1.5402   -4.3648   -5.8152 
 C                     1.0602   -5.8073   -6.028 
 O                     6.4352   -0.1099   -0.1006 
 H                     4.8718    0.799     1.2519 
 H                     5.216    -2.6617    1.1307 
 H                     6.0098   -2.6075   -0.4177 
 H                     3.6869   -3.56     -0.5584 
 H                     3.0127   -2.0806    0.0514 
 H                     3.8578   -0.862    -1.9935 
 H                     4.5717   -2.3421   -2.5777 
 H                     2.2965   -3.3997   -2.67 
 H                     1.5798   -1.9176   -2.0875 
 H                     2.4975   -0.7114   -4.1137 
 H                     3.1265   -2.212    -4.7166 
 H                     0.9699   -1.5836   -5.789 
 H                     0.1788   -1.5354   -4.2456 
 H                     0.4523   -3.9956   -3.9771 
 H                    -0.4274   -3.5779   -5.4133 
 H                     1.6786   -3.8845   -6.7853 
 H                     2.5232   -4.3866   -5.3428 
 H                     0.9484   -6.3324   -5.0786 
 H                     0.0977   -5.8346   -6.5403 
 H                     1.7713   -6.3701   -6.6337 
 

 GradGradGradGradGradGradGradGradGradGradGradGradGradGradGradGradGradGrad
 Berny optimization.
 Initialization pass.
                           ----------------------------
                           !    Initial Parameters    !
                           ! (Angstroms and Degrees)  !
 --------------------------                            --------------------------
 ! Name  Definition              Value          Derivative Info.                !
 --------------------------------------------------------------------------------
 ! R1    R(1,2)                  1.3506         estimate D2E/DX2                !
 ! R2    R(1,13)                 0.9575         estimate D2E/DX2                !
 ! R3    R(2,3)                  1.5265         estimate D2E/DX2                !
 ! R4    R(2,12)                 1.2221         estimate D2E/DX2                !
 ! R5    R(3,4)                  1.5488         estimate D2E/DX2                !
 ! R6    R(3,14)                 1.0895         estimate D2E/DX2                !
 ! R7    R(3,15)                 1.0901         estimate D2E/DX2                !
 ! R8    R(4,5)                  1.5423         estimate D2E/DX2                !
 ! R9    R(4,16)                 1.0917         estimate D2E/DX2                !
 ! R10   R(4,17)                 1.0926         estimate D2E/DX2                !
 ! R11   R(5,6)                  1.5387         estimate D2E/DX2                !
 ! R12   R(5,18)                 1.0915         estimate D2E/DX2                !
 ! R13   R(5,19)                 1.0916         estimate D2E/DX2                !
 ! R14   R(6,7)                  1.5405         estimate D2E/DX2                !
 ! R15   R(6,20)                 1.091          estimate D2E/DX2                !
 ! R16   R(6,21)                 1.0915         estimate D2E/DX2                !
 ! R17   R(7,8)                  1.5437         estimate D2E/DX2                !
 ! R18   R(7,22)                 1.0915         estimate D2E/DX2                !
 ! R19   R(7,23)                 1.091          estimate D2E/DX2                !
 ! R20   R(8,9)                  1.5438         estimate D2E/DX2                !
 ! R21   R(8,24)                 1.0915         estimate D2E/DX2                !
 ! R22   R(8,25)                 1.0913         estimate D2E/DX2                !
 ! R23   R(9,10)                 1.5401         estimate D2E/DX2                !
 ! R24   R(9,26)                 1.0908         estimate D2E/DX2                !
 ! R25   R(9,27)                 1.0914         estimate D2E/DX2                !
 ! R26   R(10,11)                1.5351         estimate D2E/DX2                !
 ! R27   R(10,28)                1.0913         estimate D2E/DX2                !
 ! R28   R(10,29)                1.0908         estimate D2E/DX2                !
 ! R29   R(11,30)                1.0907         estimate D2E/DX2                !
 ! R30   R(11,31)                1.0907         estimate D2E/DX2                !
 ! R31   R(11,32)                1.0905         estimate D2E/DX2                !
 ! A1    A(2,1,13)             104.1378         estimate D2E/DX2                !
 ! A2    A(1,2,3)              112.6123         estimate D2E/DX2                !
 ! A3    A(1,2,12)             123.3487         estimate D2E/DX2                !
 ! A4    A(3,2,12)             124.0324         estimate D2E/DX2                !
 ! A5    A(2,3,4)              114.9504         estimate D2E/DX2                !
 ! A6    A(2,3,14)             106.8499         estimate D2E/DX2                !
 ! A7    A(2,3,15)             108.2409         estimate D2E/DX2                !
 ! A8    A(4,3,14)             110.1115         estimate D2E/DX2                !
 ! A9    A(4,3,15)             110.2465         estimate D2E/DX2                !
 ! A10   A(14,3,15)            106.0125         estimate D2E/DX2                !
 ! A11   A(3,4,5)              114.253          estimate D2E/DX2                !
 ! A12   A(3,4,16)             108.4036         estimate D2E/DX2                !
 ! A13   A(3,4,17)             109.8694         estimate D2E/DX2                !
 ! A14   A(5,4,16)             108.774          estimate D2E/DX2                !
 ! A15   A(5,4,17)             109.8377         estimate D2E/DX2                !
 ! A16   A(16,4,17)            105.3018         estimate D2E/DX2                !
 ! A17   A(4,5,6)              112.7479         estimate D2E/DX2                !
 ! A18   A(4,5,18)             109.8035         estimate D2E/DX2                !
 ! A19   A(4,5,19)             109.3964         estimate D2E/DX2                !
 ! A20   A(6,5,18)             109.2001         estimate D2E/DX2                !
 ! A21   A(6,5,19)             109.4277         estimate D2E/DX2                !
 ! A22   A(18,5,19)            106.0434         estimate D2E/DX2                !
 ! A23   A(5,6,7)              112.6913         estimate D2E/DX2                !
 ! A24   A(5,6,20)             109.1224         estimate D2E/DX2                !
 ! A25   A(5,6,21)             109.492          estimate D2E/DX2                !
 ! A26   A(7,6,20)             109.6118         estimate D2E/DX2                !
 ! A27   A(7,6,21)             109.4327         estimate D2E/DX2                !
 ! A28   A(20,6,21)            106.2871         estimate D2E/DX2                !
 ! A29   A(6,7,8)              114.2629         estimate D2E/DX2                !
 ! A30   A(6,7,22)             108.9317         estimate D2E/DX2                !
 ! A31   A(6,7,23)             109.7779         estimate D2E/DX2                !
 ! A32   A(8,7,22)             108.2671         estimate D2E/DX2                !
 ! A33   A(8,7,23)             109.8814         estimate D2E/DX2                !
 ! A34   A(22,7,23)            105.3204         estimate D2E/DX2                !
 ! A35   A(7,8,9)              115.8257         estimate D2E/DX2                !
 ! A36   A(7,8,24)             108.761          estimate D2E/DX2                !
 ! A37   A(7,8,25)             108.8503         estimate D2E/DX2                !
 ! A38   A(9,8,24)             108.8276         estimate D2E/DX2                !
 ! A39   A(9,8,25)             108.7786         estimate D2E/DX2                !
 ! A40   A(24,8,25)            105.283          estimate D2E/DX2                !
 ! A41   A(8,9,10)             114.2441         estimate D2E/DX2                !
 ! A42   A(8,9,26)             109.9064         estimate D2E/DX2                !
 ! A43   A(8,9,27)             108.2668         estimate D2E/DX2                !
 ! A44   A(10,9,26)            109.7787         estimate D2E/DX2                !
 ! A45   A(10,9,27)            108.9042         estimate D2E/DX2                !
 ! A46   A(26,9,27)            105.3439         estimate D2E/DX2                !
 ! A47   A(9,10,11)            112.6369         estimate D2E/DX2                !
 ! A48   A(9,10,28)            109.704          estimate D2E/DX2                !
 ! A49   A(9,10,29)            109.9481         estimate D2E/DX2                !
 ! A50   A(11,10,28)           109.2687         estimate D2E/DX2                !
 ! A51   A(11,10,29)           108.8462         estimate D2E/DX2                !
 ! A52   A(28,10,29)           106.229          estimate D2E/DX2                !
 ! A53   A(10,11,30)           111.333          estimate D2E/DX2                !
 ! A54   A(10,11,31)           111.381          estimate D2E/DX2                !
 ! A55   A(10,11,32)           110.9805         estimate D2E/DX2                !
 ! A56   A(30,11,31)           107.8395         estimate D2E/DX2                !
 ! A57   A(30,11,32)           107.5685         estimate D2E/DX2                !
 ! A58   A(31,11,32)           107.5554         estimate D2E/DX2                !
 ! D1    D(13,1,2,3)           179.9486         estimate D2E/DX2                !
 ! D2    D(13,1,2,12)            0.8578         estimate D2E/DX2                !
 ! D3    D(1,2,3,4)             62.2744         estimate D2E/DX2                !
 ! D4    D(1,2,3,14)           -60.2164         estimate D2E/DX2                !
 ! D5    D(1,2,3,15)          -174.0003         estimate D2E/DX2                !
 ! D6    D(12,2,3,4)          -118.6421         estimate D2E/DX2                !
 ! D7    D(12,2,3,14)          118.8671         estimate D2E/DX2                !
 ! D8    D(12,2,3,15)            5.0832         estimate D2E/DX2                !
 ! D9    D(2,3,4,5)             64.4874         estimate D2E/DX2                !
 ! D10   D(2,3,4,16)          -174.0515         estimate D2E/DX2                !
 ! D11   D(2,3,4,17)           -59.4706         estimate D2E/DX2                !
 ! D12   D(14,3,4,5)          -174.7937         estimate D2E/DX2                !
 ! D13   D(14,3,4,16)          -53.3326         estimate D2E/DX2                !
 ! D14   D(14,3,4,17)           61.2483         estimate D2E/DX2                !
 ! D15   D(15,3,4,5)           -58.1675         estimate D2E/DX2                !
 ! D16   D(15,3,4,16)           63.2936         estimate D2E/DX2                !
 ! D17   D(15,3,4,17)          177.8745         estimate D2E/DX2                !
 ! D18   D(3,4,5,6)            177.5346         estimate D2E/DX2                !
 ! D19   D(3,4,5,18)           -60.4597         estimate D2E/DX2                !
 ! D20   D(3,4,5,19)            55.5291         estimate D2E/DX2                !
 ! D21   D(16,4,5,6)            56.2778         estimate D2E/DX2                !
 ! D22   D(16,4,5,18)          178.2836         estimate D2E/DX2                !
 ! D23   D(16,4,5,19)          -65.7276         estimate D2E/DX2                !
 ! D24   D(17,4,5,6)           -58.4905         estimate D2E/DX2                !
 ! D25   D(17,4,5,18)           63.5153         estimate D2E/DX2                !
 ! D26   D(17,4,5,19)          179.5041         estimate D2E/DX2                !
 ! D27   D(4,5,6,7)           -179.7622         estimate D2E/DX2                !
 ! D28   D(4,5,6,20)           -57.755          estimate D2E/DX2                !
 ! D29   D(4,5,6,21)            58.1959         estimate D2E/DX2                !
 ! D30   D(18,5,6,7)            57.8923         estimate D2E/DX2                !
 ! D31   D(18,5,6,20)          179.8996         estimate D2E/DX2                !
 ! D32   D(18,5,6,21)          -64.1495         estimate D2E/DX2                !
 ! D33   D(19,5,6,7)           -57.7744         estimate D2E/DX2                !
 ! D34   D(19,5,6,20)           64.2328         estimate D2E/DX2                !
 ! D35   D(19,5,6,21)         -179.8163         estimate D2E/DX2                !
 ! D36   D(5,6,7,8)           -175.9877         estimate D2E/DX2                !
 ! D37   D(5,6,7,22)           -54.7842         estimate D2E/DX2                !
 ! D38   D(5,6,7,23)            60.0612         estimate D2E/DX2                !
 ! D39   D(20,6,7,8)            62.2818         estimate D2E/DX2                !
 ! D40   D(20,6,7,22)         -176.5148         estimate D2E/DX2                !
 ! D41   D(20,6,7,23)          -61.6693         estimate D2E/DX2                !
 ! D42   D(21,6,7,8)           -53.9123         estimate D2E/DX2                !
 ! D43   D(21,6,7,22)           67.2911         estimate D2E/DX2                !
 ! D44   D(21,6,7,23)         -177.8635         estimate D2E/DX2                !
 ! D45   D(6,7,8,9)            -61.0683         estimate D2E/DX2                !
 ! D46   D(6,7,8,24)           176.041          estimate D2E/DX2                !
 ! D47   D(6,7,8,25)            61.8287         estimate D2E/DX2                !
 ! D48   D(22,7,8,9)           177.3616         estimate D2E/DX2                !
 ! D49   D(22,7,8,24)           54.471          estimate D2E/DX2                !
 ! D50   D(22,7,8,25)          -59.7413         estimate D2E/DX2                !
 ! D51   D(23,7,8,9)            62.8273         estimate D2E/DX2                !
 ! D52   D(23,7,8,24)          -60.0634         estimate D2E/DX2                !
 ! D53   D(23,7,8,25)         -174.2757         estimate D2E/DX2                !
 ! D54   D(7,8,9,10)           -61.0537         estimate D2E/DX2                !
 ! D55   D(7,8,9,26)            62.8488         estimate D2E/DX2                !
 ! D56   D(7,8,9,27)           177.4242         estimate D2E/DX2                !
 ! D57   D(24,8,9,10)           61.802          estimate D2E/DX2                !
 ! D58   D(24,8,9,26)         -174.2956         estimate D2E/DX2                !
 ! D59   D(24,8,9,27)          -59.7202         estimate D2E/DX2                !
 ! D60   D(25,8,9,10)          176.0116         estimate D2E/DX2                !
 ! D61   D(25,8,9,26)          -60.0859         estimate D2E/DX2                !
 ! D62   D(25,8,9,27)           54.4894         estimate D2E/DX2                !
 ! D63   D(8,9,10,11)         -175.9999         estimate D2E/DX2                !
 ! D64   D(8,9,10,28)          -54.0534         estimate D2E/DX2                !
 ! D65   D(8,9,10,29)           62.4204         estimate D2E/DX2                !
 ! D66   D(26,9,10,11)          60.0292         estimate D2E/DX2                !
 ! D67   D(26,9,10,28)        -178.0244         estimate D2E/DX2                !
 ! D68   D(26,9,10,29)         -61.5505         estimate D2E/DX2                !
 ! D69   D(27,9,10,11)         -54.8296         estimate D2E/DX2                !
 ! D70   D(27,9,10,28)          67.1168         estimate D2E/DX2                !
 ! D71   D(27,9,10,29)        -176.4093         estimate D2E/DX2                !
 ! D72   D(9,10,11,30)         -60.0465         estimate D2E/DX2                !
 ! D73   D(9,10,11,31)          60.3579         estimate D2E/DX2                !
 ! D74   D(9,10,11,32)        -179.8366         estimate D2E/DX2                !
 ! D75   D(28,10,11,30)        177.7612         estimate D2E/DX2                !
 ! D76   D(28,10,11,31)        -61.8344         estimate D2E/DX2                !
 ! D77   D(28,10,11,32)         57.9711         estimate D2E/DX2                !
 ! D78   D(29,10,11,30)         62.1568         estimate D2E/DX2                !
 ! D79   D(29,10,11,31)       -177.4389         estimate D2E/DX2                !
 ! D80   D(29,10,11,32)        -57.6333         estimate D2E/DX2                !
 --------------------------------------------------------------------------------
 Trust Radius=3.00D-01 FncErr=1.00D-07 GrdErr=1.00D-06 EigMax=2.50D+02 EigMin=1.00D-04
 Number of steps in this run=    179 maximum allowed number of steps=    192.
 GradGradGradGradGradGradGradGradGradGradGradGradGradGradGradGradGradGrad

                          Input orientation:                          
 ---------------------------------------------------------------------
 Center     Atomic      Atomic             Coordinates (Angstroms)
 Number     Number       Type             X           Y           Z
 ---------------------------------------------------------------------
      1          8           0        4.575600   -0.109600    1.193300
      2          6           0        5.479400   -0.699500    0.381300
      3          6           0        5.185800   -2.180100    0.153900
      4          6           0        3.836600   -2.478700   -0.545600
      5          6           0        3.740700   -1.947200   -1.990200
      6          6           0        2.411400   -2.314800   -2.672400
      7          6           0        2.319400   -1.788300   -4.117200
      8          6           0        0.961900   -2.052000   -4.803200
      9          6           0        0.564400   -3.535500   -4.959700
     10          6           0        1.540200   -4.364800   -5.815200
     11          6           0        1.060200   -5.807300   -6.028000
     12          8           0        6.435200   -0.109900   -0.100600
     13          1           0        4.871800    0.799000    1.251900
     14          1           0        5.216000   -2.661700    1.130700
     15          1           0        6.009800   -2.607500   -0.417700
     16          1           0        3.686900   -3.560000   -0.558400
     17          1           0        3.012700   -2.080600    0.051400
     18          1           0        3.857800   -0.862000   -1.993500
     19          1           0        4.571700   -2.342100   -2.577700
     20          1           0        2.296500   -3.399700   -2.670000
     21          1           0        1.579800   -1.917600   -2.087500
     22          1           0        2.497500   -0.711400   -4.113700
     23          1           0        3.126500   -2.212000   -4.716600
     24          1           0        0.969900   -1.583600   -5.789000
     25          1           0        0.178800   -1.535400   -4.245600
     26          1           0        0.452300   -3.995600   -3.977100
     27          1           0       -0.427400   -3.577900   -5.413300
     28          1           0        1.678600   -3.884500   -6.785300
     29          1           0        2.523200   -4.386600   -5.342800
     30          1           0        0.948400   -6.332400   -5.078600
     31          1           0        0.097700   -5.834600   -6.540300
     32          1           0        1.771300   -6.370100   -6.633700
 ---------------------------------------------------------------------
                    Distance matrix (angstroms):
                    1          2          3          4          5
     1  O    0.000000
     2  C    1.350622   0.000000
     3  C    2.395760   1.526463   0.000000
     4  C    3.030269   2.592969   1.548807   0.000000
     5  C    3.769417   3.194346   2.596097   1.542258   0.000000
     6  C    4.948768   4.620271   3.962753   2.565412   1.538689
     7  C    6.009150   5.604247   5.158687   3.941431   2.563098
     8  C    7.265656   7.008288   6.513876   5.154913   3.955462
     9  C    8.104685   7.792715   7.024482   5.595391   4.629202
    10  C    8.742966   8.206603   7.327583   6.049753   5.031661
    11  C    9.847284   9.311180   8.270009   6.988897   6.195908
    12  O    2.265456   1.222051   2.431357   3.544286   3.769163
    13  H    0.957456   1.836471   3.190492   3.878913   4.396841
    14  H    2.631966   2.116887   1.089490   2.178581   3.525200
    15  H    3.300266   2.135460   1.090125   2.180767   2.838585
    16  H    3.970328   3.504077   2.158286   1.091688   2.157329
    17  H    2.762505   2.846205   2.177790   1.092568   2.171615
    18  H    3.352169   2.880220   2.848210   2.170388   1.091505
    19  H    4.382295   3.503960   2.804461   2.165286   1.091633
    20  H    5.562746   5.170335   4.220177   2.780868   2.158147
    21  H    4.796596   4.773429   4.253941   2.790239   2.163292
    22  H    5.731048   5.394154   5.253232   4.200937   2.753543
    23  H    6.437926   5.814841   5.288053   4.239412   2.807244
    24  H    7.995390   7.693492   7.310792   6.042550   4.715975
    25  H    7.137674   7.085428   6.696364   5.287657   4.235982
    26  H    7.670439   7.425070   6.539665   5.052689   4.353997
    27  H    8.983667   8.760871   8.028423   6.563874   5.634701
    28  H    9.289808   8.714956   7.959769   6.750340   5.567618
    29  H    8.076242   7.422880   6.493981   5.327122   4.321216
    30  H    9.550736   9.059251   7.910513   6.613682   6.046911
    31  H   10.613001  10.160733   9.168230   7.821628   7.006193
    32  H   10.407684   9.752740   8.676775   7.514880   6.708403
                    6          7          8          9         10
     6  C    0.000000
     7  C    1.540491   0.000000
     8  C    2.590448   1.543677   0.000000
     9  C    3.183278   2.615825   1.543785   0.000000
    10  C    3.852101   3.182563   2.589907   1.540066   0.000000
    11  C    5.028255   4.624835   3.951212   2.558937   1.535086
    12  O    5.259915   5.990819   7.472832   8.355350   8.644180
    13  H    5.581169   6.483525   7.751113   8.713527   9.365270
    14  H    4.738110   6.057522   7.326682   7.713228   8.040994
    15  H    4.256504   5.289276   6.709880   7.151456   7.224848
    16  H    2.765216   4.204050   5.264790   5.396485   5.734978
    17  H    2.799196   4.235957   5.270080   5.763855   6.465510
    18  H    2.159538   2.781152   4.206751   5.176140   5.678580
    19  H    2.162547   2.783812   4.250608   4.812129   4.874701
    20  H    1.090970   2.165992   2.854469   2.874254   3.375750
    21  H    1.091528   2.164118   2.788349   3.449372   4.459384
    22  H    2.157696   1.091534   2.151903   3.525356   4.142325
    23  H    2.168107   1.090969   2.172232   2.893978   2.890989
    24  H    3.510808   2.158233   1.091451   2.159186   2.839190
    25  H    2.840233   2.159309   1.091347   2.158478   3.510350
    26  H    2.892301   2.894454   2.172490   1.090762   2.167590
    27  H    4.143276   3.525259   2.151917   1.091429   2.156892
    28  H    4.462835   3.453033   2.792926   2.167039   1.091300
    29  H    3.381699   2.880068   2.859927   2.169801   1.090837
    30  H    4.906249   4.842807   4.289272   2.825640   2.182718
    31  H    5.718641   5.213435   4.251167   2.828775   2.183320
    32  H    5.705005   5.256051   4.759396   3.506257   2.178205
                   11         12         13         14         15
    11  C    0.000000
    12  O    9.822681   0.000000
    13  H   10.543644   2.258224   0.000000
    14  H    8.855081   3.084515   3.479886   0.000000
    15  H    8.137120   2.553336   3.960663   1.740861   0.000000
    16  H    6.470428   4.434628   4.866421   2.449112   2.514541
    17  H    7.393217   3.952249   3.631742   2.521328   3.079007
    18  H    6.968482   3.285075   3.784143   3.852824   3.187635
    19  H    6.020200   3.819866   4.962097   3.777499   2.608480
    20  H    4.312904   5.878217   6.296233   4.849066   4.414638
    21  H    5.561231   5.548915   5.419296   4.912479   4.784255
    22  H    5.630149   5.654401   6.058735   6.220743   5.439840
    23  H    4.349201   6.055888   6.909065   6.225685   5.191376
    24  H    4.231420   8.024911   8.394991   8.189866   7.436385
    25  H    4.712000   7.639085   7.595800   7.452955   7.057108
    26  H    2.803211   8.119175   8.358386   7.110678   6.744031
    27  H    2.749733   9.345966   9.574114   8.689725   8.205805
    28  H    2.157100   9.030950   9.835054   8.756226   7.806174
    29  H    2.151338   7.815022   8.711856   7.220295   6.291120
    30  H    1.090683   9.674966  10.311409   8.381041   7.824106
    31  H    1.090689  10.696066  11.292257   9.752360   9.102381
    32  H    1.090541  10.179561  11.099179   9.268446   8.411938
                   16         17         18         19         20
    16  H    0.000000
    17  H    1.736383   0.000000
    18  H    3.060706   2.526024   0.000000
    19  H    2.518675   3.067740   1.744029   0.000000
    20  H    2.533330   3.107891   3.055361   2.510692   0.000000
    21  H    3.078229   2.579664   2.512451   3.061366   1.746306
    22  H    4.708434   4.414544   2.523558   3.052996   3.058043
    23  H    4.407015   4.771168   3.126112   2.584651   2.507609
    24  H    6.216705   6.207279   4.823535   4.884745   3.845289
    25  H    5.477336   5.176142   4.365829   4.767623   3.231530
    26  H    4.726510   5.143120   5.035032   4.654228   2.337666
    27  H    6.363791   6.628661   6.118340   5.878676   3.870023
    28  H    6.550790   7.195439   6.070071   5.334128   4.189573
    29  H    4.992790   5.886819   5.042001   4.002763   2.858185
    30  H    5.968064   6.975388   6.921541   5.941826   4.027339
    31  H    7.337526   8.126515   7.716119   6.922170   5.073725
    32  H    6.962432   8.039369   7.498273   6.365388   4.980967
                   21         22         23         24         25
    21  H    0.000000
    22  H    2.530332   0.000000
    23  H    3.064493   1.735203   0.000000
    24  H    3.766250   2.429182   2.489147   0.000000
    25  H    2.601206   2.464294   3.060811   1.735006   0.000000
    26  H    3.026537   3.871366   3.298399   3.060823   2.489875
    27  H    4.224499   4.296606   3.870566   2.463905   2.429570
    28  H    5.093897   4.228074   3.028728   2.605573   3.770643
    29  H    4.193202   3.875364   2.342004   3.235528   3.850896
    30  H    5.369898   5.909855   4.674704   4.801691   4.929237
    31  H    6.112850   6.155859   5.061891   4.404110   4.873946
    32  H    6.366268   6.236878   4.775106   4.926088   5.622580
                   26         27         28         29         30
    26  H    0.000000
    27  H    1.735228   0.000000
    28  H    3.066291   2.532118   0.000000
    29  H    2.511303   3.060230   1.745354   0.000000
    30  H    2.630599   3.097115   3.072170   2.517128   0.000000
    31  H    3.174532   2.576539   2.522332   3.068185   1.762970
    32  H    3.799412   3.757664   2.491944   2.483153   1.759807
                   31         32
    31  H    0.000000
    32  H    1.759665   0.000000
 Stoichiometry    C10H20O2
 Framework group  C1[X(C10H20O2)]
 Deg. of freedom    90
 Full point group                 C1      NOp   1
 Largest Abelian subgroup         C1      NOp   1
 Largest concise Abelian subgroup C1      NOp   1
                         Standard orientation:                         
 ---------------------------------------------------------------------
 Center     Atomic      Atomic             Coordinates (Angstroms)
 Number     Number       Type             X           Y           Z
 ---------------------------------------------------------------------
      1          8           0        4.429096   -0.566779   -0.875343
      2          6           0        4.058413    0.128515    0.221626
      3          6           0        3.112274    1.280775   -0.105801
      4          6           0        1.758649    0.857881   -0.728426
      5          6           0        0.866033    0.017379    0.207177
      6          6           0       -0.493385   -0.332276   -0.423130
      7          6           0       -1.386196   -1.166838    0.514691
      8          6           0       -2.719544   -1.621010   -0.116854
      9          6           0       -3.669407   -0.490786   -0.568100
     10          6           0       -4.135009    0.436175    0.570216
     11          6           0       -5.152671    1.484654    0.099528
     12          8           0        4.455389   -0.131564    1.347760
     13          1           0        5.011200   -1.246798   -0.535563
     14          1           0        3.646096    1.944404   -0.785227
     15          1           0        2.945287    1.854742    0.805818
     16          1           0        1.214902    1.759726   -1.016174
     17          1           0        1.932091    0.315851   -1.661070
     18          1           0        1.382345   -0.904405    0.481254
     19          1           0        0.704693    0.561510    1.139676
     20          1           0       -1.009074    0.589899   -0.694927
     21          1           0       -0.333311   -0.879285   -1.354040
     22          1           0       -0.836180   -2.055735    0.829001
     23          1           0       -1.581052   -0.609137    1.431868
     24          1           0       -3.245411   -2.259936    0.594835
     25          1           0       -2.503747   -2.261600   -0.973660
     26          1           0       -3.197326    0.099157   -1.354781
     27          1           0       -4.545171   -0.945653   -1.034310
     28          1           0       -4.575487   -0.158596    1.372190
     29          1           0       -3.277052    0.949080    1.006981
     30          1           0       -4.732297    2.125067   -0.676840
     31          1           0       -6.049927    1.014452   -0.304755
     32          1           0       -5.461396    2.127189    0.924826
 ---------------------------------------------------------------------
 Rotational constants (GHZ):           2.1142005           0.2406794           0.2325559
 Standard basis: 6-31G(d,p) (6D, 7F)
 There are   280 symmetry adapted cartesian basis functions of A   symmetry.
 There are   280 symmetry adapted basis functions of A   symmetry.
   280 basis functions,   476 primitive gaussians,   280 cartesian basis functions
    48 alpha electrons       48 beta electrons
       nuclear repulsion energy       695.3482516328 Hartrees.
 NAtoms=   32 NActive=   32 NUniq=   32 SFac= 1.00D+00 NAtFMM=   60 NAOKFM=F Big=F
 Integral buffers will be    131072 words long.
 Raffenetti 2 integral format.
 Two-electron integral symmetry is turned on.
 Nuclear repulsion after empirical dispersion term =      695.3013539737 Hartrees.
 One-electron integrals computed using PRISM.
 NBasis=   280 RedAO= T EigKep=  2.78D-03  NBF=   280
 NBsUse=   280 1.00D-06 EigRej= -1.00D+00 NBFU=   280
 ExpMin= 1.61D-01 ExpMax= 5.48D+03 ExpMxC= 8.25D+02 IAcc=3 IRadAn=         5 AccDes= 0.00D+00
 Harris functional with IExCor=  402 and IRadAn=       5 diagonalized for initial guess.
 HarFok:  IExCor=  402 AccDes= 0.00D+00 IRadAn=         5 IDoV= 1 UseB2=F ITyADJ=14
 ICtDFT=  3500011 ScaDFX=  1.000000  1.000000  1.000000  1.000000
 FoFCou: FMM=F IPFlag=           0 FMFlag=      100000 FMFlg1=           0
         NFxFlg=           0 DoJE=T BraDBF=F KetDBF=T FulRan=T
         wScrn=  0.000000 ICntrl=       500 IOpCl=  0 I1Cent=   200000004 NGrid=           0
         NMat0=    1 NMatS0=      1 NMatT0=    0 NMatD0=    1 NMtDS0=    0 NMtDT0=    0
 Petite list used in FoFCou.
 Requested convergence on RMS density matrix=1.00D-08 within 128 cycles.
 Requested convergence on MAX density matrix=1.00D-06.
 Requested convergence on             energy=1.00D-06.
 No special actions if energy rises.
 Integral accuracy reduced to 1.0D-05 until final iterations.
 Initial convergence to 1.0D-05 achieved.  Increase integral accuracy.
 SCF Done:  E(RB3LYP) =  -543.665282817     A.U. after   13 cycles
            NFock= 13  Conv=0.83D-08     -V/T= 2.0096

 **********************************************************************

            Population analysis using the SCF Density.

 **********************************************************************

 Orbital symmetries:
       Occupied  (A) (A) (A) (A) (A) (A) (A) (A) (A) (A) (A) (A)
                 (A) (A) (A) (A) (A) (A) (A) (A) (A) (A) (A) (A)
                 (A) (A) (A) (A) (A) (A) (A) (A) (A) (A) (A) (A)
                 (A) (A) (A) (A) (A) (A) (A) (A) (A) (A) (A) (A)
       Virtual   (A) (A) (A) (A) (A) (A) (A) (A) (A) (A) (A) (A)
                 (A) (A) (A) (A) (A) (A) (A) (A) (A) (A) (A) (A)
                 (A) (A) (A) (A) (A) (A) (A) (A) (A) (A) (A) (A)
                 (A) (A) (A) (A) (A) (A) (A) (A) (A) (A) (A) (A)
                 (A) (A) (A) (A) (A) (A) (A) (A) (A) (A) (A) (A)
                 (A) (A) (A) (A) (A) (A) (A) (A) (A) (A) (A) (A)
                 (A) (A) (A) (A) (A) (A) (A) (A) (A) (A) (A) (A)
                 (A) (A) (A) (A) (A) (A) (A) (A) (A) (A) (A) (A)
                 (A) (A) (A) (A) (A) (A) (A) (A) (A) (A) (A) (A)
                 (A) (A) (A) (A) (A) (A) (A) (A) (A) (A) (A) (A)
                 (A) (A) (A) (A) (A) (A) (A) (A) (A) (A) (A) (A)
                 (A) (A) (A) (A) (A) (A) (A) (A) (A) (A) (A) (A)
                 (A) (A) (A) (A) (A) (A) (A) (A) (A) (A) (A) (A)
                 (A) (A) (A) (A) (A) (A) (A) (A) (A) (A) (A) (A)
                 (A) (A) (A) (A) (A) (A) (A) (A) (A) (A) (A) (A)
                 (A) (A) (A) (A) (A) (A) (A) (A) (A) (A) (A) (A)
                 (A) (A) (A) (A) (A) (A) (A) (A) (A) (A) (A) (A)
                 (A) (A) (A) (A) (A) (A) (A) (A) (A) (A) (A) (A)
                 (A) (A) (A) (A) (A) (A) (A) (A) (A) (A) (A) (A)
                 (A) (A) (A) (A)
 The electronic state is 1-A.
 Alpha  occ. eigenvalues --  -19.19896 -19.13593 -10.31970 -10.19903 -10.19131
 Alpha  occ. eigenvalues --  -10.18085 -10.17797 -10.17644 -10.17572 -10.17541
 Alpha  occ. eigenvalues --  -10.17439 -10.17011  -1.10722  -1.01001  -0.81295
 Alpha  occ. eigenvalues --   -0.79575  -0.76624  -0.73013  -0.68535  -0.64422
 Alpha  occ. eigenvalues --   -0.61193  -0.59411  -0.58325  -0.55272  -0.48615
 Alpha  occ. eigenvalues --   -0.48311  -0.47191  -0.46193  -0.45508  -0.43942
 Alpha  occ. eigenvalues --   -0.42558  -0.41936  -0.41048  -0.39904  -0.39155
 Alpha  occ. eigenvalues --   -0.37849  -0.37524  -0.35807  -0.35347  -0.34555
 Alpha  occ. eigenvalues --   -0.33896  -0.32973  -0.32498  -0.31640  -0.31136
 Alpha  occ. eigenvalues --   -0.30794  -0.30306  -0.26818
 Alpha virt. eigenvalues --    0.00821   0.07554   0.08194   0.10680   0.11103
 Alpha virt. eigenvalues --    0.11835   0.12669   0.12869   0.14331   0.14964
 Alpha virt. eigenvalues --    0.16452   0.16988   0.17377   0.17897   0.18348
 Alpha virt. eigenvalues --    0.18887   0.18923   0.19203   0.20337   0.20802
 Alpha virt. eigenvalues --    0.21059   0.21939   0.23087   0.23874   0.24825
 Alpha virt. eigenvalues --    0.25654   0.25784   0.27515   0.28580   0.29798
 Alpha virt. eigenvalues --    0.31577   0.35385   0.48632   0.49370   0.50437
 Alpha virt. eigenvalues --    0.51048   0.52506   0.53256   0.54590   0.55191
 Alpha virt. eigenvalues --    0.55960   0.57218   0.58969   0.59931   0.61846
 Alpha virt. eigenvalues --    0.64280   0.64842   0.65808   0.66399   0.67162
 Alpha virt. eigenvalues --    0.68101   0.69429   0.70951   0.71464   0.72858
 Alpha virt. eigenvalues --    0.75765   0.76806   0.79400   0.80472   0.80745
 Alpha virt. eigenvalues --    0.82921   0.83849   0.85280   0.85903   0.86824
 Alpha virt. eigenvalues --    0.87040   0.88653   0.89253   0.89994   0.90293
 Alpha virt. eigenvalues --    0.90734   0.91284   0.92018   0.93366   0.93705
 Alpha virt. eigenvalues --    0.94110   0.94867   0.95091   0.96489   0.97115
 Alpha virt. eigenvalues --    0.98244   0.98690   1.00400   1.02894   1.04012
 Alpha virt. eigenvalues --    1.06656   1.06854   1.10404   1.12808   1.15025
 Alpha virt. eigenvalues --    1.18606   1.27096   1.29912   1.33521   1.36844
 Alpha virt. eigenvalues --    1.37705   1.39733   1.40403   1.42630   1.45266
 Alpha virt. eigenvalues --    1.47925   1.49533   1.52712   1.55657   1.57789
 Alpha virt. eigenvalues --    1.61184   1.62945   1.64027   1.66094   1.67515
 Alpha virt. eigenvalues --    1.68461   1.69049   1.71042   1.72043   1.75247
 Alpha virt. eigenvalues --    1.75668   1.77931   1.80578   1.81430   1.82097
 Alpha virt. eigenvalues --    1.82964   1.84833   1.86115   1.87683   1.89379
 Alpha virt. eigenvalues --    1.89459   1.91347   1.92521   1.95060   1.97873
 Alpha virt. eigenvalues --    1.98825   2.00850   2.04895   2.05639   2.07756
 Alpha virt. eigenvalues --    2.09336   2.10445   2.11877   2.12267   2.13432
 Alpha virt. eigenvalues --    2.14963   2.16196   2.18056   2.18910   2.19450
 Alpha virt. eigenvalues --    2.21878   2.23835   2.24322   2.26073   2.27275
 Alpha virt. eigenvalues --    2.28685   2.28863   2.30206   2.30736   2.31059
 Alpha virt. eigenvalues --    2.32513   2.34025   2.36728   2.40903   2.42327
 Alpha virt. eigenvalues --    2.43331   2.45112   2.45971   2.46991   2.48765
 Alpha virt. eigenvalues --    2.52787   2.53781   2.55258   2.56480   2.57364
 Alpha virt. eigenvalues --    2.59410   2.61284   2.63534   2.64053   2.65837
 Alpha virt. eigenvalues --    2.68256   2.71296   2.73202   2.74557   2.75140
 Alpha virt. eigenvalues --    2.76016   2.77765   2.80710   2.81718   2.83537
 Alpha virt. eigenvalues --    2.84468   2.85445   2.88339   2.88424   2.89673
 Alpha virt. eigenvalues --    2.90316   2.91147   2.91897   2.92243   2.92806
 Alpha virt. eigenvalues --    2.94370   2.95302   2.96303   3.02399   3.11325
 Alpha virt. eigenvalues --    3.19634   3.24482   3.28888   3.30525   3.30710
 Alpha virt. eigenvalues --    3.33076   3.33448   3.35510   3.36457   3.38384
 Alpha virt. eigenvalues --    3.41433   3.43665   3.47235   3.48660   3.49321
 Alpha virt. eigenvalues --    3.52971   3.55310   3.58359   3.59290   3.60200
 Alpha virt. eigenvalues --    3.91731   4.14519   4.24594   4.28221   4.33180
 Alpha virt. eigenvalues --    4.43428   4.50960   4.57677   4.62914   4.66621
 Alpha virt. eigenvalues --    4.70800   4.76768
          Condensed to atoms (all electrons):
               1          2          3          4          5          6
     1  O    8.122497   0.245165  -0.099701   0.003780  -0.000790  -0.000005
     2  C    0.245165   4.381220   0.348321  -0.029816  -0.001022   0.000109
     3  C   -0.099701   0.348321   5.100936   0.333442  -0.042773   0.003544
     4  C    0.003780  -0.029816   0.333442   4.923697   0.368311  -0.033795
     5  C   -0.000790  -0.001022  -0.042773   0.368311   4.910431   0.374055
     6  C   -0.000005   0.000109   0.003544  -0.033795   0.374055   4.896340
     7  C    0.000000  -0.000001  -0.000121   0.003284  -0.034220   0.375266
     8  C   -0.000000   0.000000   0.000001  -0.000118   0.003511  -0.038595
     9  C    0.000000  -0.000000   0.000000   0.000002   0.000158  -0.004369
    10  C   -0.000000   0.000000   0.000000   0.000000  -0.000003  -0.001551
    11  C    0.000000  -0.000000   0.000000   0.000000   0.000000   0.000002
    12  O   -0.083506   0.570760  -0.072689  -0.000139   0.000949   0.000006
    13  H    0.268483  -0.009385   0.010833  -0.000294  -0.000068   0.000000
    14  H    0.001867  -0.025899   0.354484  -0.022448   0.004484  -0.000110
    15  H    0.003369  -0.032683   0.376768  -0.031656  -0.005834   0.000069
    16  H    0.000011   0.003663  -0.030495   0.379423  -0.041836  -0.004089
    17  H    0.005063  -0.008449  -0.035092   0.383688  -0.038514  -0.003549
    18  H    0.000301   0.005844  -0.004939  -0.038232   0.383144  -0.037749
    19  H    0.000020  -0.000860  -0.002600  -0.040065   0.383402  -0.038237
    20  H   -0.000000   0.000001   0.000020  -0.003992  -0.039287   0.383736
    21  H   -0.000002  -0.000011   0.000080  -0.003538  -0.039523   0.383120
    22  H   -0.000000  -0.000003   0.000003   0.000072  -0.004666  -0.040877
    23  H   -0.000000   0.000000   0.000002   0.000035  -0.003646  -0.039950
    24  H    0.000000   0.000000  -0.000000   0.000001  -0.000133   0.004642
    25  H    0.000000   0.000000   0.000000  -0.000001   0.000039  -0.007191
    26  H   -0.000000   0.000000  -0.000000   0.000007  -0.000102   0.003608
    27  H   -0.000000   0.000000   0.000000  -0.000000  -0.000002   0.000069
    28  H   -0.000000  -0.000000  -0.000000   0.000000   0.000000   0.000098
    29  H    0.000000   0.000000  -0.000000  -0.000001  -0.000056   0.000290
    30  H   -0.000000   0.000000   0.000000   0.000000   0.000000   0.000004
    31  H    0.000000  -0.000000  -0.000000  -0.000000  -0.000000  -0.000001
    32  H   -0.000000   0.000000  -0.000000  -0.000000  -0.000000  -0.000000
               7          8          9         10         11         12
     1  O    0.000000  -0.000000   0.000000  -0.000000   0.000000  -0.083506
     2  C   -0.000001   0.000000  -0.000000   0.000000  -0.000000   0.570760
     3  C   -0.000121   0.000001   0.000000   0.000000   0.000000  -0.072689
     4  C    0.003284  -0.000118   0.000002   0.000000   0.000000  -0.000139
     5  C   -0.034220   0.003511   0.000158  -0.000003   0.000000   0.000949
     6  C    0.375266  -0.038595  -0.004369  -0.001551   0.000002   0.000006
     7  C    4.910838   0.367213  -0.042509  -0.004425   0.000142   0.000000
     8  C    0.367213   4.919172   0.371440  -0.040086   0.003959   0.000000
     9  C   -0.042509   0.371440   4.896742   0.386310  -0.041886   0.000000
    10  C   -0.004425  -0.040086   0.386310   4.865763   0.370776  -0.000000
    11  C    0.000142   0.003959  -0.041886   0.370776   4.916821  -0.000000
    12  O    0.000000   0.000000   0.000000  -0.000000  -0.000000   8.039112
    13  H   -0.000000   0.000000  -0.000000   0.000000  -0.000000   0.011407
    14  H    0.000001  -0.000000   0.000000  -0.000000  -0.000000   0.002073
    15  H   -0.000002   0.000000   0.000000  -0.000000   0.000000   0.001622
    16  H    0.000021   0.000002  -0.000003   0.000000  -0.000000  -0.000084
    17  H    0.000035   0.000002   0.000000  -0.000000   0.000000   0.000006
    18  H   -0.003717   0.000007   0.000003  -0.000001  -0.000000  -0.000024
    19  H   -0.003470   0.000081  -0.000016   0.000003   0.000000   0.000026
    20  H   -0.037957  -0.004528   0.002489   0.000392  -0.000061  -0.000000
    21  H   -0.040377  -0.002591  -0.001006   0.000097   0.000000   0.000000
    22  H    0.379333  -0.032080   0.004893   0.000075  -0.000002  -0.000000
    23  H    0.382691  -0.037338  -0.007499   0.003736  -0.000128  -0.000000
    24  H   -0.033078   0.375816  -0.038459  -0.007098   0.000040   0.000000
    25  H   -0.038533   0.375514  -0.033618   0.004822  -0.000161  -0.000000
    26  H   -0.007596  -0.037430   0.382224  -0.041083  -0.002889   0.000000
    27  H    0.004937  -0.031986   0.379216  -0.041667  -0.004074  -0.000000
    28  H   -0.001014  -0.002701  -0.040878   0.386937  -0.038517   0.000000
    29  H    0.002569  -0.004672  -0.038573   0.387254  -0.038125  -0.000000
    30  H   -0.000017   0.000081  -0.004752  -0.034603   0.387010  -0.000000
    31  H    0.000004   0.000009  -0.004981  -0.034668   0.387252  -0.000000
    32  H    0.000003  -0.000163   0.004188  -0.027866   0.379376  -0.000000
              13         14         15         16         17         18
     1  O    0.268483   0.001867   0.003369   0.000011   0.005063   0.000301
     2  C   -0.009385  -0.025899  -0.032683   0.003663  -0.008449   0.005844
     3  C    0.010833   0.354484   0.376768  -0.030495  -0.035092  -0.004939
     4  C   -0.000294  -0.022448  -0.031656   0.379423   0.383688  -0.038232
     5  C   -0.000068   0.004484  -0.005834  -0.041836  -0.038514   0.383144
     6  C    0.000000  -0.000110   0.000069  -0.004089  -0.003549  -0.037749
     7  C   -0.000000   0.000001  -0.000002   0.000021   0.000035  -0.003717
     8  C    0.000000  -0.000000   0.000000   0.000002   0.000002   0.000007
     9  C   -0.000000   0.000000   0.000000  -0.000003   0.000000   0.000003
    10  C    0.000000  -0.000000  -0.000000   0.000000  -0.000000  -0.000001
    11  C   -0.000000  -0.000000   0.000000  -0.000000   0.000000  -0.000000
    12  O    0.011407   0.002073   0.001622  -0.000084   0.000006  -0.000024
    13  H    0.401138  -0.000486  -0.000324   0.000016  -0.000193   0.000057
    14  H   -0.000486   0.602587  -0.032574  -0.005632  -0.002809  -0.000006
    15  H   -0.000324  -0.032574   0.587522  -0.003715   0.005166  -0.000285
    16  H    0.000016  -0.005632  -0.003715   0.635782  -0.037681   0.006043
    17  H   -0.000193  -0.002809   0.005166  -0.037681   0.615224  -0.005374
    18  H    0.000057  -0.000006  -0.000285   0.006043  -0.005374   0.630021
    19  H    0.000000  -0.000006   0.004591  -0.005581   0.005784  -0.040256
    20  H    0.000000  -0.000001   0.000001   0.005520  -0.000543   0.005921
    21  H    0.000000   0.000002   0.000006  -0.000565   0.004730  -0.005821
    22  H   -0.000000   0.000000   0.000000   0.000009   0.000002   0.005382
    23  H    0.000000   0.000000  -0.000001   0.000003   0.000005  -0.000551
    24  H   -0.000000   0.000000  -0.000000  -0.000000   0.000000  -0.000005
    25  H   -0.000000   0.000000  -0.000000   0.000000  -0.000001   0.000001
    26  H   -0.000000   0.000000   0.000000  -0.000003   0.000001  -0.000001
    27  H    0.000000  -0.000000   0.000000   0.000000  -0.000000   0.000000
    28  H   -0.000000   0.000000   0.000000  -0.000000   0.000000  -0.000000
    29  H   -0.000000  -0.000000   0.000000  -0.000000   0.000000   0.000001
    30  H    0.000000  -0.000000   0.000000   0.000000  -0.000000   0.000000
    31  H    0.000000  -0.000000   0.000000  -0.000000   0.000000  -0.000000
    32  H    0.000000  -0.000000  -0.000000   0.000000  -0.000000  -0.000000
              19         20         21         22         23         24
     1  O    0.000020  -0.000000  -0.000002  -0.000000  -0.000000   0.000000
     2  C   -0.000860   0.000001  -0.000011  -0.000003   0.000000   0.000000
     3  C   -0.002600   0.000020   0.000080   0.000003   0.000002  -0.000000
     4  C   -0.040065  -0.003992  -0.003538   0.000072   0.000035   0.000001
     5  C    0.383402  -0.039287  -0.039523  -0.004666  -0.003646  -0.000133
     6  C   -0.038237   0.383736   0.383120  -0.040877  -0.039950   0.004642
     7  C   -0.003470  -0.037957  -0.040377   0.379333   0.382691  -0.033078
     8  C    0.000081  -0.004528  -0.002591  -0.032080  -0.037338   0.375816
     9  C   -0.000016   0.002489  -0.001006   0.004893  -0.007499  -0.038459
    10  C    0.000003   0.000392   0.000097   0.000075   0.003736  -0.007098
    11  C    0.000000  -0.000061   0.000000  -0.000002  -0.000128   0.000040
    12  O    0.000026  -0.000000   0.000000  -0.000000  -0.000000   0.000000
    13  H    0.000000   0.000000   0.000000  -0.000000   0.000000  -0.000000
    14  H   -0.000006  -0.000001   0.000002   0.000000   0.000000   0.000000
    15  H    0.004591   0.000001   0.000006   0.000000  -0.000001  -0.000000
    16  H   -0.005581   0.005520  -0.000565   0.000009   0.000003  -0.000000
    17  H    0.005784  -0.000543   0.004730   0.000002   0.000005   0.000000
    18  H   -0.040256   0.005921  -0.005821   0.005382  -0.000551  -0.000005
    19  H    0.636387  -0.005990   0.006005  -0.000576   0.004691   0.000003
    20  H   -0.005990   0.640552  -0.042242   0.006125  -0.006514  -0.000038
    21  H    0.006005  -0.042242   0.644278  -0.005385   0.006114   0.000018
    22  H   -0.000576   0.006125  -0.005385   0.647085  -0.040307  -0.003740
    23  H    0.004691  -0.006514   0.006114  -0.040307   0.640162  -0.003623
    24  H    0.000003  -0.000038   0.000018  -0.003740  -0.003623   0.650645
    25  H    0.000007  -0.000281   0.005220  -0.004380   0.006092  -0.039357
    26  H    0.000007   0.001609   0.000503  -0.000009   0.000063   0.006121
    27  H   -0.000000  -0.000057  -0.000037  -0.000155  -0.000006  -0.004404
    28  H   -0.000001  -0.000022  -0.000001  -0.000037   0.000485   0.005246
    29  H    0.000018   0.000916  -0.000019  -0.000052   0.001637  -0.000296
    30  H   -0.000000   0.000012  -0.000000  -0.000000   0.000006   0.000008
    31  H    0.000000   0.000002  -0.000000   0.000000   0.000000  -0.000001
    32  H   -0.000000  -0.000001   0.000000  -0.000000   0.000008  -0.000000
              25         26         27         28         29         30
     1  O    0.000000  -0.000000  -0.000000  -0.000000   0.000000  -0.000000
     2  C    0.000000   0.000000   0.000000  -0.000000   0.000000   0.000000
     3  C    0.000000  -0.000000   0.000000  -0.000000  -0.000000   0.000000
     4  C   -0.000001   0.000007  -0.000000   0.000000  -0.000001   0.000000
     5  C    0.000039  -0.000102  -0.000002   0.000000  -0.000056   0.000000
     6  C   -0.007191   0.003608   0.000069   0.000098   0.000290   0.000004
     7  C   -0.038533  -0.007596   0.004937  -0.001014   0.002569  -0.000017
     8  C    0.375514  -0.037430  -0.031986  -0.002701  -0.004672   0.000081
     9  C   -0.033618   0.382224   0.379216  -0.040878  -0.038573  -0.004752
    10  C    0.004822  -0.041083  -0.041667   0.386937   0.387254  -0.034603
    11  C   -0.000161  -0.002889  -0.004074  -0.038517  -0.038125   0.387010
    12  O   -0.000000   0.000000  -0.000000   0.000000  -0.000000  -0.000000
    13  H   -0.000000  -0.000000   0.000000  -0.000000  -0.000000   0.000000
    14  H    0.000000   0.000000  -0.000000   0.000000  -0.000000  -0.000000
    15  H   -0.000000   0.000000   0.000000   0.000000   0.000000   0.000000
    16  H    0.000000  -0.000003   0.000000  -0.000000  -0.000000   0.000000
    17  H   -0.000001   0.000001  -0.000000   0.000000   0.000000  -0.000000
    18  H    0.000001  -0.000001   0.000000  -0.000000   0.000001   0.000000
    19  H    0.000007   0.000007  -0.000000  -0.000001   0.000018  -0.000000
    20  H   -0.000281   0.001609  -0.000057  -0.000022   0.000916   0.000012
    21  H    0.005220   0.000503  -0.000037  -0.000001  -0.000019  -0.000000
    22  H   -0.004380  -0.000009  -0.000155  -0.000037  -0.000052  -0.000000
    23  H    0.006092   0.000063  -0.000006   0.000485   0.001637   0.000006
    24  H   -0.039357   0.006121  -0.004404   0.005246  -0.000296   0.000008
    25  H    0.652871  -0.003666  -0.003797   0.000016  -0.000043   0.000002
    26  H   -0.003666   0.645316  -0.040916   0.006186  -0.006619   0.004657
    27  H   -0.003797  -0.040916   0.650257  -0.005469   0.006176  -0.000496
    28  H    0.000016   0.006186  -0.005469   0.641369  -0.041655   0.005497
    29  H   -0.000043  -0.006619   0.006176  -0.041655   0.638275  -0.005105
    30  H    0.000002   0.004657  -0.000496   0.005497  -0.005105   0.612636
    31  H   -0.000005  -0.000490   0.005206  -0.005027   0.005450  -0.033677
    32  H    0.000003  -0.000047   0.000006  -0.003097  -0.003068  -0.032664
              31         32
     1  O    0.000000  -0.000000
     2  C   -0.000000   0.000000
     3  C   -0.000000  -0.000000
     4  C   -0.000000  -0.000000
     5  C   -0.000000  -0.000000
     6  C   -0.000001  -0.000000
     7  C    0.000004   0.000003
     8  C    0.000009  -0.000163
     9  C   -0.004981   0.004188
    10  C   -0.034668  -0.027866
    11  C    0.387252   0.379376
    12  O   -0.000000  -0.000000
    13  H    0.000000   0.000000
    14  H   -0.000000  -0.000000
    15  H    0.000000  -0.000000
    16  H   -0.000000   0.000000
    17  H    0.000000  -0.000000
    18  H   -0.000000  -0.000000
    19  H    0.000000  -0.000000
    20  H    0.000002  -0.000001
    21  H   -0.000000   0.000000
    22  H    0.000000  -0.000000
    23  H    0.000000   0.000008
    24  H   -0.000001  -0.000000
    25  H   -0.000005   0.000003
    26  H   -0.000490  -0.000047
    27  H    0.005206   0.000006
    28  H   -0.005027  -0.003097
    29  H    0.005450  -0.003068
    30  H   -0.033677  -0.032664
    31  H    0.611000  -0.032624
    32  H   -0.032624   0.616940
 Mulliken charges:
               1
     1  O   -0.466553
     2  C    0.553044
     3  C   -0.240023
     4  C   -0.191650
     5  C   -0.176010
     6  C   -0.174892
     7  C   -0.179305
     8  C   -0.184519
     9  C   -0.169116
    10  C   -0.173117
    11  C   -0.319538
    12  O   -0.469521
    13  H    0.318814
    14  H    0.124474
    15  H    0.127961
    16  H    0.099189
    17  H    0.112497
    18  H    0.100234
    19  H    0.096632
    20  H    0.094216
    21  H    0.090946
    22  H    0.089287
    23  H    0.093833
    24  H    0.087690
    25  H    0.086445
    26  H    0.090548
    27  H    0.087198
    28  H    0.092584
    29  H    0.095697
    30  H    0.101400
    31  H    0.102551
    32  H    0.099004
 Sum of Mulliken charges =  -0.00000
 Mulliken charges with hydrogens summed into heavy atoms:
               1
     1  O   -0.147739
     2  C    0.553044
     3  C    0.012411
     4  C    0.020036
     5  C    0.020855
     6  C    0.010270
     7  C    0.003815
     8  C   -0.010384
     9  C    0.008630
    10  C    0.015164
    11  C   -0.016582
    12  O   -0.469521
 Electronic spatial extent (au):  <R**2>=           4718.8501
 Charge=              0.0000 electrons
 Dipole moment (field-independent basis, Debye):
    X=             -0.7437    Y=              0.0696    Z=             -1.5457  Tot=              1.7167
 Quadrupole moment (field-independent basis, Debye-Ang):
   XX=            -78.8188   YY=            -72.5533   ZZ=            -81.1434
   XY=             -1.3451   XZ=             -8.1119   YZ=              0.5200
 Traceless Quadrupole moment (field-independent basis, Debye-Ang):
   XX=             -1.3137   YY=              4.9519   ZZ=             -3.6382
   XY=             -1.3451   XZ=             -8.1119   YZ=              0.5200
 Octapole moment (field-independent basis, Debye-Ang**2):
  XXX=             41.4045  YYY=             -4.4964  ZZZ=             -2.8010  XYY=             30.3809
  XXY=            -20.9490  XXZ=            -36.2218  XZZ=             -9.2263  YZZ=              0.7025
  YYZ=             -0.6985  XYZ=              2.3113
 Hexadecapole moment (field-independent basis, Debye-Ang**3):
 XXXX=          -5207.3027 YYYY=           -542.5990 ZZZZ=           -316.3429 XXXY=           -104.9637
 XXXZ=           -190.0757 YYYX=            -24.3581 YYYZ=              2.8053 ZZZX=            -16.1008
 ZZZY=              3.8271 XXYY=           -902.3329 XXZZ=          -1031.1576 YYZZ=           -138.7312
 XXYZ=             19.5986 YYXZ=             -7.3929 ZZXY=              0.0748
 N-N= 6.953013539737D+02 E-N=-2.653827043571D+03  KE= 5.384852152041D+02
 Calling FoFJK, ICntrl=      2127 FMM=F ISym2X=0 I1Cent= 0 IOpClX= 0 NMat=1 NMatS=1 NMatT=0.
 ***** Axes restored to original set *****
 -------------------------------------------------------------------
 Center     Atomic                   Forces (Hartrees/Bohr)
 Number     Number              X              Y              Z
 -------------------------------------------------------------------
      1        8          -0.002355439   -0.010839036   -0.002764739
      2        6           0.015564520   -0.010927349   -0.015574078
      3        6          -0.004035470    0.003721834   -0.001529935
      4        6           0.002414969    0.004308726   -0.002389672
      5        6          -0.005013971   -0.003685769    0.005906440
      6        6           0.007065506    0.003800816   -0.005430892
      7        6          -0.006749090   -0.002996261    0.003164396
      8        6           0.003725471   -0.005049490    0.002284055
      9        6           0.006847300    0.004802647   -0.004023445
     10        6          -0.007094213   -0.003339834    0.004992319
     11        6           0.002986284    0.004216035   -0.000424982
     12        8          -0.015400109   -0.002845197    0.009032874
     13        1           0.002144574    0.016001941    0.003175600
     14        1          -0.003256212   -0.001888748    0.004761942
     15        1           0.001811876    0.003409957   -0.002700290
     16        1           0.001646186   -0.003690560    0.000017125
     17        1          -0.000699000    0.003003893    0.001470605
     18        1           0.000574633    0.004237329    0.000452352
     19        1           0.003194957   -0.001743653   -0.001947507
     20        1          -0.000315749   -0.004251625    0.000328648
     21        1          -0.003431794    0.001905324    0.002221143
     22        1           0.000190072    0.004093856    0.000692599
     23        1           0.002979413   -0.002941066   -0.001422013
     24        1           0.001159336    0.000963115   -0.004250622
     25        1          -0.002846217    0.001357822    0.003419727
     26        1           0.001011131   -0.002438568    0.003924404
     27        1          -0.003515286   -0.000112787   -0.002505941
     28        1           0.000026913    0.002886238   -0.003307363
     29        1           0.003434947    0.000598128    0.001959662
     30        1          -0.000731524   -0.001097134    0.002986962
     31        1          -0.003066854    0.000334832   -0.000976434
     32        1           0.001732841   -0.001795415   -0.001542943
 -------------------------------------------------------------------
 Cartesian Forces:  Max     0.016001941 RMS     0.004805742

 GradGradGradGradGradGradGradGradGradGradGradGradGradGradGradGradGradGrad
 Berny optimization.
 FormGI is forming the generalized inverse of G from B-inverse, IUseBI=4.
 Internal  Forces:  Max     0.016979578 RMS     0.002899737
 Search for a local minimum.
 Step number   1 out of a maximum of  179
 All quantities printed in internal units (Hartrees-Bohrs-Radians)
 Mixed Optimization -- RFO/linear search
 Second derivative matrix not updated -- first step.
 ITU=  0
     Eigenvalues ---    0.00230   0.00230   0.00230   0.00230   0.00230
     Eigenvalues ---    0.00236   0.00254   0.00302   0.00416   0.00893
     Eigenvalues ---    0.02345   0.03101   0.03227   0.03227   0.03232
     Eigenvalues ---    0.03403   0.03418   0.03442   0.03705   0.04645
     Eigenvalues ---    0.04679   0.04679   0.04682   0.04728   0.04736
     Eigenvalues ---    0.04752   0.05163   0.05409   0.05467   0.08294
     Eigenvalues ---    0.08302   0.08313   0.08580   0.08582   0.08583
     Eigenvalues ---    0.08840   0.09759   0.12189   0.12190   0.12203
     Eigenvalues ---    0.12401   0.12402   0.12403   0.12578   0.13067
     Eigenvalues ---    0.16000   0.16000   0.16000   0.16000   0.21888
     Eigenvalues ---    0.21892   0.21895   0.21895   0.21896   0.21896
     Eigenvalues ---    0.21929   0.21958   0.24998   0.25000   0.27753
     Eigenvalues ---    0.28186   0.28196   0.28320   0.28475   0.28513
     Eigenvalues ---    0.28635   0.28959   0.29753   0.34518   0.34618
     Eigenvalues ---    0.34625   0.34636   0.34637   0.34639   0.34646
     Eigenvalues ---    0.34648   0.34657   0.34663   0.34701   0.34701
     Eigenvalues ---    0.34716   0.34725   0.34733   0.34734   0.34750
     Eigenvalues ---    0.34798   0.34872   0.54889   0.56024   0.94480
 RFO step:  Lambda=-4.82704118D-03 EMin= 2.30000000D-03
 Linear search not attempted -- first point.
 Iteration  1 RMS(Cart)=  0.07452177 RMS(Int)=  0.00096690
 Iteration  2 RMS(Cart)=  0.00199095 RMS(Int)=  0.00017116
 Iteration  3 RMS(Cart)=  0.00000222 RMS(Int)=  0.00017115
 Iteration  4 RMS(Cart)=  0.00000000 RMS(Int)=  0.00017115
 Variable       Old X    -DE/DX   Delta X   Delta X   Delta X     New X
                                 (Linear)    (Quad)   (Total)
    R1        2.55231   0.00264   0.00000   0.00478   0.00478   2.55708
    R2        1.80933   0.01604   0.00000   0.02839   0.02839   1.83772
    R3        2.88460  -0.00927   0.00000  -0.03067  -0.03067   2.85393
    R4        2.30934  -0.01698   0.00000  -0.01788  -0.01788   2.29146
    R5        2.92682  -0.00799   0.00000  -0.02830  -0.02830   2.89852
    R6        2.05884   0.00501   0.00000   0.01418   0.01418   2.07302
    R7        2.06004   0.00145   0.00000   0.00411   0.00411   2.06415
    R8        2.91444  -0.00631   0.00000  -0.02192  -0.02192   2.89252
    R9        2.06299   0.00343   0.00000   0.00977   0.00977   2.07276
   R10        2.06465   0.00242   0.00000   0.00693   0.00693   2.07158
   R11        2.90770  -0.00409   0.00000  -0.01406  -0.01406   2.89364
   R12        2.06264   0.00427   0.00000   0.01217   0.01217   2.07481
   R13        2.06289   0.00411   0.00000   0.01171   0.01171   2.07460
   R14        2.91111  -0.00484   0.00000  -0.01673  -0.01673   2.89438
   R15        2.06163   0.00426   0.00000   0.01211   0.01211   2.07375
   R16        2.06269   0.00450   0.00000   0.01281   0.01281   2.07550
   R17        2.91713  -0.00458   0.00000  -0.01598  -0.01598   2.90115
   R18        2.06270   0.00407   0.00000   0.01160   0.01160   2.07430
   R19        2.06163   0.00413   0.00000   0.01173   0.01173   2.07336
   R20        2.91733  -0.00443   0.00000  -0.01544  -0.01544   2.90189
   R21        2.06254   0.00426   0.00000   0.01213   0.01213   2.07467
   R22        2.06235   0.00443   0.00000   0.01262   0.01262   2.07496
   R23        2.91030  -0.00473   0.00000  -0.01632  -0.01632   2.89398
   R24        2.06124   0.00446   0.00000   0.01267   0.01267   2.07391
   R25        2.06250   0.00424   0.00000   0.01207   0.01207   2.07457
   R26        2.90089  -0.00185   0.00000  -0.00630  -0.00630   2.89460
   R27        2.06226   0.00421   0.00000   0.01199   0.01199   2.07425
   R28        2.06138   0.00393   0.00000   0.01117   0.01117   2.07255
   R29        2.06109   0.00320   0.00000   0.00909   0.00909   2.07019
   R30        2.06110   0.00316   0.00000   0.00896   0.00896   2.07007
   R31        2.06082   0.00291   0.00000   0.00827   0.00827   2.06910
    A1        1.81755   0.00662   0.00000   0.04014   0.04014   1.85769
    A2        1.96545  -0.00178   0.00000  -0.00667  -0.00731   1.95814
    A3        2.15284  -0.00624   0.00000  -0.02419  -0.02480   2.12804
    A4        2.16477   0.00804   0.00000   0.03182   0.03115   2.19592
    A5        2.00626  -0.00537   0.00000  -0.03273  -0.03302   1.97324
    A6        1.86488   0.00348   0.00000   0.01910   0.01899   1.88387
    A7        1.88916  -0.00109   0.00000  -0.02390  -0.02403   1.86513
    A8        1.92181  -0.00103   0.00000  -0.00838  -0.00839   1.91342
    A9        1.92416   0.00323   0.00000   0.01474   0.01407   1.93824
   A10        1.85027   0.00128   0.00000   0.03668   0.03672   1.88699
   A11        1.99409  -0.00344   0.00000  -0.02130  -0.02146   1.97263
   A12        1.89200   0.00011   0.00000  -0.00150  -0.00135   1.89065
   A13        1.91758   0.00040   0.00000  -0.00955  -0.00979   1.90779
   A14        1.89846   0.00193   0.00000   0.01653   0.01650   1.91496
   A15        1.91703   0.00078   0.00000  -0.00294  -0.00332   1.91371
   A16        1.83786   0.00056   0.00000   0.02280   0.02276   1.86062
   A17        1.96782  -0.00037   0.00000  -0.00227  -0.00227   1.96555
   A18        1.91643  -0.00017   0.00000  -0.00291  -0.00290   1.91353
   A19        1.90933  -0.00009   0.00000  -0.00187  -0.00187   1.90746
   A20        1.90590   0.00032   0.00000   0.00249   0.00248   1.90838
   A21        1.90987   0.00028   0.00000   0.00254   0.00253   1.91240
   A22        1.85081   0.00006   0.00000   0.00233   0.00233   1.85313
   A23        1.96683   0.00010   0.00000   0.00028   0.00028   1.96711
   A24        1.90454  -0.00027   0.00000  -0.00121  -0.00121   1.90333
   A25        1.91100   0.00008   0.00000  -0.00050  -0.00050   1.91050
   A26        1.91309   0.00029   0.00000   0.00357   0.00357   1.91666
   A27        1.90996  -0.00028   0.00000  -0.00303  -0.00303   1.90693
   A28        1.85506   0.00007   0.00000   0.00094   0.00094   1.85600
   A29        1.99426  -0.00075   0.00000  -0.00603  -0.00607   1.98819
   A30        1.90122   0.00022   0.00000   0.00274   0.00277   1.90398
   A31        1.91599  -0.00068   0.00000  -0.01168  -0.01172   1.90426
   A32        1.88962   0.00034   0.00000   0.00580   0.00580   1.89542
   A33        1.91779   0.00053   0.00000  -0.00030  -0.00041   1.91738
   A34        1.83819   0.00046   0.00000   0.01125   0.01126   1.84944
   A35        2.02154  -0.00225   0.00000  -0.01396  -0.01401   2.00753
   A36        1.89824   0.00037   0.00000  -0.00124  -0.00128   1.89695
   A37        1.89980   0.00057   0.00000   0.00071   0.00068   1.90047
   A38        1.89940   0.00064   0.00000   0.00109   0.00104   1.90044
   A39        1.89854   0.00049   0.00000   0.00039   0.00035   1.89889
   A40        1.83753   0.00044   0.00000   0.01593   0.01592   1.85345
   A41        1.99393  -0.00015   0.00000  -0.00302  -0.00305   1.99088
   A42        1.91823   0.00040   0.00000  -0.00023  -0.00032   1.91791
   A43        1.88961   0.00018   0.00000   0.00526   0.00526   1.89487
   A44        1.91600  -0.00091   0.00000  -0.01259  -0.01261   1.90339
   A45        1.90074   0.00003   0.00000   0.00168   0.00170   1.90243
   A46        1.83860   0.00053   0.00000   0.01035   0.01036   1.84895
   A47        1.96588   0.00017   0.00000   0.00068   0.00069   1.96657
   A48        1.91470  -0.00092   0.00000  -0.01029  -0.01029   1.90440
   A49        1.91896  -0.00035   0.00000  -0.00350  -0.00351   1.91545
   A50        1.90710   0.00066   0.00000   0.00623   0.00622   1.91332
   A51        1.89972   0.00036   0.00000   0.00613   0.00613   1.90585
   A52        1.85405   0.00010   0.00000   0.00093   0.00087   1.85491
   A53        1.94313  -0.00059   0.00000  -0.00490  -0.00492   1.93820
   A54        1.94397  -0.00066   0.00000  -0.00514  -0.00516   1.93881
   A55        1.93698   0.00085   0.00000   0.00767   0.00768   1.94465
   A56        1.88215   0.00012   0.00000  -0.00392  -0.00397   1.87819
   A57        1.87742   0.00011   0.00000   0.00283   0.00284   1.88026
   A58        1.87720   0.00019   0.00000   0.00369   0.00370   1.88090
    D1        3.14070   0.00052   0.00000   0.03309   0.03217  -3.11032
    D2        0.01497  -0.00048   0.00000  -0.03184  -0.03092  -0.01595
    D3        1.08689  -0.00126   0.00000  -0.05576  -0.05641   1.03048
    D4       -1.05097   0.00099   0.00000  -0.03778  -0.03804  -1.08902
    D5       -3.03688  -0.00168   0.00000  -0.07822  -0.07815  -3.11503
    D6       -2.07069  -0.00040   0.00000   0.00909   0.00901  -2.06169
    D7        2.07462   0.00185   0.00000   0.02707   0.02737   2.10200
    D8        0.08872  -0.00083   0.00000  -0.01337  -0.01273   0.07599
    D9        1.12552  -0.00160   0.00000  -0.04605  -0.04613   1.07938
   D10       -3.03777  -0.00133   0.00000  -0.04012  -0.04021  -3.07798
   D11       -1.03796  -0.00039   0.00000  -0.01892  -0.01913  -1.05709
   D12       -3.05073  -0.00160   0.00000  -0.05043  -0.05033  -3.10105
   D13       -0.93083  -0.00134   0.00000  -0.04449  -0.04441  -0.97524
   D14        1.06898  -0.00040   0.00000  -0.02329  -0.02333   1.04565
   D15       -1.01521   0.00126   0.00000  -0.00189  -0.00175  -1.01697
   D16        1.10468   0.00153   0.00000   0.00405   0.00417   1.10885
   D17        3.10450   0.00247   0.00000   0.02525   0.02524   3.12974
   D18        3.09856   0.00028   0.00000   0.01800   0.01793   3.11649
   D19       -1.05522   0.00032   0.00000   0.01754   0.01747  -1.03775
   D20        0.96917   0.00024   0.00000   0.01763   0.01756   0.98673
   D21        0.98223   0.00104   0.00000   0.02210   0.02217   1.00440
   D22        3.11164   0.00107   0.00000   0.02164   0.02171   3.13335
   D23       -1.14716   0.00099   0.00000   0.02173   0.02180  -1.12536
   D24       -1.02085  -0.00112   0.00000  -0.01267  -0.01267  -1.03352
   D25        1.10855  -0.00109   0.00000  -0.01313  -0.01313   1.09542
   D26        3.13294  -0.00117   0.00000  -0.01304  -0.01304   3.11990
   D27       -3.13744  -0.00018   0.00000  -0.00145  -0.00145  -3.13890
   D28       -1.00801   0.00008   0.00000   0.00242   0.00242  -1.00559
   D29        1.01571   0.00006   0.00000   0.00259   0.00259   1.01830
   D30        1.01041   0.00006   0.00000   0.00202   0.00203   1.01244
   D31        3.13984   0.00032   0.00000   0.00590   0.00590  -3.13744
   D32       -1.11962   0.00030   0.00000   0.00607   0.00607  -1.11355
   D33       -1.00835  -0.00034   0.00000  -0.00357  -0.00358  -1.01193
   D34        1.12107  -0.00009   0.00000   0.00030   0.00030   1.12137
   D35       -3.13839  -0.00011   0.00000   0.00047   0.00047  -3.13792
   D36       -3.07156  -0.00019   0.00000  -0.00775  -0.00772  -3.07928
   D37       -0.95617  -0.00010   0.00000  -0.00233  -0.00232  -0.95849
   D38        1.04827   0.00020   0.00000   0.00626   0.00623   1.05449
   D39        1.08702  -0.00013   0.00000  -0.00893  -0.00890   1.07812
   D40       -3.08076  -0.00004   0.00000  -0.00351  -0.00351  -3.08427
   D41       -1.07633   0.00026   0.00000   0.00508   0.00505  -1.07129
   D42       -0.94095  -0.00022   0.00000  -0.01036  -0.01033  -0.95128
   D43        1.17445  -0.00013   0.00000  -0.00494  -0.00493   1.16952
   D44       -3.10430   0.00017   0.00000   0.00365   0.00362  -3.10069
   D45       -1.06584   0.00047   0.00000   0.02067   0.02067  -1.04517
   D46        3.07250   0.00095   0.00000   0.03022   0.03021   3.10271
   D47        1.07911  -0.00006   0.00000   0.01171   0.01171   1.09082
   D48        3.09554   0.00043   0.00000   0.01692   0.01693   3.11248
   D49        0.95070   0.00091   0.00000   0.02647   0.02647   0.97717
   D50       -1.04268  -0.00009   0.00000   0.00795   0.00797  -1.03471
   D51        1.09654  -0.00058   0.00000   0.00054   0.00053   1.09708
   D52       -1.04830  -0.00010   0.00000   0.01009   0.01007  -1.03823
   D53       -3.04168  -0.00110   0.00000  -0.00843  -0.00843  -3.05011
   D54       -1.06559   0.00049   0.00000   0.02066   0.02066  -1.04493
   D55        1.09692  -0.00051   0.00000   0.00160   0.00159   1.09851
   D56        3.09664   0.00043   0.00000   0.01666   0.01667   3.11331
   D57        1.07865  -0.00014   0.00000   0.00986   0.00986   1.08851
   D58       -3.04203  -0.00113   0.00000  -0.00920  -0.00921  -3.05124
   D59       -1.04231  -0.00020   0.00000   0.00586   0.00587  -1.03644
   D60        3.07198   0.00097   0.00000   0.02943   0.02943   3.10141
   D61       -1.04870  -0.00003   0.00000   0.01038   0.01036  -1.03833
   D62        0.95102   0.00091   0.00000   0.02544   0.02544   0.97646
   D63       -3.07178  -0.00016   0.00000  -0.00712  -0.00710  -3.07888
   D64       -0.94341   0.00014   0.00000  -0.00603  -0.00602  -0.94943
   D65        1.08944  -0.00048   0.00000  -0.01294  -0.01291   1.07653
   D66        1.04771   0.00014   0.00000   0.00530   0.00527   1.05297
   D67       -3.10711   0.00044   0.00000   0.00638   0.00635  -3.10076
   D68       -1.07426  -0.00018   0.00000  -0.00053  -0.00054  -1.07480
   D69       -0.95696  -0.00002   0.00000  -0.00115  -0.00115  -0.95810
   D70        1.17141   0.00029   0.00000  -0.00006  -0.00006   1.17135
   D71       -3.07892  -0.00034   0.00000  -0.00697  -0.00696  -3.08588
   D72       -1.04801   0.00017   0.00000   0.00302   0.00301  -1.04500
   D73        1.05344  -0.00053   0.00000  -0.00882  -0.00881   1.04464
   D74       -3.13874  -0.00015   0.00000  -0.00243  -0.00243  -3.14117
   D75        3.10252   0.00076   0.00000   0.01126   0.01126   3.11378
   D76       -1.07921   0.00007   0.00000  -0.00058  -0.00056  -1.07977
   D77        1.01179   0.00044   0.00000   0.00581   0.00582   1.01761
   D78        1.08484   0.00009   0.00000   0.00337   0.00335   1.08819
   D79       -3.09689  -0.00061   0.00000  -0.00847  -0.00847  -3.10536
   D80       -1.00589  -0.00023   0.00000  -0.00208  -0.00209  -1.00798
         Item               Value     Threshold  Converged?
 Maximum Force            0.016980     0.000450     NO 
 RMS     Force            0.002900     0.000300     NO 
 Maximum Displacement     0.395494     0.001800     NO 
 RMS     Displacement     0.075718     0.001200     NO 
 Predicted change in Energy=-2.531025D-03
 GradGradGradGradGradGradGradGradGradGradGradGradGradGradGradGradGradGrad

                          Input orientation:                          
 ---------------------------------------------------------------------
 Center     Atomic      Atomic             Coordinates (Angstroms)
 Number     Number       Type             X           Y           Z
 ---------------------------------------------------------------------
      1          8           0        4.469458   -0.152565    1.014115
      2          6           0        5.430112   -0.760696    0.280403
      3          6           0        5.171694   -2.239509    0.115671
      4          6           0        3.831672   -2.542906   -0.566183
      5          6           0        3.743549   -1.983905   -1.988388
      6          6           0        2.416222   -2.322138   -2.672879
      7          6           0        2.327372   -1.766939   -4.097580
      8          6           0        0.974279   -2.015270   -4.779033
      9          6           0        0.583192   -3.492821   -4.927367
     10          6           0        1.572541   -4.320987   -5.752358
     11          6           0        1.108331   -5.766717   -5.953959
     12          8           0        6.347808   -0.141292   -0.214114
     13          1           0        4.701215    0.791465    1.042613
     14          1           0        5.190716   -2.698820    1.111696
     15          1           0        6.006085   -2.644667   -0.461179
     16          1           0        3.693800   -3.630867   -0.586948
     17          1           0        3.015330   -2.135199    0.041343
     18          1           0        3.873309   -0.893905   -1.965114
     19          1           0        4.576186   -2.378365   -2.585335
     20          1           0        2.289388   -3.412034   -2.689751
     21          1           0        1.584753   -1.923478   -2.076216
     22          1           0        2.514132   -0.685536   -4.073756
     23          1           0        3.134214   -2.199278   -4.702461
     24          1           0        0.990696   -1.550431   -5.773502
     25          1           0        0.190056   -1.496930   -4.211605
     26          1           0        0.471617   -3.950800   -3.936288
     27          1           0       -0.407350   -3.546745   -5.397601
     28          1           0        1.716898   -3.840597   -6.728684
     29          1           0        2.553707   -4.322275   -5.262288
     30          1           0        0.983905   -6.277688   -4.992951
     31          1           0        0.145641   -5.802432   -6.475422
     32          1           0        1.830075   -6.339671   -6.545276
 ---------------------------------------------------------------------
                    Distance matrix (angstroms):
                    1          2          3          4          5
     1  O    0.000000
     2  C    1.353150   0.000000
     3  C    2.378166   1.510233   0.000000
     4  C    2.935616   2.539289   1.533829   0.000000
     5  C    3.591069   3.080284   2.555777   1.530658   0.000000
     6  C    4.745182   4.499279   3.921156   2.547628   1.531250
     7  C    5.772708   5.459511   5.105387   3.916096   2.549769
     8  C    7.017586   6.857573   6.451876   5.117735   3.931608
     9  C    7.846119   7.620893   6.932343   5.520407   4.571901
[...]
 Alpha virt. eigenvalues --    4.07537   4.08846   4.12886   4.16474   4.19444
 Alpha virt. eigenvalues --    4.23005   4.28063   4.28928   4.30482   4.32331
 Alpha virt. eigenvalues --    4.35048   4.36707   4.38467   4.41565   4.45686
 Alpha virt. eigenvalues --    4.49330   4.50074   4.52153   4.54139   4.55098
 Alpha virt. eigenvalues --    4.57326   4.58003   4.60698   4.61449   4.62518
 Alpha virt. eigenvalues --    4.63130   4.65348   4.68179   4.69256   4.72268
 Alpha virt. eigenvalues --    4.72508   4.79318   4.83652   4.83940   4.93785
 Alpha virt. eigenvalues --    4.99245   5.09228   5.12792   5.17201   5.20596
 Alpha virt. eigenvalues --    5.22783   5.39473   5.40277   5.51053   5.59483
 Alpha virt. eigenvalues --    5.73545   5.84985   5.86886   6.15738   6.19282
 Alpha virt. eigenvalues --    6.33377   6.34012   6.46121   6.47606   6.64070
 Alpha virt. eigenvalues --    6.69073   6.73984   6.81133   6.88544   7.07094
 Alpha virt. eigenvalues --    7.07722   7.28113  22.41071  22.45277  22.52751
 Alpha virt. eigenvalues --   22.56247  22.57522  22.59877  22.60196  22.64586
 Alpha virt. eigenvalues --   22.65782  23.26963  43.94439  44.01705
          Condensed to atoms (all electrons):
               1          2          3          4          5          6
     1  O    7.978124   0.333841  -0.112294   0.002190   0.004378  -0.001886
     2  C    0.333841   4.525464   0.269394  -0.034113   0.013296   0.000512
     3  C   -0.112294   0.269394   5.279452   0.206301  -0.056721   0.011450
     4  C    0.002190  -0.034113   0.206301   5.246190   0.198402  -0.030434
     5  C    0.004378   0.013296  -0.056721   0.198402   5.301991   0.168251
     6  C   -0.001886   0.000512   0.011450  -0.030434   0.168251   5.394663
     7  C    0.000113  -0.000104  -0.001094   0.009117  -0.031607   0.148318
     8  C   -0.000001   0.000014   0.000028  -0.000968   0.011565  -0.046844
     9  C   -0.000000  -0.000005   0.000016   0.000203  -0.002740   0.038117
    10  C    0.000000   0.000001  -0.000004   0.000014   0.000612  -0.014613
    11  C   -0.000000  -0.000000   0.000000  -0.000005  -0.000030   0.000468
    12  O   -0.094137   0.673657  -0.096023   0.006402   0.000562   0.000496
    13  H    0.286640  -0.022050   0.016535  -0.002138   0.000140  -0.000041
    14  H    0.003799  -0.019487   0.404108  -0.052095   0.010706  -0.000563
    15  H    0.004797  -0.057819   0.434713  -0.028169  -0.006803   0.000662
    16  H   -0.000118   0.007609  -0.038258   0.423310  -0.037567  -0.007489
    17  H    0.004006  -0.011629  -0.023019   0.436015  -0.062679   0.000652
    18  H   -0.000206   0.007236  -0.008707  -0.039775   0.439284  -0.052343
    19  H    0.000397  -0.003618   0.006415  -0.050808   0.426371  -0.041838
    20  H    0.000013  -0.000126   0.000033  -0.005099  -0.044780   0.428817
    21  H    0.000097   0.000282  -0.000088  -0.005115  -0.031786   0.417863
    22  H   -0.000007  -0.000055   0.000087  -0.000108  -0.006885  -0.038984
    23  H   -0.000001   0.000049  -0.000045  -0.000465   0.000686  -0.069611
    24  H   -0.000000   0.000000  -0.000001   0.000036  -0.000867   0.013180
    25  H    0.000000   0.000001  -0.000002   0.000001  -0.000135  -0.009441
    26  H   -0.000000   0.000000   0.000002   0.000062   0.000593   0.003091
    27  H   -0.000000   0.000000   0.000000  -0.000006   0.000072  -0.001051
    28  H    0.000000   0.000000   0.000000  -0.000000   0.000007   0.000766
    29  H   -0.000000  -0.000000   0.000001  -0.000054   0.000510  -0.005015
    30  H   -0.000000   0.000000  -0.000000  -0.000002  -0.000004  -0.000018
    31  H    0.000000  -0.000000   0.000000   0.000000   0.000001   0.000008
    32  H    0.000000   0.000000  -0.000000   0.000000  -0.000001  -0.000009
               7          8          9         10         11         12
     1  O    0.000113  -0.000001  -0.000000   0.000000  -0.000000  -0.094137
     2  C   -0.000104   0.000014  -0.000005   0.000001  -0.000000   0.673657
     3  C   -0.001094   0.000028   0.000016  -0.000004   0.000000  -0.096023
     4  C    0.009117  -0.000968   0.000203   0.000014  -0.000005   0.006402
     5  C   -0.031607   0.011565  -0.002740   0.000612  -0.000030   0.000562
     6  C    0.148318  -0.046844   0.038117  -0.014613   0.000468   0.000496
     7  C    5.339312   0.215797  -0.080890   0.034843  -0.001813  -0.000028
     8  C    0.215797   5.190127   0.224363  -0.051558   0.011348   0.000000
     9  C   -0.080890   0.224363   5.319721   0.212095  -0.054377   0.000000
    10  C    0.034843  -0.051558   0.212095   5.199750   0.265226  -0.000000
    11  C   -0.001813   0.011348  -0.054377   0.265226   5.027518   0.000000
    12  O   -0.000028   0.000000   0.000000  -0.000000   0.000000   7.820565
    13  H   -0.000003   0.000000  -0.000000   0.000000  -0.000000   0.007062
    14  H    0.000026  -0.000001   0.000000  -0.000000   0.000000   0.002608
    15  H   -0.000025  -0.000002   0.000001  -0.000001   0.000000   0.007703
    16  H   -0.000230   0.000067  -0.000101   0.000025  -0.000001  -0.000339
    17  H   -0.000474  -0.000068   0.000062  -0.000009   0.000000   0.000077
    18  H   -0.003229  -0.000184  -0.000110   0.000023  -0.000000  -0.001012
    19  H   -0.002681   0.000041   0.000290  -0.000140  -0.000005  -0.000272
    20  H   -0.037003  -0.011713   0.006710  -0.001260   0.000000  -0.000001
    21  H   -0.047456   0.007055  -0.004908   0.000425  -0.000011  -0.000013
    22  H    0.434209  -0.045875   0.010294  -0.000432   0.000047   0.000005
    23  H    0.440976  -0.031567  -0.011798  -0.000959   0.000429  -0.000001
    24  H   -0.073231   0.448576  -0.037106  -0.007612  -0.000244   0.000000
    25  H   -0.035109   0.440531  -0.065008   0.010295  -0.000605  -0.000000
    26  H   -0.016381  -0.029579   0.428442  -0.059312  -0.002150   0.000000
    27  H    0.012677  -0.047802   0.429394  -0.038757  -0.005187   0.000000
    28  H   -0.007603   0.010449  -0.058017   0.422173  -0.034833   0.000000
    29  H    0.015266  -0.017905  -0.040507   0.419620  -0.037312   0.000000
    30  H   -0.000051   0.000273  -0.006926  -0.040058   0.413025  -0.000000
    31  H    0.000055  -0.000706  -0.006151  -0.045122   0.419996  -0.000000
    32  H    0.000116  -0.000767   0.012341  -0.051105   0.422481  -0.000000
              13         14         15         16         17         18
     1  O    0.286640   0.003799   0.004797  -0.000118   0.004006  -0.000206
     2  C   -0.022050  -0.019487  -0.057819   0.007609  -0.011629   0.007236
     3  C    0.016535   0.404108   0.434713  -0.038258  -0.023019  -0.008707
     4  C   -0.002138  -0.052095  -0.028169   0.423310   0.436015  -0.039775
     5  C    0.000140   0.010706  -0.006803  -0.037567  -0.062679   0.439284
     6  C   -0.000041  -0.000563   0.000662  -0.007489   0.000652  -0.052343
     7  C   -0.000003   0.000026  -0.000025  -0.000230  -0.000474  -0.003229
     8  C    0.000000  -0.000001  -0.000002   0.000067  -0.000068  -0.000184
     9  C   -0.000000   0.000000   0.000001  -0.000101   0.000062  -0.000110
    10  C    0.000000  -0.000000  -0.000001   0.000025  -0.000009   0.000023
    11  C   -0.000000   0.000000   0.000000  -0.000001   0.000000  -0.000000
    12  O    0.007062   0.002608   0.007703  -0.000339   0.000077  -0.001012
    13  H    0.379521  -0.000774  -0.000729   0.000062  -0.000241  -0.000122
    14  H   -0.000774   0.509710  -0.015291  -0.005787  -0.002837  -0.000291
    15  H   -0.000729  -0.015291   0.494734  -0.004446   0.004597   0.000870
    16  H    0.000062  -0.005787  -0.004446   0.530652  -0.020153   0.004706
    17  H   -0.000241  -0.002837   0.004597  -0.020153   0.503488  -0.000740
    18  H   -0.000122  -0.000291   0.000870   0.004706  -0.000740   0.518881
    19  H    0.000013   0.000083  -0.000125  -0.002247   0.005634  -0.023231
    20  H   -0.000001  -0.000014   0.000086   0.001270   0.000581   0.006532
    21  H    0.000010   0.000001  -0.000060   0.001053   0.000692  -0.003706
    22  H    0.000000   0.000001   0.000003  -0.000038   0.000125   0.001502
    23  H    0.000000  -0.000000  -0.000014   0.000148  -0.000059   0.000594
    24  H   -0.000000   0.000000   0.000000   0.000000   0.000000  -0.000038
    25  H   -0.000000   0.000000  -0.000000   0.000003  -0.000012   0.000126
    26  H    0.000000  -0.000000  -0.000000   0.000032  -0.000002  -0.000049
    27  H   -0.000000  -0.000000   0.000000  -0.000000   0.000000   0.000003
    28  H   -0.000000   0.000000  -0.000000   0.000000   0.000000  -0.000003
    29  H   -0.000000   0.000000   0.000001  -0.000018   0.000006   0.000004
    30  H    0.000000   0.000000  -0.000000   0.000002  -0.000000   0.000000
    31  H    0.000000  -0.000000   0.000000  -0.000000   0.000000  -0.000000
    32  H    0.000000   0.000000  -0.000000  -0.000000  -0.000000   0.000000
              19         20         21         22         23         24
     1  O    0.000397   0.000013   0.000097  -0.000007  -0.000001  -0.000000
     2  C   -0.003618  -0.000126   0.000282  -0.000055   0.000049   0.000000
     3  C    0.006415   0.000033  -0.000088   0.000087  -0.000045  -0.000001
     4  C   -0.050808  -0.005099  -0.005115  -0.000108  -0.000465   0.000036
     5  C    0.426371  -0.044780  -0.031786  -0.006885   0.000686  -0.000867
     6  C   -0.041838   0.428817   0.417863  -0.038984  -0.069611   0.013180
     7  C   -0.002681  -0.037003  -0.047456   0.434209   0.440976  -0.073231
     8  C    0.000041  -0.011713   0.007055  -0.045875  -0.031567   0.448576
     9  C    0.000290   0.006710  -0.004908   0.010294  -0.011798  -0.037106
    10  C   -0.000140  -0.001260   0.000425  -0.000432  -0.000959  -0.007612
    11  C   -0.000005   0.000000  -0.000011   0.000047   0.000429  -0.000244
    12  O   -0.000272  -0.000001  -0.000013   0.000005  -0.000001   0.000000
    13  H    0.000013  -0.000001   0.000010   0.000000   0.000000  -0.000000
    14  H    0.000083  -0.000014   0.000001   0.000001  -0.000000   0.000000
    15  H   -0.000125   0.000086  -0.000060   0.000003  -0.000014   0.000000
    16  H   -0.002247   0.001270   0.001053  -0.000038   0.000148   0.000000
    17  H    0.005634   0.000581   0.000692   0.000125  -0.000059   0.000000
    18  H   -0.023231   0.006532  -0.003706   0.001502   0.000594  -0.000038
    19  H    0.534345  -0.004006   0.005766   0.001090   0.000544   0.000006
    20  H   -0.004006   0.543534  -0.026844   0.004715  -0.001732  -0.000651
    21  H    0.005766  -0.026844   0.529836  -0.001174   0.005922   0.000147
    22  H    0.001090   0.004715  -0.001174   0.522473  -0.019850  -0.006681
    23  H    0.000544  -0.001732   0.005922  -0.019850   0.528107  -0.001420
    24  H    0.000006  -0.000651   0.000147  -0.006681  -0.001420   0.529774
    25  H   -0.000033   0.001343   0.001204  -0.003837   0.005611  -0.018242
    26  H    0.000028  -0.010452   0.001682  -0.000833   0.002224   0.005673
    27  H   -0.000002   0.000808  -0.000286  -0.000022  -0.000913  -0.003725
    28  H    0.000007  -0.000234   0.000021  -0.000315   0.002145   0.001125
    29  H    0.000240   0.001965  -0.000063   0.000684  -0.010810   0.001233
    30  H   -0.000002   0.000056   0.000003  -0.000004   0.000045  -0.000025
    31  H    0.000000   0.000023  -0.000002   0.000003  -0.000064   0.000105
    32  H    0.000000   0.000002   0.000001  -0.000002   0.000003   0.000019
              25         26         27         28         29         30
     1  O    0.000000  -0.000000  -0.000000   0.000000  -0.000000  -0.000000
     2  C    0.000001   0.000000   0.000000   0.000000  -0.000000   0.000000
     3  C   -0.000002   0.000002   0.000000   0.000000   0.000001  -0.000000
     4  C    0.000001   0.000062  -0.000006  -0.000000  -0.000054  -0.000002
     5  C   -0.000135   0.000593   0.000072   0.000007   0.000510  -0.000004
     6  C   -0.009441   0.003091  -0.001051   0.000766  -0.005015  -0.000018
     7  C   -0.035109  -0.016381   0.012677  -0.007603   0.015266  -0.000051
     8  C    0.440531  -0.029579  -0.047802   0.010449  -0.017905   0.000273
     9  C   -0.065008   0.428442   0.429394  -0.058017  -0.040507  -0.006926
    10  C    0.010295  -0.059312  -0.038757   0.422173   0.419620  -0.040058
    11  C   -0.000605  -0.002150  -0.005187  -0.034833  -0.037312   0.413025
    12  O   -0.000000   0.000000   0.000000   0.000000   0.000000  -0.000000
    13  H   -0.000000   0.000000  -0.000000  -0.000000  -0.000000   0.000000
    14  H    0.000000  -0.000000  -0.000000   0.000000   0.000000   0.000000
    15  H   -0.000000  -0.000000   0.000000  -0.000000   0.000001  -0.000000
    16  H    0.000003   0.000032  -0.000000   0.000000  -0.000018   0.000002
    17  H   -0.000012  -0.000002   0.000000   0.000000   0.000006  -0.000000
    18  H    0.000126  -0.000049   0.000003  -0.000003   0.000004   0.000000
    19  H   -0.000033   0.000028  -0.000002   0.000007   0.000240  -0.000002
    20  H    0.001343  -0.010452   0.000808  -0.000234   0.001965   0.000056
    21  H    0.001204   0.001682  -0.000286   0.000021  -0.000063   0.000003
    22  H   -0.003837  -0.000833  -0.000022  -0.000315   0.000684  -0.000004
    23  H    0.005611   0.002224  -0.000913   0.002145  -0.010810   0.000045
    24  H   -0.018242   0.005673  -0.003725   0.001125   0.001233  -0.000025
    25  H    0.535516  -0.001762  -0.007190   0.000125  -0.000673   0.000010
    26  H   -0.001762   0.542383  -0.023805   0.007561  -0.004042   0.003072
    27  H   -0.007190  -0.023805   0.534318  -0.003241   0.006359   0.000340
    28  H    0.000125   0.007561  -0.003241   0.559856  -0.033071   0.007656
    29  H   -0.000673  -0.004042   0.006359  -0.033071   0.573721  -0.006243
    30  H    0.000010   0.003072   0.000340   0.007656  -0.006243   0.550986
    31  H   -0.000031  -0.000035   0.002912  -0.006245   0.008071  -0.032049
    32  H    0.000017  -0.000235  -0.000074  -0.004605  -0.004455  -0.025062
              31         32
     1  O    0.000000   0.000000
     2  C   -0.000000   0.000000
     3  C    0.000000  -0.000000
     4  C    0.000000   0.000000
     5  C    0.000001  -0.000001
     6  C    0.000008  -0.000009
     7  C    0.000055   0.000116
     8  C   -0.000706  -0.000767
     9  C   -0.006151   0.012341
    10  C   -0.045122  -0.051105
    11  C    0.419996   0.422481
    12  O   -0.000000  -0.000000
    13  H    0.000000   0.000000
    14  H   -0.000000   0.000000
    15  H    0.000000  -0.000000
    16  H   -0.000000  -0.000000
    17  H    0.000000  -0.000000
    18  H   -0.000000   0.000000
    19  H    0.000000   0.000000
    20  H    0.000023   0.000002
    21  H   -0.000002   0.000001
    22  H    0.000003  -0.000002
    23  H   -0.000064   0.000003
    24  H    0.000105   0.000019
    25  H   -0.000031   0.000017
    26  H   -0.000035  -0.000235
    27  H    0.002912  -0.000074
    28  H   -0.006245  -0.004605
    29  H    0.008071  -0.004455
    30  H   -0.032049  -0.025062
    31  H    0.546762  -0.024630
    32  H   -0.024630   0.534130
 Mulliken charges:
               1
     1  O   -0.409747
     2  C    0.317649
     3  C   -0.292278
     4  C   -0.278891
     5  C   -0.294822
     6  C   -0.307133
     7  C   -0.311812
     8  C   -0.274693
     9  C   -0.313406
    10  C   -0.254161
    11  C   -0.423967
    12  O   -0.327310
    13  H    0.336116
    14  H    0.166098
    15  H    0.165316
    16  H    0.147853
    17  H    0.165986
    18  H    0.153984
    19  H    0.147738
    20  H    0.147427
    21  H    0.149453
    22  H    0.149862
    23  H    0.161825
    24  H    0.149967
    25  H    0.147299
    26  H    0.153793
    27  H    0.145178
    28  H    0.136277
    29  H    0.132488
    30  H    0.134977
    31  H    0.137098
    32  H    0.141835
 Sum of Mulliken charges =  -0.00000
 Mulliken charges with hydrogens summed into heavy atoms:
               1
     1  O   -0.073631
     2  C    0.317649
     3  C    0.039136
     4  C    0.034948
     5  C    0.006900
     6  C   -0.010254
     7  C   -0.000125
     8  C    0.022573
     9  C   -0.014435
    10  C    0.014604
    11  C   -0.010057
    12  O   -0.327310
 Electronic spatial extent (au):  <R**2>=           4531.4290
 Charge=              0.0000 electrons
 Dipole moment (field-independent basis, Debye):
    X=             -1.0491    Y=              0.1410    Z=             -1.5619  Tot=              1.8869
 Quadrupole moment (field-independent basis, Debye-Ang):
   XX=            -82.9842   YY=            -73.1487   ZZ=            -82.5948
   XY=             -0.8310   XZ=             -8.7811   YZ=              0.4047
 Traceless Quadrupole moment (field-independent basis, Debye-Ang):
   XX=             -3.4083   YY=              6.4272   ZZ=             -3.0189
   XY=             -0.8310   XZ=             -8.7811   YZ=              0.4047
 Octapole moment (field-independent basis, Debye-Ang**2):
  XXX=             17.1711  YYY=             -5.9470  ZZZ=             -2.9192  XYY=             32.1647
  XXY=            -20.2137  XXZ=            -38.1542  XZZ=             -8.7555  YZZ=              0.9233
  YYZ=             -1.1538  XYZ=              1.0581
 Hexadecapole moment (field-independent basis, Debye-Ang**3):
 XXXX=          -5211.0600 YYYY=           -574.6685 ZZZZ=           -324.4579 XXXY=            -79.6843
 XXXZ=           -210.2070 YYYX=            -28.1670 YYYZ=              4.2216 ZZZX=            -17.9959
 ZZZY=              4.7172 XXYY=           -877.4567 XXZZ=          -1005.3799 YYZZ=           -144.8218
 XXYZ=             15.6768 YYXZ=            -10.7467 ZZXY=              1.3853
 N-N= 7.027028306336D+02 E-N=-2.670216710622D+03  KE= 5.405763786955D+02
 Unable to Open any file for archive entry.
 1\1\GINC-NOTCH209\SP\RM062X\def2TZVP\C10H20O2\U6032257\05-Feb-2022\0\\
 # M062X/def2tzvp int=(grid=ultrafine) nmr=giao guess=read geom=check\\
 Ac1.xyz\\0,1\O,0,4.4122301763,-0.1391444227,0.919781411\C,0,5.43424485
 46,-0.7580868026,0.271895858\C,0,5.1847654661,-2.2406990569,0.11840843
 03\C,0,3.8484429261,-2.5617431509,-0.5708706571\C,0,3.7425974511,-1.98
 16935367,-1.9835265209\C,0,2.423947874,-2.3320171083,-2.6769037225\C,0
 ,2.3218596859,-1.7579169618,-4.0930303691\C,0,0.9711421745,-2.00863442
 92,-4.7797944587\C,0,0.5767170673,-3.4850152787,-4.933291667\C,0,1.574
 0531661,-4.3258496513,-5.7367799817\C,0,1.0987103068,-5.7648405699,-5.
 9478226119\O,0,6.4094230338,-0.155001226,-0.1169146503\H,0,4.659483098
 5,0.799605836,0.9671479349\H,0,5.199528437,-2.6858561356,1.1204493722\
 H,0,6.0283237973,-2.6474000656,-0.4441645124\H,0,3.7350299779,-3.65183
 32782,-0.6119356839\H,0,3.0268028088,-2.1820361814,0.0461090993\H,0,3.
 848395878,-0.8893785948,-1.9395348943\H,0,4.5835655325,-2.3438027055,-
 2.5907579298\H,0,2.316324129,-3.4240040087,-2.708131978\H,0,1.58458038
 23,-1.9612357333,-2.0717356054\H,0,2.4970645377,-0.6749520535,-4.05097
 15038\H,0,3.1344988756,-2.1677152379,-4.7064645798\H,0,0.990342542,-1.
 541862167,-5.7734771863\H,0,0.1849900273,-1.4906004553,-4.2146112633\H
 ,0,0.4387878088,-3.9400028439,-3.9436338799\H,0,-0.4048270967,-3.53514
 52782,-5.4230053978\H,0,1.7480880988,-3.8472800221,-6.7101176252\H,0,2
 .5453153236,-4.3373594283,-5.226916786\H,0,0.9432061394,-6.2721908111,
 -4.9889526748\H,0,0.1473542473,-5.7903274305,-6.4908714344\H,0,1.82561
 12726,-6.3499812103,-6.5199745316\\Version=ES64L-G16RevC.01\State=1-A\
 HF=-543.5430465\RMSD=2.328e-09\Dipole=-0.6573212,-0.3292532,0.1029487\
 Quadrupole=-6.5068398,2.6980825,3.8087572,-5.1859582,-1.1327451,-0.018
 3792\PG=C01 [X(C10H20O2)]\\@
 The archive entry for this job was punched.


 TIME GOES, YOU SAY?  AH NO!
 ALAS, TIME STAYS, WE GO.
    -- A. DOBSON (1840-1921)
 Job cpu time:       0 days  0 hours 40 minutes 30.3 seconds.
 Elapsed time:       0 days  0 hours  0 minutes 57.1 seconds.
 File lengths (MBytes):  RWF=    140 Int=      0 D2E=      0 Chk=     24 Scr=      1
 Normal termination of Gaussian 16 at Sat Feb  5 08:59:12 2022.
