 Entering Gaussian System, Link 0=/uufs/chpc.utah.edu/sys/installdir/gaussian16/C01/AVX2/g16/g16
 Input=Ac1_clust-14.com
 Output=Ac1_clust-14.log
 Initial command:
 /uufs/chpc.utah.edu/sys/installdir/gaussian16/C01/AVX2/g16/l1.exe "/scratch/general/lustre/u6032257/3857469/notchpeak.peaks/Gau-159412.inp" -scrdir="/scratch/general/lustre/u6032257/3857469/notchpeak.peaks/"
 Entering Link 1 = /uufs/chpc.utah.edu/sys/installdir/gaussian16/C01/AVX2/g16/l1.exe PID=    159414.
  
 Copyright (c) 1988-2019, Gaussian, Inc.  All Rights Reserved.
  
 This is part of the Gaussian(R) 16 program.  It is based on
 the Gaussian(R) 09 system (copyright 2009, Gaussian, Inc.),
 the Gaussian(R) 03 system (copyright 2003, Gaussian, Inc.),
 the Gaussian(R) 98 system (copyright 1998, Gaussian, Inc.),
 the Gaussian(R) 94 system (copyright 1995, Gaussian, Inc.),
 the Gaussian 92(TM) system (copyright 1992, Gaussian, Inc.),
 the Gaussian 90(TM) system (copyright 1990, Gaussian, Inc.),
 the Gaussian 88(TM) system (copyright 1988, Gaussian, Inc.),
 the Gaussian 86(TM) system (copyright 1986, Carnegie Mellon
 University), and the Gaussian 82(TM) system (copyright 1983,
 Carnegie Mellon University). Gaussian is a federally registered
 trademark of Gaussian, Inc.
  
 This software contains proprietary and confidential information,
 including trade secrets, belonging to Gaussian, Inc.
  
 This software is provided under written license and may be
 used, copied, transmitted, or stored only in accord with that
 written license.
  
 The following legend is applicable only to US Government
 contracts under FAR:
  
                    RESTRICTED RIGHTS LEGEND
  
 Use, reproduction and disclosure by the US Government is
 subject to restrictions as set forth in subparagraphs (a)
 and (c) of the Commercial Computer Software - Restricted
 Rights clause in FAR 52.227-19.
  
 Gaussian, Inc.
 340 Quinnipiac St., Bldg. 40, Wallingford CT 06492
  
  
 ---------------------------------------------------------------
 Warning -- This program may not be used in any manner that
 competes with the business of Gaussian, Inc. or will provide
 assistance to any competitor of Gaussian, Inc.  The licensee
 of this program is prohibited from giving any competitor of
 Gaussian, Inc. access to this program.  By using this program,
 the user acknowledges that Gaussian, Inc. is engaged in the
 business of creating and licensing software in the field of
 computational chemistry and represents and warrants to the
 licensee that it is not a competitor of Gaussian, Inc. and that
 it will not use this program in any manner prohibited above.
 ---------------------------------------------------------------
  

 Cite this work as:
 Gaussian 16, Revision C.01,
 M. J. Frisch, G. W. Trucks, H. B. Schlegel, G. E. Scuseria, 
 M. A. Robb, J. R. Cheeseman, G. Scalmani, V. Barone, 
 G. A. Petersson, H. Nakatsuji, X. Li, M. Caricato, A. V. Marenich, 
 J. Bloino, B. G. Janesko, R. Gomperts, B. Mennucci, H. P. Hratchian, 
 J. V. Ortiz, A. F. Izmaylov, J. L. Sonnenberg, D. Williams-Young, 
 F. Ding, F. Lipparini, F. Egidi, J. Goings, B. Peng, A. Petrone, 
 T. Henderson, D. Ranasinghe, V. G. Zakrzewski, J. Gao, N. Rega, 
 G. Zheng, W. Liang, M. Hada, M. Ehara, K. Toyota, R. Fukuda, 
 J. Hasegawa, M. Ishida, T. Nakajima, Y. Honda, O. Kitao, H. Nakai, 
 T. Vreven, K. Throssell, J. A. Montgomery, Jr., J. E. Peralta, 
 F. Ogliaro, M. J. Bearpark, J. J. Heyd, E. N. Brothers, K. N. Kudin, 
 V. N. Staroverov, T. A. Keith, R. Kobayashi, J. Normand, 
 K. Raghavachari, A. P. Rendell, J. C. Burant, S. S. Iyengar, 
 J. Tomasi, M. Cossi, J. M. Millam, M. Klene, C. Adamo, R. Cammi, 
 J. W. Ochterski, R. L. Martin, K. Morokuma, O. Farkas, 
 J. B. Foresman, and D. J. Fox, Gaussian, Inc., Wallingford CT, 2019.
 
 ******************************************
 Gaussian 16:  ES64L-G16RevC.01  3-Jul-2019
                 3-Feb-2022 
 ******************************************
 %NProcShared=32
 Will use up to   32 processors via shared memory.
 %mem=16GB
 %chk=Ac1_clust-14.chk
 ----------------------------------------------------------------------
 # B3LYP/6-31G(d,p) empiricaldispersion=GD3BJ int=(grid=ultrafine) opt 
 freq=noraman
 ----------------------------------------------------------------------
 1/18=20,19=15,26=4,38=1/1,3;
 2/9=110,12=2,17=6,18=5,40=1/2;
 3/5=1,6=6,7=101,11=2,25=1,30=1,71=1,74=-5,75=-5,124=41/1,2,3;
 4//1;
 5/5=2,38=5/2;
 6/7=2,8=2,9=2,10=2,28=1/1;
 7//1,2,3,16;
 1/18=20,19=15,26=4/3(2);
 2/9=110/2;
 99//99;
 2/9=110/2;
 3/5=1,6=6,7=101,11=2,25=1,30=1,71=1,74=-5,75=-5,124=41/1,2,3;
 4/5=5,16=3,69=1/1;
 5/5=2,38=5/2;
 7//1,2,3,16;
 1/18=20,19=15,26=4/3(-5);
 2/9=110/2;
 6/7=2,8=2,9=2,10=2,19=2,28=1/1;
 99/9=1/99;
 -------
 Ac1.xyz
 -------
 Symbolic Z-matrix:
 Charge =  0 Multiplicity = 1
 O                     5.7375   -1.045    -0.5844 
 C                     4.6952   -0.3355   -0.0999 
 C                     3.697    -1.202     0.6643 
 C                     3.0601   -2.3482   -0.1599 
 C                     2.1909   -1.8686   -1.3422 
 C                     1.4737   -3.004    -2.102 
 C                     2.3972   -4.0522   -2.7638 
 C                     3.4298   -3.4941   -3.7664 
 C                     2.8717   -2.685    -4.9594 
 C                     2.0387   -3.486    -5.9841 
 C                     0.5329   -3.5489   -5.6793 
 O                     4.581     0.8726   -0.2442 
 H                     6.277    -0.3919   -1.0305 
 H                     2.9212   -0.5522    1.0695 
 H                     4.2272   -1.6097    1.5242 
 H                     3.845    -3.0171   -0.5185 
 H                     2.4444   -2.9556    0.5058 
 H                     1.4379   -1.1723   -0.969 
 H                     2.7953   -1.2903   -2.0425 
 H                     0.794    -3.5157   -1.4185 
 H                     0.8301   -2.5617   -2.8634 
 H                     2.93     -4.5993   -1.9851 
 H                     1.7893   -4.81     -3.2573 
 H                     4.1386   -2.867    -3.2231 
 H                     4.0275   -4.3222   -4.1508 
 H                     2.3115   -1.818    -4.6061 
 H                     3.7285   -2.2625   -5.4872 
 H                     2.1577   -3.0201   -6.964 
 H                     2.4413   -4.4944   -6.0932 
 H                     0.1064   -2.5498   -5.5841 
 H                    -0.0024   -4.0567   -6.4823 
 H                     0.3177   -4.0901   -4.7601 
 

 GradGradGradGradGradGradGradGradGradGradGradGradGradGradGradGradGradGrad
 Berny optimization.
 Initialization pass.
                           ----------------------------
                           !    Initial Parameters    !
                           ! (Angstroms and Degrees)  !
 --------------------------                            --------------------------
 ! Name  Definition              Value          Derivative Info.                !
 --------------------------------------------------------------------------------
 ! R1    R(1,2)                  1.3507         estimate D2E/DX2                !
 ! R2    R(1,13)                 0.9574         estimate D2E/DX2                !
 ! R3    R(2,3)                  1.5268         estimate D2E/DX2                !
 ! R4    R(2,12)                 1.222          estimate D2E/DX2                !
 ! R5    R(3,4)                  1.5488         estimate D2E/DX2                !
 ! R6    R(3,14)                 1.0901         estimate D2E/DX2                !
 ! R7    R(3,15)                 1.0894         estimate D2E/DX2                !
 ! R8    R(4,5)                  1.5438         estimate D2E/DX2                !
 ! R9    R(4,16)                 1.0918         estimate D2E/DX2                !
 ! R10   R(4,17)                 1.0914         estimate D2E/DX2                !
 ! R11   R(5,6)                  1.543          estimate D2E/DX2                !
 ! R12   R(5,18)                 1.0914         estimate D2E/DX2                !
 ! R13   R(5,19)                 1.0909         estimate D2E/DX2                !
 ! R14   R(6,7)                  1.5458         estimate D2E/DX2                !
 ! R15   R(6,20)                 1.0913         estimate D2E/DX2                !
 ! R16   R(6,21)                 1.0907         estimate D2E/DX2                !
 ! R17   R(7,8)                  1.5437         estimate D2E/DX2                !
 ! R18   R(7,22)                 1.0907         estimate D2E/DX2                !
 ! R19   R(7,23)                 1.0897         estimate D2E/DX2                !
 ! R20   R(8,9)                  1.5458         estimate D2E/DX2                !
 ! R21   R(8,24)                 1.0913         estimate D2E/DX2                !
 ! R22   R(8,25)                 1.0912         estimate D2E/DX2                !
 ! R23   R(9,10)                 1.5445         estimate D2E/DX2                !
 ! R24   R(9,26)                 1.091          estimate D2E/DX2                !
 ! R25   R(9,27)                 1.0914         estimate D2E/DX2                !
 ! R26   R(10,11)                1.5376         estimate D2E/DX2                !
 ! R27   R(10,28)                1.0915         estimate D2E/DX2                !
 ! R28   R(10,29)                1.0913         estimate D2E/DX2                !
 ! R29   R(11,30)                1.0905         estimate D2E/DX2                !
 ! R30   R(11,31)                1.0905         estimate D2E/DX2                !
 ! R31   R(11,32)                1.0882         estimate D2E/DX2                !
 ! A1    A(2,1,13)             104.1018         estimate D2E/DX2                !
 ! A2    A(1,2,3)              112.7005         estimate D2E/DX2                !
 ! A3    A(1,2,12)             123.3006         estimate D2E/DX2                !
 ! A4    A(3,2,12)             123.99           estimate D2E/DX2                !
 ! A5    A(2,3,4)              114.9921         estimate D2E/DX2                !
 ! A6    A(2,3,14)             108.242          estimate D2E/DX2                !
 ! A7    A(2,3,15)             106.8148         estimate D2E/DX2                !
 ! A8    A(4,3,14)             110.2611         estimate D2E/DX2                !
 ! A9    A(4,3,15)             110.0739         estimate D2E/DX2                !
 ! A10   A(14,3,15)            106.0248         estimate D2E/DX2                !
 ! A11   A(3,4,5)              114.1525         estimate D2E/DX2                !
 ! A12   A(3,4,16)             109.4238         estimate D2E/DX2                !
 ! A13   A(3,4,17)             108.6185         estimate D2E/DX2                !
 ! A14   A(5,4,16)             110.0928         estimate D2E/DX2                !
 ! A15   A(5,4,17)             108.8073         estimate D2E/DX2                !
 ! A16   A(16,4,17)            105.3625         estimate D2E/DX2                !
 ! A17   A(4,5,6)              114.2183         estimate D2E/DX2                !
 ! A18   A(4,5,18)             108.9522         estimate D2E/DX2                !
 ! A19   A(4,5,19)             110.1427         estimate D2E/DX2                !
 ! A20   A(6,5,18)             108.4909         estimate D2E/DX2                !
 ! A21   A(6,5,19)             109.3589         estimate D2E/DX2                !
 ! A22   A(18,5,19)            105.281          estimate D2E/DX2                !
 ! A23   A(5,6,7)              115.6007         estimate D2E/DX2                !
 ! A24   A(5,6,20)             109.0329         estimate D2E/DX2                !
 ! A25   A(5,6,21)             108.6408         estimate D2E/DX2                !
 ! A26   A(7,6,20)             108.8006         estimate D2E/DX2                !
 ! A27   A(7,6,21)             109.1864         estimate D2E/DX2                !
 ! A28   A(20,6,21)            105.0607         estimate D2E/DX2                !
 ! A29   A(6,7,8)              115.6283         estimate D2E/DX2                !
 ! A30   A(6,7,22)             109.0455         estimate D2E/DX2                !
 ! A31   A(6,7,23)             109.4012         estimate D2E/DX2                !
 ! A32   A(8,7,22)             108.5597         estimate D2E/DX2                !
 ! A33   A(8,7,23)             109.2968         estimate D2E/DX2                !
 ! A34   A(22,7,23)            104.3019         estimate D2E/DX2                !
 ! A35   A(7,8,9)              116.6791         estimate D2E/DX2                !
 ! A36   A(7,8,24)             108.5957         estimate D2E/DX2                !
 ! A37   A(7,8,25)             108.7126         estimate D2E/DX2                !
 ! A38   A(9,8,24)             108.5401         estimate D2E/DX2                !
 ! A39   A(9,8,25)             108.8509         estimate D2E/DX2                !
 ! A40   A(24,8,25)            104.8156         estimate D2E/DX2                !
 ! A41   A(8,9,10)             115.8051         estimate D2E/DX2                !
 ! A42   A(8,9,26)             110.574          estimate D2E/DX2                !
 ! A43   A(8,9,27)             107.0029         estimate D2E/DX2                !
 ! A44   A(10,9,26)            110.4896         estimate D2E/DX2                !
 ! A45   A(10,9,27)            107.6569         estimate D2E/DX2                !
 ! A46   A(26,9,27)            104.5995         estimate D2E/DX2                !
 ! A47   A(9,10,11)            114.7001         estimate D2E/DX2                !
 ! A48   A(9,10,28)            108.3874         estimate D2E/DX2                !
 ! A49   A(9,10,29)            110.2786         estimate D2E/DX2                !
 ! A50   A(11,10,28)           107.5887         estimate D2E/DX2                !
 ! A51   A(11,10,29)           110.0787         estimate D2E/DX2                !
 ! A52   A(28,10,29)           105.3342         estimate D2E/DX2                !
 ! A53   A(10,11,30)           111.2747         estimate D2E/DX2                !
 ! A54   A(10,11,31)           110.7195         estimate D2E/DX2                !
 ! A55   A(10,11,32)           112.424          estimate D2E/DX2                !
 ! A56   A(30,11,31)           107.3933         estimate D2E/DX2                !
 ! A57   A(30,11,32)           107.7325         estimate D2E/DX2                !
 ! A58   A(31,11,32)           107.0581         estimate D2E/DX2                !
 ! D1    D(13,1,2,3)          -179.8531         estimate D2E/DX2                !
 ! D2    D(13,1,2,12)           -0.9037         estimate D2E/DX2                !
 ! D3    D(1,2,3,4)            -59.424          estimate D2E/DX2                !
 ! D4    D(1,2,3,14)           176.8012         estimate D2E/DX2                !
 ! D5    D(1,2,3,15)            63.0198         estimate D2E/DX2                !
 ! D6    D(12,2,3,4)           121.6349         estimate D2E/DX2                !
 ! D7    D(12,2,3,14)           -2.1399         estimate D2E/DX2                !
 ! D8    D(12,2,3,15)         -115.9213         estimate D2E/DX2                !
 ! D9    D(2,3,4,5)            -63.8572         estimate D2E/DX2                !
 ! D10   D(2,3,4,16)            60.0152         estimate D2E/DX2                !
 ! D11   D(2,3,4,17)           174.5486         estimate D2E/DX2                !
 ! D12   D(14,3,4,5)            58.8414         estimate D2E/DX2                !
 ! D13   D(14,3,4,16)         -177.2861         estimate D2E/DX2                !
 ! D14   D(14,3,4,17)          -62.7527         estimate D2E/DX2                !
 ! D15   D(15,3,4,5)           175.469          estimate D2E/DX2                !
 ! D16   D(15,3,4,16)          -60.6585         estimate D2E/DX2                !
 ! D17   D(15,3,4,17)           53.8749         estimate D2E/DX2                !
 ! D18   D(3,4,5,6)           -175.8011         estimate D2E/DX2                !
 ! D19   D(3,4,5,18)           -54.3243         estimate D2E/DX2                !
 ! D20   D(3,4,5,19)            60.6851         estimate D2E/DX2                !
 ! D21   D(16,4,5,6)            60.6868         estimate D2E/DX2                !
 ! D22   D(16,4,5,18)         -177.8364         estimate D2E/DX2                !
 ! D23   D(16,4,5,19)          -62.827          estimate D2E/DX2                !
 ! D24   D(17,4,5,6)           -54.3112         estimate D2E/DX2                !
 ! D25   D(17,4,5,18)           67.1656         estimate D2E/DX2                !
 ! D26   D(17,4,5,19)         -177.825          estimate D2E/DX2                !
 ! D27   D(4,5,6,7)            -61.1861         estimate D2E/DX2                !
 ! D28   D(4,5,6,20)            61.7234         estimate D2E/DX2                !
 ! D29   D(4,5,6,21)           175.7057         estimate D2E/DX2                !
 ! D30   D(18,5,6,7)           177.083          estimate D2E/DX2                !
 ! D31   D(18,5,6,20)          -60.0075         estimate D2E/DX2                !
 ! D32   D(18,5,6,21)           53.9748         estimate D2E/DX2                !
 ! D33   D(19,5,6,7)            62.7493         estimate D2E/DX2                !
 ! D34   D(19,5,6,20)         -174.3413         estimate D2E/DX2                !
 ! D35   D(19,5,6,21)          -60.3589         estimate D2E/DX2                !
 ! D36   D(5,6,7,8)            -56.9003         estimate D2E/DX2                !
 ! D37   D(5,6,7,22)            65.7204         estimate D2E/DX2                !
 ! D38   D(5,6,7,23)           179.2141         estimate D2E/DX2                !
 ! D39   D(20,6,7,8)          -179.9325         estimate D2E/DX2                !
 ! D40   D(20,6,7,22)          -57.3118         estimate D2E/DX2                !
 ! D41   D(20,6,7,23)           56.1819         estimate D2E/DX2                !
 ! D42   D(21,6,7,8)            65.9196         estimate D2E/DX2                !
 ! D43   D(21,6,7,22)         -171.4597         estimate D2E/DX2                !
 ! D44   D(21,6,7,23)          -57.966          estimate D2E/DX2                !
 ! D45   D(6,7,8,9)            -57.3691         estimate D2E/DX2                !
 ! D46   D(6,7,8,24)            65.6228         estimate D2E/DX2                !
 ! D47   D(6,7,8,25)           179.1271         estimate D2E/DX2                !
 ! D48   D(22,7,8,9)           179.753          estimate D2E/DX2                !
 ! D49   D(22,7,8,24)          -57.2551         estimate D2E/DX2                !
 ! D50   D(22,7,8,25)           56.2492         estimate D2E/DX2                !
 ! D51   D(23,7,8,9)            66.5711         estimate D2E/DX2                !
 ! D52   D(23,7,8,24)         -170.4371         estimate D2E/DX2                !
 ! D53   D(23,7,8,25)          -56.9328         estimate D2E/DX2                !
 ! D54   D(7,8,9,10)           -67.1159         estimate D2E/DX2                !
 ! D55   D(7,8,9,26)            59.5248         estimate D2E/DX2                !
 ! D56   D(7,8,9,27)           172.8729         estimate D2E/DX2                !
 ! D57   D(24,8,9,10)          169.8635         estimate D2E/DX2                !
 ! D58   D(24,8,9,26)          -63.4958         estimate D2E/DX2                !
 ! D59   D(24,8,9,27)           49.8523         estimate D2E/DX2                !
 ! D60   D(25,8,9,10)           56.3169         estimate D2E/DX2                !
 ! D61   D(25,8,9,26)         -177.0425         estimate D2E/DX2                !
 ! D62   D(25,8,9,27)          -63.6943         estimate D2E/DX2                !
 ! D63   D(8,9,10,11)           89.8091         estimate D2E/DX2                !
 ! D64   D(8,9,10,28)         -149.9656         estimate D2E/DX2                !
 ! D65   D(8,9,10,29)          -35.1366         estimate D2E/DX2                !
 ! D66   D(26,9,10,11)         -36.874          estimate D2E/DX2                !
 ! D67   D(26,9,10,28)          83.3513         estimate D2E/DX2                !
 ! D68   D(26,9,10,29)        -161.8197         estimate D2E/DX2                !
 ! D69   D(27,9,10,11)        -150.5356         estimate D2E/DX2                !
 ! D70   D(27,9,10,28)         -30.3103         estimate D2E/DX2                !
 ! D71   D(27,9,10,29)          84.5187         estimate D2E/DX2                !
 ! D72   D(9,10,11,30)          55.9721         estimate D2E/DX2                !
 ! D73   D(9,10,11,31)         175.3295         estimate D2E/DX2                !
 ! D74   D(9,10,11,32)         -64.9762         estimate D2E/DX2                !
 ! D75   D(28,10,11,30)        -64.6944         estimate D2E/DX2                !
 ! D76   D(28,10,11,31)         54.663          estimate D2E/DX2                !
 ! D77   D(28,10,11,32)        174.3573         estimate D2E/DX2                !
 ! D78   D(29,10,11,30)       -178.9774         estimate D2E/DX2                !
 ! D79   D(29,10,11,31)        -59.6199         estimate D2E/DX2                !
 ! D80   D(29,10,11,32)         60.0743         estimate D2E/DX2                !
 --------------------------------------------------------------------------------
 Trust Radius=3.00D-01 FncErr=1.00D-07 GrdErr=1.00D-06 EigMax=2.50D+02 EigMin=1.00D-04
 Number of steps in this run=    179 maximum allowed number of steps=    192.
 GradGradGradGradGradGradGradGradGradGradGradGradGradGradGradGradGradGrad

                          Input orientation:                          
 ---------------------------------------------------------------------
 Center     Atomic      Atomic             Coordinates (Angstroms)
 Number     Number       Type             X           Y           Z
 ---------------------------------------------------------------------
      1          8           0        5.737500   -1.045000   -0.584400
      2          6           0        4.695200   -0.335500   -0.099900
      3          6           0        3.697000   -1.202000    0.664300
      4          6           0        3.060100   -2.348200   -0.159900
      5          6           0        2.190900   -1.868600   -1.342200
      6          6           0        1.473700   -3.004000   -2.102000
      7          6           0        2.397200   -4.052200   -2.763800
      8          6           0        3.429800   -3.494100   -3.766400
      9          6           0        2.871700   -2.685000   -4.959400
     10          6           0        2.038700   -3.486000   -5.984100
     11          6           0        0.532900   -3.548900   -5.679300
     12          8           0        4.581000    0.872600   -0.244200
     13          1           0        6.277000   -0.391900   -1.030500
     14          1           0        2.921200   -0.552200    1.069500
     15          1           0        4.227200   -1.609700    1.524200
     16          1           0        3.845000   -3.017100   -0.518500
     17          1           0        2.444400   -2.955600    0.505800
     18          1           0        1.437900   -1.172300   -0.969000
     19          1           0        2.795300   -1.290300   -2.042500
     20          1           0        0.794000   -3.515700   -1.418500
     21          1           0        0.830100   -2.561700   -2.863400
     22          1           0        2.930000   -4.599300   -1.985100
     23          1           0        1.789300   -4.810000   -3.257300
     24          1           0        4.138600   -2.867000   -3.223100
     25          1           0        4.027500   -4.322200   -4.150800
     26          1           0        2.311500   -1.818000   -4.606100
     27          1           0        3.728500   -2.262500   -5.487200
     28          1           0        2.157700   -3.020100   -6.964000
     29          1           0        2.441300   -4.494400   -6.093200
     30          1           0        0.106400   -2.549800   -5.584100
     31          1           0       -0.002400   -4.056700   -6.482300
     32          1           0        0.317700   -4.090100   -4.760100
 ---------------------------------------------------------------------
                    Distance matrix (angstroms):
                    1          2          3          4          5
     1  O    0.000000
     2  C    1.350748   0.000000
     3  C    2.397403   1.526836   0.000000
     4  C    3.007823   2.593861   1.548781   0.000000
     5  C    3.718998   3.188295   2.595907   1.543813   0.000000
     6  C    4.931610   4.637603   3.980287   2.592005   1.542986
     7  C    4.995062   5.117717   4.643812   3.181721   2.613736
     8  C    4.631273   5.002121   4.995620   3.802185   3.170784
     9  C    5.481153   5.697372   5.874216   4.814990   3.770164
    10  C    6.985439   7.183763   7.222731   6.021557   4.917965
    11  C    7.701648   7.666837   7.467311   6.188069   4.937895
    12  O    2.265043   1.222035   2.431212   3.562835   3.798995
    13  H    0.957395   1.836107   3.191396   3.864389   4.355917
    14  H    3.302996   2.135774   1.090088   2.180902   2.842982
    15  H    2.654446   2.116674   1.089385   2.178003   3.525592
    16  H    2.734059   2.844125   2.171522   1.091828   2.175679
    17  H    3.960232   3.506836   2.160843   1.091411   2.158920
    18  H    4.318644   3.473553   2.787846   2.160768   1.091385
    19  H    3.292836   2.880097   2.854405   2.175650   1.090940
    20  H    5.589121   5.203051   4.256603   2.842946   2.161039
    21  H    5.619323   5.247085   4.744741   3.511039   2.155508
    22  H    4.740998   4.984967   4.375986   2.900988   2.901088
    23  H    6.075187   6.199563   5.660029   4.155632   3.532807
    24  H    3.583141   4.058654   4.251954   3.288694   2.885849
    25  H    5.136472   5.722708   5.747179   4.556295   4.157101
    26  H    5.339389   5.309018   5.484176   4.539847   3.266519
    27  H    5.436528   5.802658   6.242324   5.369751   4.438513
    28  H    7.577287   7.794989   7.991614   6.896488   5.738614
    29  H    7.287673   7.635192   7.621055   6.339806   5.434108
    30  H    7.679239   7.485764   7.331540   6.179558   4.775237
    31  H    8.763676   8.754987   8.538663   7.229842   6.001581
    32  H    7.488881   7.414647   7.013195   5.631768   4.486199
                    6          7          8          9         10
     6  C    0.000000
     7  C    1.545818   0.000000
     8  C    2.614718   1.543679   0.000000
     9  C    3.197014   2.629647   1.545758   0.000000
    10  C    3.952499   3.289291   2.617903   1.544506   0.000000
    11  C    3.738863   3.497008   3.471919   2.595104   1.537626
    12  O    5.304221   5.947354   5.727061   6.149092   7.642456
    13  H    5.571613   5.608473   5.021488   5.682485   7.216287
    14  H    4.262041   5.217161   5.683254   6.395226   7.690206
    15  H    4.761844   5.263236   5.672500   6.710493   8.042674
    16  H    2.851440   2.865123   3.308893   4.558420   5.775411
    17  H    2.783024   3.448919   4.417317   5.488554   6.524164
    18  H    2.154088   3.526384   4.145343   4.501926   5.555663
    19  H    2.164933   2.882160   2.868999   3.234089   4.574905
    20  H    1.091330   2.160536   3.529949   4.188660   4.732321
    21  H    1.090679   2.165020   2.905722   2.928575   3.471860
    22  H    2.163205   1.090673   2.155063   3.537570   4.245686
    23  H    2.167016   1.089654   2.163797   2.929908   3.041482
    24  H    2.894361   2.155952   1.091250   2.157058   3.523615
    25  H    3.529466   2.157440   1.091219   2.161049   2.831174
    26  H    2.894654   2.897078   2.182888   1.091024   2.180717
    27  H    4.134432   3.520269   2.137104   1.091414   2.144595
    28  H    4.909904   4.331775   3.473839   2.154184   1.091525
    29  H    4.368892   3.358927   2.718774   2.178227   1.091265
    30  H    3.768399   3.931801   3.903937   2.838206   2.184091
    31  H    4.740683   4.425533   4.412780   3.530048   2.177152
    32  H    3.095391   2.882875   3.320816   2.921805   2.196578
                   11         12         13         14         15
    11  C    0.000000
    12  O    8.091791   0.000000
    13  H    8.035712   2.256910   0.000000
    14  H    7.760830   2.551627   3.961955   0.000000
    15  H    8.324588   3.068261   3.494454   1.740889   0.000000
    16  H    6.155215   3.968212   3.615030   3.074229   2.509875
    17  H    6.500869   4.447772   4.860206   2.514245   2.454987
    18  H    5.352960   3.819166   4.902009   2.596187   3.766638
    19  H    4.842111   3.331778   3.735439   3.200810   3.856644
    20  H    4.268922   5.914180   6.322338   4.415592   4.907054
    21  H    2.998697   5.720479   6.142986   4.886562   5.630064
    22  H    4.527311   5.974799   5.460392   5.070471   4.789115
    23  H    3.005827   7.011726   6.679648   6.175051   6.248841
    24  H    4.415765   4.801476   3.937813   5.026607   4.911773
    25  H    3.891855   6.523330   5.499435   6.533631   6.293104
    26  H    2.703921   5.605009   5.526651   5.846915   6.426031
    27  H    3.450157   6.168035   5.464080   6.824015   7.059361
    28  H    2.137770   8.135183   7.686514   8.438636   8.849949
    29  H    2.169625   8.221545   7.561351   8.189964   8.338808
    30  H    1.090489   7.762049   7.966688   7.495592   8.269988
    31  H    1.090512   9.177115   9.087560   8.823754   9.379838
    32  H    1.088181   7.949684   7.943542   7.299259   7.805703
                   16         17         18         19         20
    16  H    0.000000
    17  H    1.736276   0.000000
    18  H    3.066002   2.523536   0.000000
    19  H    2.531064   3.064341   1.734607   0.000000
    20  H    3.219814   2.596240   2.471473   3.057284   0.000000
    21  H    3.846501   3.756678   2.426645   2.480392   1.731807
    22  H    2.343394   3.023597   3.873390   3.312238   2.461244
    23  H    3.865413   4.246043   4.311921   3.856950   2.459069
    24  H    2.724627   4.096689   3.904709   2.384167   3.855352
    25  H    3.863961   5.104677   5.172209   3.893028   4.309458
    26  H    4.527465   5.238637   3.795866   2.661686   3.917370
    27  H    5.027024   6.168091   5.181652   3.698918   5.170698
    28  H    6.662692   7.475578   6.314468   5.255464   5.732178
    29  H    5.935492   6.776040   6.188747   5.176847   5.052155
    30  H    6.313145   6.535886   4.996954   4.621629   4.331048
    31  H    7.172877   7.485506   6.386760   5.932278   5.154513
    32  H    5.619995   5.791342   4.913333   4.621984   3.423899
                   21         22         23         24         25
    21  H    0.000000
    22  H    3.054964   0.000000
    23  H    2.475899   1.721651   0.000000
    24  H    3.341970   2.448310   3.048873   0.000000
    25  H    3.870417   2.443675   2.458827   1.729329   0.000000
    26  H    2.405128   3.871410   3.323254   2.520195   3.069686
    27  H    3.921042   4.285200   3.901629   2.379023   2.473405
    28  H    4.334463   5.280129   4.132685   4.235769   3.620181
    29  H    4.094252   4.138395   2.926950   3.710355   2.513683
    30  H    2.815332   5.012581   3.654402   4.683329   4.535502
    31  H    4.003064   5.396128   3.765405   5.402375   4.663312
    32  H    2.489183   3.844999   2.223122   4.296233   3.766661
                   26         27         28         29         30
    26  H    0.000000
    27  H    1.726791   0.000000
    28  H    2.651111   2.285237   0.000000
    29  H    3.064544   2.646790   1.735593   0.000000
    30  H    2.520810   3.634768   2.516573   3.080975   0.000000
    31  H    3.726397   4.257815   2.443892   2.512897   1.757654
    32  H    3.026779   3.937303   3.063931   2.539742   1.759587
                   31         32
    31  H    0.000000
    32  H    1.752014   0.000000
 Stoichiometry    C10H20O2
 Framework group  C1[X(C10H20O2)]
 Deg. of freedom    90
 Full point group                 C1      NOp   1
 Largest Abelian subgroup         C1      NOp   1
 Largest concise Abelian subgroup C1      NOp   1
                         Standard orientation:                         
 ---------------------------------------------------------------------
 Center     Atomic      Atomic             Coordinates (Angstroms)
 Number     Number       Type             X           Y           Z
 ---------------------------------------------------------------------
      1          8           0        3.038090   -1.329889    0.860159
      2          6           0        3.296305   -0.580200   -0.233372
      3          6           0        3.087465    0.912151    0.012599
      4          6           0        1.655366    1.309361    0.448533
      5          6           0        0.571231    1.030357   -0.614560
      6          6           0       -0.839302    1.518374   -0.223358
      7          6           0       -1.439152    0.876784    1.048687
      8          6           0       -1.541647   -0.663427    1.034898
      9          6           0       -2.354928   -1.294581   -0.118180
     10          6           0       -3.873289   -1.011991   -0.103245
     11          6           0       -4.298778    0.253879   -0.865365
     12          8           0        3.675514   -1.051054   -1.295382
     13          1           0        3.207693   -2.227342    0.573075
     14          1           0        3.369286    1.449928   -0.892755
     15          1           0        3.806428    1.209503    0.775117
     16          1           0        1.405539    0.800361    1.381589
     17          1           0        1.646920    2.373985    0.688701
     18          1           0        0.858332    1.515080   -1.549300
     19          1           0        0.534610   -0.035777   -0.842965
     20          1           0       -0.817948    2.601827   -0.094225
     21          1           0       -1.513193    1.346326   -1.063507
     22          1           0       -0.845480    1.177475    1.912809
     23          1           0       -2.424557    1.301563    1.238120
     24          1           0       -0.532865   -1.079159    1.016095
     25          1           0       -1.962342   -0.994819    1.985662
     26          1           0       -1.925426   -1.023124   -1.083671
     27          1           0       -2.218664   -2.375342   -0.050556
     28          1           0       -4.385901   -1.860251   -0.560531
     29          1           0       -4.240527   -0.972281    0.923604
     30          1           0       -3.956768    0.226267   -1.900466
     31          1           0       -5.385199    0.346507   -0.883374
     32          1           0       -3.908417    1.162572   -0.411459
 ---------------------------------------------------------------------
 Rotational constants (GHZ):           1.5796123           0.3500142           0.3263905
 Standard basis: 6-31G(d,p) (6D, 7F)
 There are   280 symmetry adapted cartesian basis functions of A   symmetry.
 There are   280 symmetry adapted basis functions of A   symmetry.
   280 basis functions,   476 primitive gaussians,   280 cartesian basis functions
    48 alpha electrons       48 beta electrons
       nuclear repulsion energy       730.3611954874 Hartrees.
 NAtoms=   32 NActive=   32 NUniq=   32 SFac= 1.00D+00 NAtFMM=   60 NAOKFM=F Big=F
 Integral buffers will be    131072 words long.
 Raffenetti 2 integral format.
 Two-electron integral symmetry is turned on.
 Nuclear repulsion after empirical dispersion term =      730.3109667743 Hartrees.
 One-electron integrals computed using PRISM.
 NBasis=   280 RedAO= T EigKep=  3.37D-03  NBF=   280
 NBsUse=   280 1.00D-06 EigRej= -1.00D+00 NBFU=   280
 ExpMin= 1.61D-01 ExpMax= 5.48D+03 ExpMxC= 8.25D+02 IAcc=3 IRadAn=         5 AccDes= 0.00D+00
 Harris functional with IExCor=  402 and IRadAn=       5 diagonalized for initial guess.
 HarFok:  IExCor=  402 AccDes= 0.00D+00 IRadAn=         5 IDoV= 1 UseB2=F ITyADJ=14
 ICtDFT=  3500011 ScaDFX=  1.000000  1.000000  1.000000  1.000000
 FoFCou: FMM=F IPFlag=           0 FMFlag=      100000 FMFlg1=           0
         NFxFlg=           0 DoJE=T BraDBF=F KetDBF=T FulRan=T
         wScrn=  0.000000 ICntrl=       500 IOpCl=  0 I1Cent=   200000004 NGrid=           0
         NMat0=    1 NMatS0=      1 NMatT0=    0 NMatD0=    1 NMtDS0=    0 NMtDT0=    0
 Petite list used in FoFCou.
 Requested convergence on RMS density matrix=1.00D-08 within 128 cycles.
 Requested convergence on MAX density matrix=1.00D-06.
 Requested convergence on             energy=1.00D-06.
 No special actions if energy rises.
 Integral accuracy reduced to 1.0D-05 until final iterations.
 Initial convergence to 1.0D-05 achieved.  Increase integral accuracy.
 SCF Done:  E(RB3LYP) =  -543.661856708     A.U. after   13 cycles
            NFock= 13  Conv=0.87D-08     -V/T= 2.0096

 **********************************************************************

            Population analysis using the SCF Density.

 **********************************************************************

 Orbital symmetries:
       Occupied  (A) (A) (A) (A) (A) (A) (A) (A) (A) (A) (A) (A)
                 (A) (A) (A) (A) (A) (A) (A) (A) (A) (A) (A) (A)
                 (A) (A) (A) (A) (A) (A) (A) (A) (A) (A) (A) (A)
                 (A) (A) (A) (A) (A) (A) (A) (A) (A) (A) (A) (A)
       Virtual   (A) (A) (A) (A) (A) (A) (A) (A) (A) (A) (A) (A)
                 (A) (A) (A) (A) (A) (A) (A) (A) (A) (A) (A) (A)
                 (A) (A) (A) (A) (A) (A) (A) (A) (A) (A) (A) (A)
                 (A) (A) (A) (A) (A) (A) (A) (A) (A) (A) (A) (A)
                 (A) (A) (A) (A) (A) (A) (A) (A) (A) (A) (A) (A)
                 (A) (A) (A) (A) (A) (A) (A) (A) (A) (A) (A) (A)
                 (A) (A) (A) (A) (A) (A) (A) (A) (A) (A) (A) (A)
                 (A) (A) (A) (A) (A) (A) (A) (A) (A) (A) (A) (A)
                 (A) (A) (A) (A) (A) (A) (A) (A) (A) (A) (A) (A)
                 (A) (A) (A) (A) (A) (A) (A) (A) (A) (A) (A) (A)
                 (A) (A) (A) (A) (A) (A) (A) (A) (A) (A) (A) (A)
                 (A) (A) (A) (A) (A) (A) (A) (A) (A) (A) (A) (A)
                 (A) (A) (A) (A) (A) (A) (A) (A) (A) (A) (A) (A)
                 (A) (A) (A) (A) (A) (A) (A) (A) (A) (A) (A) (A)
                 (A) (A) (A) (A) (A) (A) (A) (A) (A) (A) (A) (A)
                 (A) (A) (A) (A) (A) (A) (A) (A) (A) (A) (A) (A)
                 (A) (A) (A) (A) (A) (A) (A) (A) (A) (A) (A) (A)
                 (A) (A) (A) (A) (A) (A) (A) (A) (A) (A) (A) (A)
                 (A) (A) (A) (A) (A) (A) (A) (A) (A) (A) (A) (A)
                 (A) (A) (A) (A)
 The electronic state is 1-A.
 Alpha  occ. eigenvalues --  -19.19967 -19.13624 -10.32012 -10.19927 -10.19050
 Alpha  occ. eigenvalues --  -10.18060 -10.17780 -10.17690 -10.17573 -10.17527
 Alpha  occ. eigenvalues --  -10.17472 -10.16915  -1.10773  -1.01034  -0.81316
 Alpha  occ. eigenvalues --   -0.79325  -0.76340  -0.72648  -0.68818  -0.65100
 Alpha  occ. eigenvalues --   -0.61788  -0.59770  -0.57648  -0.54187  -0.48517
 Alpha  occ. eigenvalues --   -0.48127  -0.47169  -0.46651  -0.45453  -0.43863
 Alpha  occ. eigenvalues --   -0.42839  -0.41913  -0.40679  -0.39875  -0.39192
 Alpha  occ. eigenvalues --   -0.38090  -0.37178  -0.36857  -0.35435  -0.34738
 Alpha  occ. eigenvalues --   -0.33349  -0.33113  -0.32348  -0.31521  -0.30813
 Alpha  occ. eigenvalues --   -0.30322  -0.30139  -0.26847
 Alpha virt. eigenvalues --    0.00810   0.06938   0.08297   0.10719   0.11012
 Alpha virt. eigenvalues --    0.11306   0.12702   0.13240   0.13816   0.14860
 Alpha virt. eigenvalues --    0.16683   0.16806   0.17156   0.18138   0.18463
 Alpha virt. eigenvalues --    0.18703   0.19415   0.20282   0.21095   0.21554
 Alpha virt. eigenvalues --    0.21974   0.22616   0.23242   0.23517   0.24671
 Alpha virt. eigenvalues --    0.25472   0.25970   0.28437   0.28656   0.31190
 Alpha virt. eigenvalues --    0.32357   0.35951   0.48520   0.49120   0.50626
 Alpha virt. eigenvalues --    0.51753   0.52795   0.53119   0.54366   0.55130
 Alpha virt. eigenvalues --    0.55793   0.58189   0.59865   0.61184   0.63508
 Alpha virt. eigenvalues --    0.63941   0.64684   0.65386   0.65957   0.66814
 Alpha virt. eigenvalues --    0.69180   0.70098   0.71445   0.71738   0.73032
 Alpha virt. eigenvalues --    0.74461   0.75903   0.78436   0.79927   0.82708
 Alpha virt. eigenvalues --    0.82890   0.84099   0.84867   0.86007   0.86390
 Alpha virt. eigenvalues --    0.86882   0.87595   0.89337   0.90151   0.90734
 Alpha virt. eigenvalues --    0.91417   0.92386   0.92979   0.94447   0.94731
 Alpha virt. eigenvalues --    0.95497   0.96179   0.97702   0.97956   0.98703
 Alpha virt. eigenvalues --    1.00324   1.00861   1.02767   1.03722   1.04423
 Alpha virt. eigenvalues --    1.05340   1.07435   1.08294   1.10840   1.11955
 Alpha virt. eigenvalues --    1.17085   1.24360   1.27997   1.30500   1.34054
 Alpha virt. eigenvalues --    1.36985   1.38515   1.39958   1.44885   1.46862
 Alpha virt. eigenvalues --    1.49041   1.51542   1.54612   1.57096   1.58115
 Alpha virt. eigenvalues --    1.59572   1.60310   1.62559   1.64991   1.68063
 Alpha virt. eigenvalues --    1.69063   1.70368   1.72685   1.74763   1.76241
 Alpha virt. eigenvalues --    1.77708   1.79092   1.80558   1.81302   1.81626
 Alpha virt. eigenvalues --    1.82557   1.84130   1.86339   1.87397   1.87571
 Alpha virt. eigenvalues --    1.90484   1.91328   1.94180   1.95591   1.96044
 Alpha virt. eigenvalues --    1.97983   2.00165   2.03671   2.04924   2.06687
 Alpha virt. eigenvalues --    2.09103   2.11821   2.13000   2.14439   2.14811
 Alpha virt. eigenvalues --    2.17526   2.17756   2.19445   2.20102   2.22137
 Alpha virt. eigenvalues --    2.22771   2.24646   2.26101   2.26713   2.26819
 Alpha virt. eigenvalues --    2.27672   2.28689   2.29071   2.31354   2.32750
 Alpha virt. eigenvalues --    2.33481   2.35211   2.36028   2.39063   2.40830
 Alpha virt. eigenvalues --    2.43020   2.43427   2.45321   2.45818   2.48851
 Alpha virt. eigenvalues --    2.51187   2.52630   2.55453   2.56400   2.56562
 Alpha virt. eigenvalues --    2.59283   2.60837   2.62653   2.64933   2.67373
 Alpha virt. eigenvalues --    2.68536   2.69848   2.70806   2.72109   2.72755
 Alpha virt. eigenvalues --    2.73912   2.76989   2.78926   2.79676   2.81407
 Alpha virt. eigenvalues --    2.83507   2.86060   2.87865   2.88573   2.89205
 Alpha virt. eigenvalues --    2.89731   2.91010   2.91612   2.92145   2.92388
 Alpha virt. eigenvalues --    2.92847   2.95101   2.95383   3.02249   3.11359
 Alpha virt. eigenvalues --    3.21011   3.27106   3.30483   3.31165   3.32760
 Alpha virt. eigenvalues --    3.33893   3.35155   3.35697   3.39219   3.40161
 Alpha virt. eigenvalues --    3.41419   3.43638   3.46922   3.48475   3.50621
 Alpha virt. eigenvalues --    3.53790   3.56026   3.57187   3.58856   3.60030
 Alpha virt. eigenvalues --    3.91994   4.13893   4.23116   4.28130   4.34393
 Alpha virt. eigenvalues --    4.43325   4.55134   4.63881   4.65393   4.67449
 Alpha virt. eigenvalues --    4.69843   4.75780
          Condensed to atoms (all electrons):
               1          2          3          4          5          6
     1  O    8.123043   0.243590  -0.099318   0.004099  -0.000988   0.000000
     2  C    0.243590   4.381358   0.348114  -0.029890  -0.000810   0.000119
     3  C   -0.099318   0.348114   5.096760   0.337327  -0.043330   0.003735
     4  C    0.004099  -0.029890   0.337327   4.917436   0.375185  -0.038059
     5  C   -0.000988  -0.000810  -0.043330   0.375185   4.916949   0.371317
     6  C    0.000000   0.000119   0.003735  -0.038059   0.371317   4.914192
     7  C    0.000001  -0.000016   0.000134  -0.004059  -0.043747   0.375158
     8  C   -0.000159  -0.000008   0.000032  -0.001961  -0.002595  -0.045041
     9  C    0.000001  -0.000001   0.000000   0.000121  -0.002094  -0.002471
    10  C   -0.000000   0.000000   0.000000  -0.000003   0.000107  -0.000907
    11  C    0.000000   0.000000   0.000000  -0.000000   0.000014  -0.001205
    12  O   -0.083471   0.571394  -0.072370   0.000140   0.000784   0.000005
    13  H    0.268295  -0.009224   0.010827  -0.000303  -0.000073   0.000001
    14  H    0.003360  -0.032660   0.376735  -0.032444  -0.005619   0.000031
    15  H    0.001673  -0.025949   0.356177  -0.023540   0.004531  -0.000125
    16  H    0.004929  -0.008725  -0.033997   0.384474  -0.038241  -0.004624
    17  H    0.000017   0.003675  -0.030169   0.378895  -0.042883  -0.002691
    18  H    0.000022  -0.000935  -0.003025  -0.041265   0.379750  -0.031756
    19  H    0.000307   0.005859  -0.004909  -0.039837   0.383540  -0.036200
    20  H   -0.000000   0.000003   0.000002  -0.007114  -0.039115   0.377506
    21  H    0.000000   0.000001  -0.000142   0.004582  -0.033573   0.380014
    22  H   -0.000004   0.000002  -0.000074   0.003501  -0.007254  -0.039030
    23  H   -0.000000   0.000000  -0.000001   0.000042   0.005023  -0.034699
    24  H    0.001080   0.000146  -0.000190   0.000187   0.003551  -0.007609
    25  H    0.000000  -0.000001   0.000001   0.000022  -0.000004   0.005129
    26  H   -0.000000  -0.000003   0.000002  -0.000001   0.000063   0.003238
    27  H   -0.000000   0.000000  -0.000000  -0.000002   0.000031  -0.000019
    28  H   -0.000000  -0.000000   0.000000   0.000000  -0.000000  -0.000009
    29  H    0.000000  -0.000000   0.000000   0.000000  -0.000001   0.000052
    30  H    0.000000   0.000000  -0.000000  -0.000000   0.000007  -0.000338
    31  H    0.000000   0.000000  -0.000000   0.000000  -0.000001   0.000062
    32  H   -0.000000  -0.000000   0.000000  -0.000000   0.000012  -0.000589
               7          8          9         10         11         12
     1  O    0.000001  -0.000159   0.000001  -0.000000   0.000000  -0.083471
     2  C   -0.000016  -0.000008  -0.000001   0.000000   0.000000   0.571394
     3  C    0.000134   0.000032   0.000000   0.000000   0.000000  -0.072370
     4  C   -0.004059  -0.001961   0.000121  -0.000003  -0.000000   0.000140
     5  C   -0.043747  -0.002595  -0.002094   0.000107   0.000014   0.000784
     6  C    0.375158  -0.045041  -0.002471  -0.000907  -0.001205   0.000005
     7  C    4.919224   0.374473  -0.046454  -0.001335  -0.000588   0.000000
     8  C    0.374473   4.908723   0.378865  -0.040021  -0.000940   0.000000
     9  C   -0.046454   0.378865   4.908698   0.374815  -0.042981   0.000000
    10  C   -0.001335  -0.040021   0.374815   4.869452   0.376905  -0.000000
    11  C   -0.000588  -0.000940  -0.042981   0.376905   4.917500  -0.000000
    12  O    0.000000   0.000000   0.000000  -0.000000  -0.000000   8.038103
    13  H   -0.000000   0.000005  -0.000000   0.000000  -0.000000   0.011502
    14  H    0.000003  -0.000001   0.000000  -0.000000  -0.000000   0.001627
    15  H    0.000004  -0.000000   0.000000  -0.000000   0.000000   0.001898
    16  H    0.002788   0.000124  -0.000003   0.000000  -0.000000   0.000017
    17  H   -0.000932   0.000107  -0.000003   0.000000  -0.000000  -0.000082
    18  H    0.004940   0.000017   0.000015  -0.000001   0.000001   0.000033
    19  H   -0.007748   0.003745   0.000254   0.000001  -0.000006  -0.000080
    20  H   -0.034099   0.005043   0.000015   0.000015  -0.000014  -0.000000
    21  H   -0.038870  -0.006587   0.003376  -0.000863   0.001844   0.000000
    22  H    0.377650  -0.034320   0.005113  -0.000128   0.000082  -0.000000
    23  H    0.379804  -0.038691  -0.006198   0.003935  -0.002029   0.000000
    24  H   -0.039204   0.376662  -0.035293   0.004866  -0.000129  -0.000005
    25  H   -0.034527   0.378296  -0.038176  -0.008221  -0.000071  -0.000000
    26  H   -0.008025  -0.038290   0.383978  -0.041120  -0.008812  -0.000000
    27  H    0.005383  -0.033474   0.374968  -0.035414   0.004881   0.000000
    28  H   -0.000030   0.004303  -0.033697   0.384426  -0.040590   0.000000
    29  H   -0.000325  -0.007710  -0.041906   0.386325  -0.038568   0.000000
    30  H    0.000092  -0.000091  -0.006406  -0.033814   0.387602   0.000000
    31  H   -0.000029  -0.000070   0.004442  -0.029018   0.377198   0.000000
    32  H   -0.000589   0.000970  -0.002382  -0.036531   0.389096   0.000000
              13         14         15         16         17         18
     1  O    0.268295   0.003360   0.001673   0.004929   0.000017   0.000022
     2  C   -0.009224  -0.032660  -0.025949  -0.008725   0.003675  -0.000935
     3  C    0.010827   0.376735   0.356177  -0.033997  -0.030169  -0.003025
     4  C   -0.000303  -0.032444  -0.023540   0.384474   0.378895  -0.041265
     5  C   -0.000073  -0.005619   0.004531  -0.038241  -0.042883   0.379750
     6  C    0.000001   0.000031  -0.000125  -0.004624  -0.002691  -0.031756
     7  C   -0.000000   0.000003   0.000004   0.002788  -0.000932   0.004940
     8  C    0.000005  -0.000001  -0.000000   0.000124   0.000107   0.000017
     9  C   -0.000000   0.000000   0.000000  -0.000003  -0.000003   0.000015
    10  C    0.000000  -0.000000  -0.000000   0.000000   0.000000  -0.000001
    11  C   -0.000000  -0.000000   0.000000  -0.000000  -0.000000   0.000001
    12  O    0.011502   0.001627   0.001898   0.000017  -0.000082   0.000033
    13  H    0.400788  -0.000319  -0.000475  -0.000194   0.000016   0.000000
    14  H   -0.000319   0.587140  -0.032206   0.005141  -0.003757   0.004846
    15  H   -0.000475  -0.032206   0.600788  -0.002793  -0.005419   0.000003
    16  H   -0.000194   0.005141  -0.002793   0.608538  -0.038075   0.005838
    17  H    0.000016  -0.003757  -0.005419  -0.038075   0.636502  -0.005397
    18  H    0.000000   0.004846   0.000003   0.005838  -0.005397   0.639670
    19  H    0.000064  -0.000307  -0.000011  -0.005722   0.006036  -0.039209
    20  H    0.000000  -0.000002  -0.000001  -0.000307   0.005336  -0.004160
    21  H   -0.000000  -0.000006   0.000002  -0.000014  -0.000025  -0.003688
    22  H    0.000000  -0.000001   0.000005   0.001485   0.000448  -0.000032
    23  H    0.000000   0.000000  -0.000000  -0.000070  -0.000034  -0.000148
    24  H    0.000007   0.000000  -0.000002   0.001232  -0.000005  -0.000054
    25  H   -0.000000   0.000000  -0.000000  -0.000042  -0.000001  -0.000001
    26  H    0.000000   0.000000  -0.000000  -0.000002   0.000001  -0.000027
    27  H    0.000000   0.000000   0.000000   0.000000   0.000000   0.000001
    28  H   -0.000000   0.000000  -0.000000  -0.000000  -0.000000  -0.000000
    29  H    0.000000   0.000000  -0.000000   0.000000  -0.000000   0.000000
    30  H    0.000000   0.000000   0.000000   0.000000  -0.000000  -0.000000
    31  H    0.000000  -0.000000   0.000000   0.000000  -0.000000   0.000000
    32  H   -0.000000  -0.000000   0.000000  -0.000000   0.000000  -0.000000
              19         20         21         22         23         24
     1  O    0.000307  -0.000000   0.000000  -0.000004  -0.000000   0.001080
     2  C    0.005859   0.000003   0.000001   0.000002   0.000000   0.000146
     3  C   -0.004909   0.000002  -0.000142  -0.000074  -0.000001  -0.000190
     4  C   -0.039837  -0.007114   0.004582   0.003501   0.000042   0.000187
     5  C    0.383540  -0.039115  -0.033573  -0.007254   0.005023   0.003551
     6  C   -0.036200   0.377506   0.380014  -0.039030  -0.034699  -0.007609
     7  C   -0.007748  -0.034099  -0.038870   0.377650   0.379804  -0.039204
     8  C    0.003745   0.005043  -0.006587  -0.034320  -0.038691   0.376662
     9  C    0.000254   0.000015   0.003376   0.005113  -0.006198  -0.035293
    10  C    0.000001   0.000015  -0.000863  -0.000128   0.003935   0.004866
    11  C   -0.000006  -0.000014   0.001844   0.000082  -0.002029  -0.000129
    12  O   -0.000080  -0.000000   0.000000  -0.000000   0.000000  -0.000005
    13  H    0.000064   0.000000  -0.000000   0.000000   0.000000   0.000007
    14  H   -0.000307  -0.000002  -0.000006  -0.000001   0.000000   0.000000
    15  H   -0.000011  -0.000001   0.000002   0.000005  -0.000000  -0.000002
    16  H   -0.005722  -0.000307  -0.000014   0.001485  -0.000070   0.001232
    17  H    0.006036   0.005336  -0.000025   0.000448  -0.000034  -0.000005
    18  H   -0.039209  -0.004160  -0.003688  -0.000032  -0.000148  -0.000054
    19  H    0.626154   0.006025  -0.004109  -0.000026  -0.000000   0.001025
    20  H    0.006025   0.649592  -0.038491  -0.004403  -0.003038  -0.000020
    21  H   -0.004109  -0.038491   0.635634   0.006152  -0.005385  -0.000193
    22  H   -0.000026  -0.004403   0.006152   0.650617  -0.039382  -0.005809
    23  H   -0.000000  -0.003038  -0.005385  -0.039382   0.644204   0.006211
    24  H    0.001025  -0.000020  -0.000193  -0.005809   0.006211   0.647780
    25  H   -0.000086  -0.000159  -0.000013  -0.002943  -0.004709  -0.038952
    26  H    0.001535  -0.000075   0.001143   0.000014  -0.000060  -0.003264
    27  H   -0.000031  -0.000001  -0.000071  -0.000171  -0.000031  -0.004843
    28  H    0.000001   0.000000   0.000010   0.000002  -0.000064  -0.000227
    29  H    0.000001   0.000000   0.000008  -0.000081   0.000719   0.000147
    30  H   -0.000001   0.000004   0.001200  -0.000005   0.000024   0.000008
    31  H   -0.000000  -0.000002  -0.000056  -0.000001   0.000080   0.000004
    32  H    0.000007   0.000191   0.001062   0.000020   0.002907  -0.000047
              25         26         27         28         29         30
     1  O    0.000000  -0.000000  -0.000000  -0.000000   0.000000   0.000000
     2  C   -0.000001  -0.000003   0.000000  -0.000000  -0.000000   0.000000
     3  C    0.000001   0.000002  -0.000000   0.000000   0.000000  -0.000000
     4  C    0.000022  -0.000001  -0.000002   0.000000   0.000000  -0.000000
     5  C   -0.000004   0.000063   0.000031  -0.000000  -0.000001   0.000007
     6  C    0.005129   0.003238  -0.000019  -0.000009   0.000052  -0.000338
     7  C   -0.034527  -0.008025   0.005383  -0.000030  -0.000325   0.000092
     8  C    0.378296  -0.038290  -0.033474   0.004303  -0.007710  -0.000091
     9  C   -0.038176   0.383978   0.374968  -0.033697  -0.041906  -0.006406
    10  C   -0.008221  -0.041120  -0.035414   0.384426   0.386325  -0.033814
    11  C   -0.000071  -0.008812   0.004881  -0.040590  -0.038568   0.387602
    12  O   -0.000000  -0.000000   0.000000   0.000000   0.000000   0.000000
    13  H   -0.000000   0.000000   0.000000  -0.000000   0.000000   0.000000
    14  H    0.000000   0.000000   0.000000   0.000000   0.000000   0.000000
    15  H   -0.000000  -0.000000   0.000000  -0.000000  -0.000000   0.000000
    16  H   -0.000042  -0.000002   0.000000  -0.000000   0.000000   0.000000
    17  H   -0.000001   0.000001   0.000000  -0.000000  -0.000000  -0.000000
    18  H   -0.000001  -0.000027   0.000001  -0.000000   0.000000  -0.000000
    19  H   -0.000086   0.001535  -0.000031   0.000001   0.000001  -0.000001
    20  H   -0.000159  -0.000075  -0.000001   0.000000   0.000000   0.000004
    21  H   -0.000013   0.001143  -0.000071   0.000010   0.000008   0.001200
    22  H   -0.002943   0.000014  -0.000171   0.000002  -0.000081  -0.000005
    23  H   -0.004709  -0.000060  -0.000031  -0.000064   0.000719   0.000024
    24  H   -0.038952  -0.003264  -0.004843  -0.000227   0.000147   0.000008
    25  H    0.648761   0.005963  -0.003687   0.000119   0.005615   0.000013
    26  H    0.005963   0.638858  -0.039436   0.000473   0.005482   0.005050
    27  H   -0.003687  -0.039436   0.653145  -0.009426   0.000551   0.000122
    28  H    0.000119   0.000473  -0.009426   0.645527  -0.039899  -0.004646
    29  H    0.005615   0.005482   0.000551  -0.039899   0.640352   0.005350
    30  H    0.000013   0.005050   0.000122  -0.004646   0.005350   0.610262
    31  H    0.000002   0.000161  -0.000215  -0.004685  -0.002491  -0.032354
    32  H    0.000054  -0.000090  -0.000055   0.005669  -0.005467  -0.034752
              31         32
     1  O    0.000000  -0.000000
     2  C    0.000000  -0.000000
     3  C   -0.000000   0.000000
     4  C    0.000000  -0.000000
     5  C   -0.000001   0.000012
     6  C    0.000062  -0.000589
     7  C   -0.000029  -0.000589
     8  C   -0.000070   0.000970
     9  C    0.004442  -0.002382
    10  C   -0.029018  -0.036531
    11  C    0.377198   0.389096
    12  O    0.000000   0.000000
    13  H    0.000000  -0.000000
    14  H   -0.000000  -0.000000
    15  H    0.000000   0.000000
    16  H    0.000000  -0.000000
    17  H   -0.000000   0.000000
    18  H    0.000000  -0.000000
    19  H   -0.000000   0.000007
    20  H   -0.000002   0.000191
    21  H   -0.000056   0.001062
    22  H   -0.000001   0.000020
    23  H    0.000080   0.002907
    24  H    0.000004  -0.000047
    25  H    0.000002   0.000054
    26  H    0.000161  -0.000090
    27  H   -0.000215  -0.000055
    28  H   -0.004685   0.005669
    29  H   -0.002491  -0.005467
    30  H   -0.032354  -0.034752
    31  H    0.621371  -0.031585
    32  H   -0.031585   0.603256
 Mulliken charges:
               1
     1  O   -0.466475
     2  C    0.553962
     3  C   -0.242318
     4  C   -0.187533
     5  C   -0.180536
     6  C   -0.185185
     7  C   -0.179077
     8  C   -0.181408
     9  C   -0.176596
    10  C   -0.173473
    11  C   -0.319190
    12  O   -0.469495
    13  H    0.319083
    14  H    0.128438
    15  H    0.125441
    16  H    0.118243
    17  H    0.098439
    18  H    0.094564
    19  H    0.103730
    20  H    0.087270
    21  H    0.097061
    22  H    0.088575
    23  H    0.091591
    24  H    0.092939
    25  H    0.087619
    26  H    0.093244
    27  H    0.087795
    28  H    0.092743
    29  H    0.091845
    30  H    0.102675
    31  H    0.097186
    32  H    0.108844
 Sum of Mulliken charges =  -0.00000
 Mulliken charges with hydrogens summed into heavy atoms:
               1
     1  O   -0.147392
     2  C    0.553962
     3  C    0.011561
     4  C    0.029149
     5  C    0.017758
     6  C   -0.000854
     7  C    0.001089
     8  C   -0.000850
     9  C    0.004443
    10  C    0.011115
    11  C   -0.010485
    12  O   -0.469495
 Electronic spatial extent (au):  <R**2>=           3541.8631
 Charge=             -0.0000 electrons
 Dipole moment (field-independent basis, Debye):
    X=             -0.8306    Y=              0.4130    Z=              1.4975  Tot=              1.7615
 Quadrupole moment (field-independent basis, Debye-Ang):
   XX=            -80.0474   YY=            -71.5929   ZZ=            -80.4980
   XY=              2.1608   XZ=              6.4978   YZ=             -2.3077
 Traceless Quadrupole moment (field-independent basis, Debye-Ang):
   XX=             -2.6679   YY=              5.7865   ZZ=             -3.1186
   XY=              2.1608   XZ=              6.4978   YZ=             -2.3077
 Octapole moment (field-independent basis, Debye-Ang**2):
  XXX=             11.3071  YYY=            -22.8825  ZZZ=              2.1854  XYY=             24.1958
  XXY=              2.8686  XXZ=             28.1004  XZZ=             -6.0300  YZZ=              1.9244
  YYZ=              4.6864  XYZ=            -10.2590
 Hexadecapole moment (field-independent basis, Debye-Ang**3):
 XXXX=          -3648.5394 YYYY=           -623.8553 ZZZZ=           -386.4234 XXXY=              5.2077
 XXXZ=            101.0510 YYYX=            -71.9363 YYYZ=            -11.4479 ZZZX=              6.7923
 ZZZY=             -5.4020 XXYY=           -668.1023 XXZZ=           -717.0896 YYZZ=           -179.7369
 XXYZ=            -34.7448 YYXZ=             15.5813 ZZXY=              9.9145
 N-N= 7.303109667743D+02 E-N=-2.723850914597D+03  KE= 5.384739343750D+02
 Calling FoFJK, ICntrl=      2127 FMM=F ISym2X=0 I1Cent= 0 IOpClX= 0 NMat=1 NMatS=1 NMatT=0.
 ***** Axes restored to original set *****
 -------------------------------------------------------------------
 Center     Atomic                   Forces (Hartrees/Bohr)
 Number     Number              X              Y              Z
 -------------------------------------------------------------------
      1        8          -0.008329187   -0.006651533    0.004650638
      2        6          -0.019939746    0.012415088    0.008017677
      3        6           0.000211420   -0.001576053   -0.006344654
      4        6           0.001472256    0.003657513   -0.005043694
      5        6           0.001926687   -0.005493447    0.002309242
      6        6           0.006564807   -0.000376062   -0.001656207
      7        6           0.000818056    0.005402661   -0.000579487
      8        6          -0.007354569    0.003748121    0.001959153
      9        6           0.004863266   -0.007912675    0.000101648
     10        6          -0.006376891    0.006671309    0.004644881
     11        6           0.004264436   -0.002921887   -0.001853898
     12        8           0.006648739   -0.016935538   -0.001593700
     13        1           0.011507441    0.008354334   -0.008433507
     14        1          -0.000239689    0.003898430   -0.002700675
     15        1           0.003194682   -0.004670809    0.002356479
     16        1           0.002780089    0.000380422   -0.001333718
     17        1          -0.002473155   -0.000281860    0.003450659
     18        1          -0.002776275    0.002056213    0.002065710
     19        1           0.003902406    0.001644072   -0.001885716
     20        1          -0.001383300   -0.002886439    0.003445796
     21        1          -0.001040310    0.002517551   -0.002709756
     22        1           0.003549917   -0.000947903    0.003141959
     23        1          -0.004436208   -0.001296628   -0.002453361
     24        1           0.001963543    0.003811806    0.002106309
     25        1           0.000668552   -0.003867666   -0.002313145
     26        1          -0.004273423    0.001615542    0.001707894
     27        1           0.004034882    0.000726902   -0.001101938
     28        1           0.000405730    0.001996745   -0.003030015
     29        1           0.001839686   -0.003827277    0.001593064
     30        1          -0.000262879    0.003301570    0.000453481
     31        1          -0.001619819   -0.001382467   -0.002492383
     32        1          -0.000111143   -0.001170035    0.003521264
 -------------------------------------------------------------------
 Cartesian Forces:  Max     0.019939746 RMS     0.004809577

 GradGradGradGradGradGradGradGradGradGradGradGradGradGradGradGradGradGrad
 Berny optimization.
 FormGI is forming the generalized inverse of G from B-inverse, IUseBI=4.
 Internal  Forces:  Max     0.017177057 RMS     0.003101537
 Search for a local minimum.
 Step number   1 out of a maximum of  179
 All quantities printed in internal units (Hartrees-Bohrs-Radians)
 Mixed Optimization -- RFO/linear search
 Second derivative matrix not updated -- first step.
 ITU=  0
     Eigenvalues ---    0.00230   0.00230   0.00230   0.00230   0.00230
     Eigenvalues ---    0.00230   0.00230   0.00268   0.00411   0.00889
     Eigenvalues ---    0.02343   0.03013   0.03036   0.03079   0.03111
     Eigenvalues ---    0.03192   0.03232   0.03240   0.03699   0.04620
     Eigenvalues ---    0.04624   0.04643   0.04668   0.04676   0.04680
     Eigenvalues ---    0.04699   0.05162   0.05276   0.05463   0.08563
     Eigenvalues ---    0.08578   0.08663   0.08813   0.08849   0.08865
     Eigenvalues ---    0.09000   0.09764   0.12387   0.12397   0.12467
     Eigenvalues ---    0.12559   0.12585   0.12627   0.12686   0.13070
     Eigenvalues ---    0.16000   0.16000   0.16000   0.16000   0.21886
     Eigenvalues ---    0.21893   0.21894   0.21907   0.21908   0.21915
     Eigenvalues ---    0.21930   0.21960   0.24997   0.25000   0.27755
     Eigenvalues ---    0.28010   0.28015   0.28123   0.28184   0.28195
     Eigenvalues ---    0.28256   0.28730   0.29718   0.34602   0.34637
     Eigenvalues ---    0.34650   0.34650   0.34653   0.34659   0.34667
     Eigenvalues ---    0.34669   0.34672   0.34695   0.34704   0.34734
     Eigenvalues ---    0.34735   0.34754   0.34756   0.34802   0.34853
     Eigenvalues ---    0.34884   0.35024   0.54863   0.56038   0.94487
 RFO step:  Lambda=-6.58277923D-03 EMin= 2.30000000D-03
 Linear search not attempted -- first point.
 Iteration  1 RMS(Cart)=  0.13858865 RMS(Int)=  0.00245284
 Iteration  2 RMS(Cart)=  0.00523823 RMS(Int)=  0.00020092
 Iteration  3 RMS(Cart)=  0.00001461 RMS(Int)=  0.00020073
 Iteration  4 RMS(Cart)=  0.00000000 RMS(Int)=  0.00020073
 Variable       Old X    -DE/DX   Delta X   Delta X   Delta X     New X
                                 (Linear)    (Quad)   (Total)
    R1        2.55254   0.00292   0.00000   0.00526   0.00526   2.55780
    R2        1.80921   0.01611   0.00000   0.02842   0.02842   1.83763
    R3        2.88530  -0.00953   0.00000  -0.03139  -0.03139   2.85392
    R4        2.30931  -0.01718   0.00000  -0.01805  -0.01805   2.29126
    R5        2.92677  -0.00884   0.00000  -0.03110  -0.03110   2.89567
    R6        2.05997   0.00149   0.00000   0.00420   0.00420   2.06417
    R7        2.05864   0.00516   0.00000   0.01453   0.01453   2.07317
    R8        2.91738  -0.00780   0.00000  -0.02706  -0.02706   2.89032
    R9        2.06326   0.00220   0.00000   0.00625   0.00625   2.06951
   R10        2.06247   0.00366   0.00000   0.01036   0.01036   2.07282
   R11        2.91582  -0.00555   0.00000  -0.01920  -0.01920   2.89662
   R12        2.06242   0.00393   0.00000   0.01114   0.01114   2.07356
   R13        2.06158   0.00424   0.00000   0.01200   0.01200   2.07358
   R14        2.92117  -0.00621   0.00000  -0.02166  -0.02166   2.89951
   R15        2.06231   0.00437   0.00000   0.01238   0.01238   2.07470
   R16        2.06108   0.00353   0.00000   0.00997   0.00997   2.07105
   R17        2.91713  -0.00446   0.00000  -0.01547  -0.01547   2.90166
   R18        2.06107   0.00445   0.00000   0.01258   0.01258   2.07365
   R19        2.05915   0.00449   0.00000   0.01264   0.01264   2.07179
   R20        2.92106  -0.00525   0.00000  -0.01830  -0.01830   2.90276
   R21        2.06216   0.00451   0.00000   0.01278   0.01278   2.07494
   R22        2.06210   0.00412   0.00000   0.01165   0.01165   2.07375
   R23        2.91869  -0.00226   0.00000  -0.00787  -0.00787   2.91083
   R24        2.06174   0.00403   0.00000   0.01140   0.01140   2.07314
   R25        2.06247   0.00398   0.00000   0.01128   0.01128   2.07375
   R26        2.90569  -0.00221   0.00000  -0.00751  -0.00751   2.89818
   R27        2.06268   0.00362   0.00000   0.01025   0.01025   2.07293
   R28        2.06219   0.00406   0.00000   0.01148   0.01148   2.07367
   R29        2.06073   0.00317   0.00000   0.00895   0.00895   2.06967
   R30        2.06077   0.00327   0.00000   0.00924   0.00924   2.07001
   R31        2.05636   0.00358   0.00000   0.01003   0.01003   2.06639
    A1        1.81692   0.00670   0.00000   0.04023   0.04023   1.85715
    A2        1.96699  -0.00220   0.00000  -0.00823  -0.00891   1.95808
    A3        2.15200  -0.00604   0.00000  -0.02315  -0.02380   2.12820
    A4        2.16403   0.00826   0.00000   0.03252   0.03180   2.19584
    A5        2.00699  -0.00671   0.00000  -0.03845  -0.03874   1.96825
    A6        1.88918  -0.00088   0.00000  -0.02238  -0.02239   1.86679
    A7        1.86427   0.00390   0.00000   0.01903   0.01882   1.88309
    A8        1.92442   0.00403   0.00000   0.02068   0.02000   1.94442
    A9        1.92115  -0.00079   0.00000  -0.00842  -0.00850   1.91265
   A10        1.85048   0.00100   0.00000   0.03519   0.03516   1.88565
   A11        1.99234  -0.00482   0.00000  -0.02747  -0.02766   1.96467
   A12        1.90981   0.00058   0.00000  -0.01054  -0.01084   1.89896
   A13        1.89575   0.00079   0.00000   0.00312   0.00333   1.89908
   A14        1.92148   0.00133   0.00000  -0.00101  -0.00154   1.91994
   A15        1.89905   0.00222   0.00000   0.01799   0.01798   1.91703
   A16        1.83892   0.00031   0.00000   0.02224   0.02218   1.86110
   A17        1.99349  -0.00242   0.00000  -0.01378  -0.01388   1.97960
   A18        1.90157   0.00075   0.00000   0.00674   0.00684   1.90841
   A19        1.92235  -0.00064   0.00000  -0.01613  -0.01623   1.90612
   A20        1.89352   0.00112   0.00000   0.01287   0.01289   1.90641
   A21        1.90867   0.00127   0.00000   0.00165   0.00134   1.91001
   A22        1.83750   0.00016   0.00000   0.01122   0.01122   1.84871
   A23        2.01761  -0.00426   0.00000  -0.02359  -0.02368   1.99393
   A24        1.90298   0.00182   0.00000   0.00801   0.00793   1.91091
   A25        1.89614   0.00025   0.00000  -0.00485  -0.00488   1.89126
   A26        1.89893   0.00046   0.00000  -0.00170  -0.00173   1.89720
   A27        1.90566   0.00194   0.00000   0.00857   0.00841   1.91408
   A28        1.83365   0.00018   0.00000   0.01753   0.01749   1.85115
   A29        2.01809  -0.00311   0.00000  -0.01893  -0.01902   1.99907
   A30        1.90320   0.00170   0.00000   0.00673   0.00660   1.90980
   A31        1.90941  -0.00071   0.00000  -0.01018  -0.01014   1.89927
   A32        1.89472  -0.00035   0.00000  -0.00767  -0.00773   1.88699
   A33        1.90759   0.00227   0.00000   0.01335   0.01322   1.92081
   A34        1.82041   0.00058   0.00000   0.02089   0.02091   1.84132
   A35        2.03643  -0.00130   0.00000  -0.00966  -0.00973   2.02671
   A36        1.89535   0.00094   0.00000   0.00848   0.00849   1.90384
   A37        1.89739  -0.00014   0.00000  -0.00661  -0.00673   1.89067
   A38        1.89438  -0.00019   0.00000  -0.00114  -0.00110   1.89328
   A39        1.89981   0.00020   0.00000  -0.00521  -0.00532   1.89448
   A40        1.82938   0.00071   0.00000   0.01722   0.01723   1.84661
   A41        2.02118  -0.00089   0.00000  -0.00840  -0.00873   2.01245
   A42        1.92988   0.00031   0.00000  -0.01170  -0.01221   1.91768
   A43        1.86755  -0.00031   0.00000   0.00702   0.00703   1.87458
   A44        1.92841  -0.00122   0.00000  -0.02221  -0.02256   1.90585
   A45        1.87897   0.00161   0.00000   0.02257   0.02266   1.90163
   A46        1.82561   0.00077   0.00000   0.01812   0.01834   1.84394
   A47        2.00189   0.00138   0.00000   0.00402   0.00388   2.00577
   A48        1.89172  -0.00021   0.00000   0.00688   0.00680   1.89852
   A49        1.92472  -0.00152   0.00000  -0.02001  -0.02009   1.90464
   A50        1.87778   0.00010   0.00000   0.01136   0.01129   1.88907
   A51        1.92124  -0.00053   0.00000  -0.01063  -0.01075   1.91048
   A52        1.83843   0.00081   0.00000   0.01032   0.01042   1.84884
   A53        1.94211  -0.00148   0.00000  -0.01119  -0.01123   1.93089
   A54        1.93242   0.00055   0.00000   0.00600   0.00601   1.93843
   A55        1.96217  -0.00057   0.00000  -0.00380  -0.00384   1.95833
   A56        1.87437   0.00056   0.00000   0.00409   0.00411   1.87848
   A57        1.88029   0.00055   0.00000  -0.00157  -0.00165   1.87864
   A58        1.86852   0.00051   0.00000   0.00732   0.00731   1.87583
    D1       -3.13903  -0.00057   0.00000  -0.03321  -0.03226   3.11189
    D2       -0.01577   0.00059   0.00000   0.03395   0.03300   0.01723
    D3       -1.03715   0.00166   0.00000   0.07022   0.07092  -0.96623
    D4        3.08576   0.00182   0.00000   0.08783   0.08775  -3.10968
    D5        1.09990  -0.00085   0.00000   0.04843   0.04870   1.14860
    D6        2.12293   0.00066   0.00000   0.00321   0.00332   2.12625
    D7       -0.03735   0.00082   0.00000   0.02082   0.02015  -0.01720
    D8       -2.02321  -0.00184   0.00000  -0.01858  -0.01890  -2.04210
    D9       -1.11452   0.00160   0.00000   0.04465   0.04476  -1.06976
   D10        1.04746   0.00030   0.00000   0.01521   0.01553   1.06299
   D11        3.04645   0.00140   0.00000   0.03768   0.03783   3.08428
   D12        1.02698  -0.00133   0.00000   0.00293   0.00270   1.02968
   D13       -3.09423  -0.00264   0.00000  -0.02651  -0.02652  -3.12075
   D14       -1.09524  -0.00153   0.00000  -0.00405  -0.00422  -1.09946
   D15        3.06251   0.00181   0.00000   0.05313   0.05298   3.11549
   D16       -1.05869   0.00050   0.00000   0.02368   0.02375  -1.03494
   D17        0.94029   0.00161   0.00000   0.04615   0.04606   0.98635
   D18       -3.06831  -0.00097   0.00000  -0.05238  -0.05222  -3.12053
   D19       -0.94814  -0.00062   0.00000  -0.04016  -0.04006  -0.98820
   D20        1.05915  -0.00036   0.00000  -0.03177  -0.03178   1.02737
   D21        1.05918   0.00077   0.00000  -0.01748  -0.01739   1.04179
   D22       -3.10383   0.00112   0.00000  -0.00526  -0.00524  -3.10907
   D23       -1.09654   0.00139   0.00000   0.00313   0.00304  -1.09349
   D24       -0.94791  -0.00157   0.00000  -0.05366  -0.05367  -1.00158
   D25        1.17226  -0.00122   0.00000  -0.04144  -0.04152   1.13074
   D26       -3.10363  -0.00095   0.00000  -0.03305  -0.03324  -3.13687
   D27       -1.06790   0.00097   0.00000   0.02953   0.02958  -1.03832
   D28        1.07728  -0.00004   0.00000   0.01663   0.01661   1.09389
   D29        3.06664   0.00126   0.00000   0.03894   0.03888   3.10553
   D30        3.09068   0.00081   0.00000   0.02065   0.02075   3.11143
   D31       -1.04733  -0.00020   0.00000   0.00775   0.00778  -1.03955
   D32        0.94204   0.00110   0.00000   0.03006   0.03005   0.97209
   D33        1.09518  -0.00065   0.00000  -0.00040  -0.00037   1.09481
   D34       -3.04283  -0.00166   0.00000  -0.01330  -0.01334  -3.05617
   D35       -1.05346  -0.00036   0.00000   0.00900   0.00893  -1.04453
   D36       -0.99310   0.00110   0.00000   0.04080   0.04092  -0.95218
   D37        1.14704  -0.00025   0.00000   0.02241   0.02246   1.16949
   D38        3.12788   0.00097   0.00000   0.04537   0.04536  -3.10995
   D39       -3.14041   0.00138   0.00000   0.04850   0.04854  -3.09187
   D40       -1.00028   0.00003   0.00000   0.03011   0.03009  -0.97019
   D41        0.98056   0.00125   0.00000   0.05307   0.05299   1.03355
   D42        1.15051  -0.00011   0.00000   0.02413   0.02417   1.17468
   D43       -2.99254  -0.00146   0.00000   0.00574   0.00571  -2.98683
   D44       -1.01170  -0.00024   0.00000   0.02870   0.02861  -0.98309
   D45       -1.00128   0.00031   0.00000   0.00085   0.00097  -1.00031
   D46        1.14533  -0.00013   0.00000  -0.00076  -0.00069   1.14465
   D47        3.12636   0.00112   0.00000   0.02043   0.02049  -3.13634
   D48        3.13728   0.00055   0.00000   0.01148   0.01147  -3.13443
   D49       -0.99929   0.00012   0.00000   0.00987   0.00982  -0.98947
   D50        0.98173   0.00137   0.00000   0.03106   0.03100   1.01273
   D51        1.16188  -0.00111   0.00000  -0.01599  -0.01600   1.14588
   D52       -2.97469  -0.00155   0.00000  -0.01760  -0.01766  -2.99234
   D53       -0.99366  -0.00030   0.00000   0.00359   0.00352  -0.99014
   D54       -1.17139   0.00169   0.00000   0.05244   0.05238  -1.11902
   D55        1.03890  -0.00047   0.00000   0.00441   0.00445   1.04336
   D56        3.01720   0.00042   0.00000   0.02375   0.02373   3.04093
   D57        2.96468   0.00154   0.00000   0.04907   0.04902   3.01369
   D58       -1.10821  -0.00062   0.00000   0.00105   0.00109  -1.10712
   D59        0.87009   0.00027   0.00000   0.02038   0.02037   0.89046
   D60        0.98292   0.00070   0.00000   0.03211   0.03208   1.01500
   D61       -3.08997  -0.00146   0.00000  -0.01592  -0.01584  -3.10581
   D62       -1.11168  -0.00057   0.00000   0.00342   0.00344  -1.10824
   D63        1.56746  -0.00136   0.00000  -0.06390  -0.06378   1.50369
   D64       -2.61739  -0.00049   0.00000  -0.04174  -0.04161  -2.65901
   D65       -0.61325  -0.00046   0.00000  -0.03631  -0.03626  -0.64951
   D66       -0.64357   0.00003   0.00000  -0.02119  -0.02132  -0.66489
   D67        1.45475   0.00090   0.00000   0.00097   0.00085   1.45560
   D68       -2.82429   0.00093   0.00000   0.00640   0.00620  -2.81809
   D69       -2.62734  -0.00114   0.00000  -0.04364  -0.04357  -2.67091
   D70       -0.52902  -0.00027   0.00000  -0.02148  -0.02140  -0.55042
   D71        1.47513  -0.00024   0.00000  -0.01606  -0.01605   1.45908
   D72        0.97690   0.00048   0.00000   0.01901   0.01905   0.99595
   D73        3.06008   0.00058   0.00000   0.02079   0.02080   3.08088
   D74       -1.13405   0.00123   0.00000   0.03170   0.03170  -1.10235
   D75       -1.12913  -0.00021   0.00000  -0.00054  -0.00055  -1.12968
   D76        0.95405  -0.00011   0.00000   0.00124   0.00120   0.95525
   D77        3.04311   0.00054   0.00000   0.01215   0.01209   3.05520
   D78       -3.12374  -0.00094   0.00000  -0.01346  -0.01342  -3.13716
   D79       -1.04056  -0.00084   0.00000  -0.01168  -0.01167  -1.05223
   D80        1.04849  -0.00019   0.00000  -0.00077  -0.00077   1.04772
         Item               Value     Threshold  Converged?
 Maximum Force            0.017177     0.000450     NO 
 RMS     Force            0.003102     0.000300     NO 
 Maximum Displacement     0.781779     0.001800     NO 
 RMS     Displacement     0.140552     0.001200     NO 
 Predicted change in Energy=-3.614935D-03
 GradGradGradGradGradGradGradGradGradGradGradGradGradGradGradGradGradGrad

                          Input orientation:                          
 ---------------------------------------------------------------------
 Center     Atomic      Atomic             Coordinates (Angstroms)
 Number     Number       Type             X           Y           Z
 ---------------------------------------------------------------------
      1          8           0        5.549925   -1.189915   -0.892239
      2          6           0        4.607741   -0.425652   -0.292043
      3          6           0        3.677567   -1.241962    0.573521
      4          6           0        3.007058   -2.387327   -0.192358
      5          6           0        2.140238   -1.890724   -1.350530
      6          6           0        1.436413   -3.019349   -2.112365
      7          6           0        2.388867   -4.047839   -2.736289
      8          6           0        3.461183   -3.447627   -3.656953
      9          6           0        2.947032   -2.614098   -4.840340
     10          6           0        2.120228   -3.390479   -5.882592
     11          6           0        0.624552   -3.507320   -5.564171
     12          8           0        4.523773    0.766654   -0.495676
     13          1           0        6.079760   -0.589714   -1.444199
     14          1           0        2.938334   -0.551665    0.986035
     15          1           0        4.263451   -1.649920    1.406515
     16          1           0        3.783049   -3.062665   -0.567960
     17          1           0        2.395340   -2.970112    0.507167
     18          1           0        1.388166   -1.189744   -0.967076
     19          1           0        2.762769   -1.313683   -2.045891
     20          1           0        0.746758   -3.542514   -1.437072
     21          1           0        0.813263   -2.571470   -2.894796
     22          1           0        2.896707   -4.605465   -1.939242
     23          1           0        1.797357   -4.791549   -3.283077
     24          1           0        4.138473   -2.823062   -3.059603
     25          1           0        4.077508   -4.266761   -4.048633
     26          1           0        2.357108   -1.766142   -4.470884
     27          1           0        3.821330   -2.173044   -5.335640
     28          1           0        2.226321   -2.896745   -6.856381
     29          1           0        2.547355   -4.393784   -6.005464
     30          1           0        0.177346   -2.515057   -5.441962
     31          1           0        0.088373   -4.015522   -6.372967
     32          1           0        0.440553   -4.069246   -4.644336
 ---------------------------------------------------------------------
                    Distance matrix (angstroms):
                    1          2          3          4          5
     1  O    0.000000
     2  C    1.353529   0.000000
     3  C    2.378421   1.510227   0.000000
     4  C    2.896516   2.533830   1.532323   0.000000
     5  C    3.511001   3.058660   2.546810   1.529494   0.000000
     6  C    4.664389   4.483097   3.923756   2.559845   1.532826
     7  C    4.643333   4.900814   4.526426   3.100169   2.575905
     8  C    4.135668   4.665784   4.775844   3.651559   3.080329
     9  C    4.938710   5.313592   5.632613   4.653898   3.654170
[...]
 Alpha virt. eigenvalues --    4.08886   4.11170   4.12588   4.15740   4.17965
 Alpha virt. eigenvalues --    4.19004   4.20545   4.26051   4.26902   4.32617
 Alpha virt. eigenvalues --    4.34999   4.35468   4.38257   4.41172   4.44403
 Alpha virt. eigenvalues --    4.46251   4.48697   4.50196   4.52181   4.53699
 Alpha virt. eigenvalues --    4.56439   4.57421   4.58992   4.62240   4.64166
 Alpha virt. eigenvalues --    4.66270   4.68391   4.72102   4.73298   4.77658
 Alpha virt. eigenvalues --    4.78735   4.81400   4.82950   4.84608   4.90429
 Alpha virt. eigenvalues --    4.95410   4.98520   5.04768   5.17233   5.20545
 Alpha virt. eigenvalues --    5.22658   5.39619   5.40117   5.51111   5.59342
 Alpha virt. eigenvalues --    5.73533   5.85063   5.86542   6.15568   6.19736
 Alpha virt. eigenvalues --    6.33539   6.33904   6.46211   6.47827   6.64134
 Alpha virt. eigenvalues --    6.69702   6.74286   6.81022   6.89005   7.07035
 Alpha virt. eigenvalues --    7.08009   7.28191  22.44534  22.55543  22.56044
 Alpha virt. eigenvalues --   22.58134  22.60420  22.63888  22.65027  22.66314
 Alpha virt. eigenvalues --   22.69675  23.27025  43.94805  44.01975
          Condensed to atoms (all electrons):
               1          2          3          4          5          6
     1  O    7.984587   0.330527  -0.116477   0.012429   0.001239  -0.000774
     2  C    0.330527   4.531908   0.268512  -0.037845   0.016175   0.000552
     3  C   -0.116477   0.268512   5.293988   0.188569  -0.058614   0.010623
     4  C    0.012429  -0.037845   0.188569   5.320074   0.183201  -0.051851
     5  C    0.001239   0.016175  -0.058614   0.183201   5.352941   0.185499
     6  C   -0.000774   0.000552   0.010623  -0.051851   0.185499   5.352337
     7  C   -0.000025  -0.000461  -0.000201   0.036152  -0.073454   0.143304
     8  C   -0.004258   0.000369  -0.000272  -0.013093   0.047715  -0.066100
     9  C    0.000527   0.000036   0.000222  -0.000787  -0.012194   0.042013
    10  C    0.000014   0.000005   0.000000   0.000002   0.002199  -0.016431
    11  C    0.000000   0.000000  -0.000002   0.000092  -0.001792   0.003809
    12  O   -0.094121   0.674451  -0.097207   0.007378  -0.000743   0.000275
    13  H    0.285395  -0.020503   0.016969  -0.002789   0.000449  -0.000081
    14  H    0.004892  -0.056186   0.433973  -0.028711  -0.007249   0.000296
    15  H    0.003600  -0.018690   0.399590  -0.047816   0.009782  -0.000589
    16  H    0.001546  -0.012488  -0.023110   0.432678  -0.057869  -0.009367
    17  H   -0.000079   0.007349  -0.031371   0.414073  -0.042585   0.003517
    18  H    0.000201  -0.004073   0.004531  -0.043305   0.426433  -0.044399
    19  H   -0.003619   0.006081  -0.005138  -0.061493   0.433680  -0.029725
    20  H   -0.000001  -0.000056  -0.000171  -0.009206  -0.029358   0.430495
    21  H    0.000019   0.000138  -0.000764   0.010719  -0.066109   0.445952
    22  H    0.000046   0.000182   0.000423  -0.003475  -0.007016  -0.034203
    23  H   -0.000008  -0.000018   0.000032   0.000104   0.009185  -0.059944
    24  H    0.005272  -0.001394  -0.001389   0.004412   0.001371  -0.013528
    25  H    0.000097  -0.000018  -0.000015   0.000036  -0.001290   0.011906
    26  H    0.000035  -0.000053   0.000049  -0.000458  -0.001354   0.009379
    27  H    0.000060   0.000043  -0.000012   0.000012   0.000535  -0.001625
    28  H   -0.000000  -0.000000   0.000000   0.000001  -0.000043  -0.000002
    29  H   -0.000000   0.000000  -0.000000  -0.000010   0.000003   0.001624
    30  H   -0.000000   0.000000   0.000000  -0.000014   0.000140   0.001991
    31  H   -0.000000   0.000000  -0.000000   0.000000   0.000014   0.000241
    32  H   -0.000000  -0.000001   0.000003  -0.000023   0.000338  -0.011368
               7          8          9         10         11         12
     1  O   -0.000025  -0.004258   0.000527   0.000014   0.000000  -0.094121
     2  C   -0.000461   0.000369   0.000036   0.000005   0.000000   0.674451
     3  C   -0.000201  -0.000272   0.000222   0.000000  -0.000002  -0.097207
     4  C    0.036152  -0.013093  -0.000787   0.000002   0.000092   0.007378
     5  C   -0.073454   0.047715  -0.012194   0.002199  -0.001792  -0.000743
     6  C    0.143304  -0.066100   0.042013  -0.016431   0.003809   0.000275
     7  C    5.455330   0.161443  -0.059524   0.028307   0.004993   0.000001
     8  C    0.161443   5.296646   0.222046  -0.034963  -0.005210   0.000061
     9  C   -0.059524   0.222046   5.244087   0.228352  -0.035465  -0.000014
    10  C    0.028307  -0.034963   0.228352   5.165269   0.236444  -0.000000
    11  C    0.004993  -0.005210  -0.035465   0.236444   5.103727  -0.000000
    12  O    0.000001   0.000061  -0.000014  -0.000000  -0.000000   7.817443
    13  H    0.000075   0.000077   0.000043   0.000005   0.000000   0.007062
    14  H   -0.000056   0.000067  -0.000019   0.000000  -0.000000   0.008044
    15  H    0.000181  -0.000035  -0.000000  -0.000000   0.000000   0.002375
    16  H    0.009753  -0.003078  -0.000198   0.000032  -0.000015   0.000077
    17  H   -0.004769   0.000919   0.000011  -0.000004   0.000001  -0.000309
    18  H    0.011565  -0.001405   0.000051   0.000041   0.000010  -0.000340
    19  H   -0.018169   0.004671   0.000622  -0.000419   0.000232   0.000480
    20  H   -0.059228   0.010214  -0.000482  -0.000035   0.000218  -0.000002
    21  H   -0.036338  -0.007743   0.001563  -0.001694   0.001949   0.000000
    22  H    0.436943  -0.059985   0.009358  -0.001280   0.000834  -0.000002
    23  H    0.438282  -0.039519  -0.007950   0.008108  -0.014897   0.000000
    24  H   -0.033861   0.435142  -0.064112   0.009588  -0.000764  -0.000155
    25  H   -0.062324   0.438285  -0.034947  -0.011822   0.001690  -0.000001
    26  H   -0.019892  -0.037385   0.425509  -0.051626  -0.005066   0.000001
    27  H    0.011096  -0.054487   0.430290  -0.040124   0.006897  -0.000001
    28  H    0.000188   0.006449  -0.047444   0.429747  -0.042255   0.000000
    29  H   -0.009717   0.008366  -0.058283   0.422729  -0.044386  -0.000000
    30  H   -0.005373   0.003243  -0.003648  -0.052359   0.421609  -0.000000
    31  H   -0.000305  -0.000373   0.009998  -0.040434   0.412490   0.000000
    32  H    0.015109  -0.002443  -0.006021  -0.042424   0.413232   0.000000
              13         14         15         16         17         18
     1  O    0.285395   0.004892   0.003600   0.001546  -0.000079   0.000201
     2  C   -0.020503  -0.056186  -0.018690  -0.012488   0.007349  -0.004073
     3  C    0.016969   0.433973   0.399590  -0.023110  -0.031371   0.004531
     4  C   -0.002789  -0.028711  -0.047816   0.432678   0.414073  -0.043305
     5  C    0.000449  -0.007249   0.009782  -0.057869  -0.042585   0.426433
     6  C   -0.000081   0.000296  -0.000589  -0.009367   0.003517  -0.044399
     7  C    0.000075  -0.000056   0.000181   0.009753  -0.004769   0.011565
     8  C    0.000077   0.000067  -0.000035  -0.003078   0.000919  -0.001405
     9  C    0.000043  -0.000019  -0.000000  -0.000198   0.000011   0.000051
    10  C    0.000005   0.000000  -0.000000   0.000032  -0.000004   0.000041
    11  C    0.000000  -0.000000   0.000000  -0.000015   0.000001   0.000010
    12  O    0.007062   0.008044   0.002375   0.000077  -0.000309  -0.000340
    13  H    0.377487  -0.000711  -0.000760  -0.000126   0.000056   0.000022
    14  H   -0.000711   0.492985  -0.014829   0.004867  -0.004269   0.000654
    15  H   -0.000760  -0.014829   0.510513  -0.003277  -0.005972  -0.000048
    16  H   -0.000126   0.004867  -0.003277   0.500073  -0.017124   0.004667
    17  H    0.000056  -0.004269  -0.005972  -0.017124   0.523058  -0.002660
    18  H    0.000022   0.000654  -0.000048   0.004667  -0.002660   0.520657
    19  H   -0.000183   0.000866  -0.000195   0.003653   0.005003  -0.014533
    20  H    0.000000   0.000037   0.000007   0.001558   0.001477  -0.002880
    21  H   -0.000002  -0.000018   0.000014  -0.000667   0.000053  -0.007077
    22  H   -0.000005  -0.000036  -0.000016  -0.007245   0.000939  -0.000747
    23  H    0.000000   0.000002  -0.000001   0.000549  -0.000197  -0.000049
    24  H   -0.000241  -0.000008   0.000041  -0.000498  -0.000045   0.000523
    25  H   -0.000016   0.000001  -0.000000   0.000076  -0.000003   0.000029
    26  H   -0.000003   0.000003  -0.000000   0.000118  -0.000005   0.000176
    27  H    0.000023   0.000000  -0.000000  -0.000004   0.000000  -0.000006
    28  H   -0.000000   0.000000  -0.000000  -0.000000  -0.000000  -0.000001
    29  H    0.000000  -0.000000  -0.000000   0.000001   0.000000   0.000000
    30  H    0.000000  -0.000000  -0.000000   0.000001   0.000000   0.000005
    31  H   -0.000000   0.000000   0.000000   0.000000   0.000000  -0.000000
    32  H   -0.000000   0.000000  -0.000000  -0.000004  -0.000001  -0.000021
              19         20         21         22         23         24
     1  O   -0.003619  -0.000001   0.000019   0.000046  -0.000008   0.005272
     2  C    0.006081  -0.000056   0.000138   0.000182  -0.000018  -0.001394
     3  C   -0.005138  -0.000171  -0.000764   0.000423   0.000032  -0.001389
     4  C   -0.061493  -0.009206   0.010719  -0.003475   0.000104   0.004412
     5  C    0.433680  -0.029358  -0.066109  -0.007016   0.009185   0.001371
     6  C   -0.029725   0.430495   0.445952  -0.034203  -0.059944  -0.013528
     7  C   -0.018169  -0.059228  -0.036338   0.436943   0.438282  -0.033861
     8  C    0.004671   0.010214  -0.007743  -0.059985  -0.039519   0.435142
     9  C    0.000622  -0.000482   0.001563   0.009358  -0.007950  -0.064112
    10  C   -0.000419  -0.000035  -0.001694  -0.001280   0.008108   0.009588
    11  C    0.000232   0.000218   0.001949   0.000834  -0.014897  -0.000764
    12  O    0.000480  -0.000002   0.000000  -0.000002   0.000000  -0.000155
    13  H   -0.000183   0.000000  -0.000002  -0.000005   0.000000  -0.000241
    14  H    0.000866   0.000037  -0.000018  -0.000036   0.000002  -0.000008
    15  H   -0.000195   0.000007   0.000014  -0.000016  -0.000001   0.000041
    16  H    0.003653   0.001558  -0.000667  -0.007245   0.000549  -0.000498
    17  H    0.005003   0.001477   0.000053   0.000939  -0.000197  -0.000045
    18  H   -0.014533  -0.002880  -0.007077  -0.000747  -0.000049   0.000523
    19  H    0.513530   0.005097  -0.002391   0.001634  -0.000780  -0.008963
    20  H    0.005097   0.523940  -0.015076  -0.002063  -0.005937  -0.000794
    21  H   -0.002391  -0.015076   0.515197   0.004960  -0.003480   0.001393
    22  H    0.001634  -0.002063   0.004960   0.523641  -0.016869  -0.004295
    23  H   -0.000780  -0.005937  -0.003480  -0.016869   0.521799   0.005224
    24  H   -0.008963  -0.000794   0.001393  -0.004295   0.005224   0.534026
    25  H    0.000335  -0.000245  -0.000690  -0.006185  -0.001611  -0.015960
    26  H    0.001005   0.000293  -0.007037  -0.000842   0.001759  -0.001224
    27  H   -0.000328   0.000024   0.000117  -0.000321  -0.000527  -0.007643
    28  H    0.000017   0.000004   0.000019   0.000056  -0.000058  -0.000452
    29  H   -0.000001   0.000008  -0.000273  -0.000447   0.001751   0.000258
    30  H    0.000031   0.000018  -0.002713  -0.000079   0.001130  -0.000003
    31  H   -0.000003  -0.000020   0.000385  -0.000014   0.000619   0.000045
    32  H    0.000059   0.000444  -0.002485   0.000940  -0.004336  -0.000126
              25         26         27         28         29         30
     1  O    0.000097   0.000035   0.000060  -0.000000  -0.000000  -0.000000
     2  C   -0.000018  -0.000053   0.000043  -0.000000   0.000000   0.000000
     3  C   -0.000015   0.000049  -0.000012   0.000000  -0.000000   0.000000
     4  C    0.000036  -0.000458   0.000012   0.000001  -0.000010  -0.000014
     5  C   -0.001290  -0.001354   0.000535  -0.000043   0.000003   0.000140
     6  C    0.011906   0.009379  -0.001625  -0.000002   0.001624   0.001991
     7  C   -0.062324  -0.019892   0.011096   0.000188  -0.009717  -0.005373
     8  C    0.438285  -0.037385  -0.054487   0.006449   0.008366   0.003243
     9  C   -0.034947   0.425509   0.430290  -0.047444  -0.058283  -0.003648
    10  C   -0.011822  -0.051626  -0.040124   0.429747   0.422729  -0.052359
    11  C    0.001690  -0.005066   0.006897  -0.042255  -0.044386   0.421609
    12  O   -0.000001   0.000001  -0.000001   0.000000  -0.000000  -0.000000
    13  H   -0.000016  -0.000003   0.000023  -0.000000   0.000000   0.000000
    14  H    0.000001   0.000003   0.000000   0.000000  -0.000000  -0.000000
    15  H   -0.000000  -0.000000  -0.000000  -0.000000  -0.000000  -0.000000
    16  H    0.000076   0.000118  -0.000004  -0.000000   0.000001   0.000001
    17  H   -0.000003  -0.000005   0.000000  -0.000000   0.000000   0.000000
    18  H    0.000029   0.000176  -0.000006  -0.000001   0.000000   0.000005
    19  H    0.000335   0.001005  -0.000328   0.000017  -0.000001   0.000031
    20  H   -0.000245   0.000293   0.000024   0.000004   0.000008   0.000018
    21  H   -0.000690  -0.007037   0.000117   0.000019  -0.000273  -0.002713
    22  H   -0.006185  -0.000842  -0.000321   0.000056  -0.000447  -0.000079
    23  H   -0.001611   0.001759  -0.000527  -0.000058   0.001751   0.001130
    24  H   -0.015960  -0.001224  -0.007643  -0.000452   0.000258  -0.000003
    25  H    0.525045   0.005514  -0.003096   0.000054   0.002030  -0.000058
    26  H    0.005514   0.536014  -0.018170   0.000027   0.007127   0.002138
    27  H   -0.003096  -0.018170   0.548594  -0.012221   0.001598   0.000397
    28  H    0.000054   0.000027  -0.012221   0.560912  -0.026437  -0.004852
    29  H    0.002030   0.007127   0.001598  -0.026437   0.557321   0.007408
    30  H   -0.000058   0.002138   0.000397  -0.004852   0.007408   0.538254
    31  H   -0.000048  -0.000117  -0.000318  -0.006666  -0.003160  -0.019483
    32  H    0.000237   0.000955  -0.000701   0.007527  -0.004270  -0.035563
              31         32
     1  O   -0.000000  -0.000000
     2  C    0.000000  -0.000001
     3  C   -0.000000   0.000003
     4  C    0.000000  -0.000023
     5  C    0.000014   0.000338
     6  C    0.000241  -0.011368
     7  C   -0.000305   0.015109
     8  C   -0.000373  -0.002443
     9  C    0.009998  -0.006021
    10  C   -0.040434  -0.042424
    11  C    0.412490   0.413232
    12  O    0.000000   0.000000
    13  H   -0.000000  -0.000000
    14  H    0.000000   0.000000
    15  H    0.000000  -0.000000
    16  H    0.000000  -0.000004
    17  H    0.000000  -0.000001
    18  H   -0.000000  -0.000021
    19  H   -0.000003   0.000059
    20  H   -0.000020   0.000444
    21  H    0.000385  -0.002485
    22  H   -0.000014   0.000940
    23  H    0.000619  -0.004336
    24  H    0.000045  -0.000126
    25  H   -0.000048   0.000237
    26  H   -0.000117   0.000955
    27  H   -0.000318  -0.000701
    28  H   -0.006666   0.007527
    29  H   -0.003160  -0.004270
    30  H   -0.019483  -0.035563
    31  H    0.524840  -0.023227
    32  H   -0.023227   0.558125
 Mulliken charges:
               1
     1  O   -0.411122
     2  C    0.315455
     3  C   -0.282740
     4  C   -0.309057
     5  C   -0.311231
     6  C   -0.303827
     7  C   -0.369022
     8  C   -0.305365
     9  C   -0.283638
    10  C   -0.237228
    11  C   -0.458376
    12  O   -0.324753
    13  H    0.337756
    14  H    0.165403
    15  H    0.166126
    16  H    0.175423
    17  H    0.152935
    18  H    0.151978
    19  H    0.168945
    20  H    0.151720
    21  H    0.172082
    22  H    0.165169
    23  H    0.167636
    24  H    0.158161
    25  H    0.152996
    26  H    0.153129
    27  H    0.139898
    28  H    0.135431
    29  H    0.136759
    30  H    0.147779
    31  H    0.145534
    32  H    0.136042
 Sum of Mulliken charges =  -0.00000
 Mulliken charges with hydrogens summed into heavy atoms:
               1
     1  O   -0.073366
     2  C    0.315455
     3  C    0.048789
     4  C    0.019301
     5  C    0.009693
     6  C    0.019976
     7  C   -0.036217
     8  C    0.005792
     9  C    0.009389
    10  C    0.034962
    11  C   -0.029020
    12  O   -0.324753
 Electronic spatial extent (au):  <R**2>=           3231.8317
 Charge=             -0.0000 electrons
 Dipole moment (field-independent basis, Debye):
    X=             -0.8835    Y=              0.8580    Z=              1.4344  Tot=              1.8905
 Quadrupole moment (field-independent basis, Debye-Ang):
   XX=            -81.8809   YY=            -73.6980   ZZ=            -81.3366
   XY=              4.8964   XZ=              6.0055   YZ=             -3.2150
 Traceless Quadrupole moment (field-independent basis, Debye-Ang):
   XX=             -2.9091   YY=              5.2738   ZZ=             -2.3647
   XY=              4.8964   XZ=              6.0055   YZ=             -3.2150
 Octapole moment (field-independent basis, Debye-Ang**2):
  XXX=              5.0106  YYY=            -21.4481  ZZZ=              1.7764  XYY=             16.3655
  XXY=             13.5178  XXZ=             24.8013  XZZ=             -3.3391  YZZ=              1.8591
  YYZ=              7.4322  XYZ=            -12.3480
 Hexadecapole moment (field-independent basis, Debye-Ang**3):
 XXXX=          -3283.7964 YYYY=           -688.0103 ZZZZ=           -388.7452 XXXY=             54.1045
 XXXZ=             86.2863 YYYX=            -48.7446 YYYZ=            -17.5333 ZZZX=              2.9513
 ZZZY=             -6.1093 XXYY=           -654.7626 XXZZ=           -641.0702 YYZZ=           -192.1718
 XXYZ=            -34.5499 YYXZ=             20.7803 ZZXY=             11.5307
 N-N= 7.459679338044D+02 E-N=-2.756757126322D+03  KE= 5.405695771092D+02
 Unable to Open any file for archive entry.
 1\1\GINC-NOTCH075\SP\RM062X\def2TZVP\C10H20O2\U6032257\03-Feb-2022\0\\
 # M062X/def2tzvp int=(grid=ultrafine) nmr=giao guess=read geom=check\\
 Ac1.xyz\\0,1\O,0,5.4747924816,-1.2752132836,-1.0511071822\C,0,4.618299
 1957,-0.4436235591,-0.3973776248\C,0,3.7062095012,-1.1999300903,0.5416
 464292\C,0,2.9824429213,-2.3709777636,-0.1410588018\C,0,2.0866369181,-
 1.9175268762,-1.2978804484\C,0,1.410276697,-3.0685299477,-2.0547798165
 \C,0,2.3785109976,-4.0726045087,-2.7019521294\C,0,3.4473037838,-3.4524
 029186,-3.6159022625\C,0,2.9502555958,-2.5916080887,-4.7894647814\C,0,
 2.1634055196,-3.3315593176,-5.8881265019\C,0,0.6616329392,-3.494816553
 8,-5.628772514\O,0,4.6259297667,0.7534914161,-0.5753131038\H,0,6.01041
 8579,-0.7039832146,-1.6267524237\H,0,2.9995951265,-0.4733997789,0.9496
 89006\H,0,4.3207785636,-1.5739419495,1.3695278356\H,0,3.7329326485,-3.
 0813842449,-0.4988314108\H,0,2.3794532842,-2.898283734,0.6080284574\H,
 0,1.3153226395,-1.2407417848,-0.9086493211\H,0,2.679622275,-1.31989704
 04,-2.0012263174\H,0,0.7481751216,-3.6124761242,-1.3680633537\H,0,0.75
 86975686,-2.6407049608,-2.8248453942\H,0,2.89230042,-4.6397696673,-1.9
 15978294\H,0,1.7953810724,-4.8138836901,-3.2599189774\H,0,4.1233035414
 ,-2.8419522696,-3.0045244615\H,0,4.0660539186,-4.2640925427,-4.0212855
 339\H,0,2.3482871816,-1.7524765576,-4.4162064843\H,0,3.8359489603,-2.1
 361115268,-5.2495997038\H,0,2.284706125,-2.7823595887,-6.8300195762\H,
 0,2.6194434413,-4.3167509686,-6.0559871876\H,0,0.1878877028,-2.5202529
 462,-5.4650678869\H,0,0.1657593285,-3.9627171562,-6.4856591004\H,0,0.4
 541361839,-4.1130187623,-4.7520411349\\Version=ES64L-G16RevC.01\State=
 1-A\HF=-543.5398524\RMSD=2.825e-09\Dipole=-0.0360231,-0.7429152,0.0001
 325\Quadrupole=2.92405,-6.9457101,4.0216601,-1.15545,-1.7846927,-3.077
 1656\PG=C01 [X(C10H20O2)]\\@
 The archive entry for this job was punched.


 ALMOST ANYTHING IS EASIER TO GET INTO THAN OUT OF.

                         -- AGNES ALLEN'S LAW FROM
                PAUL DICKSON'S "THE OFFICIAL RULES"
 Job cpu time:       0 days  0 hours 43 minutes 20.5 seconds.
 Elapsed time:       0 days  0 hours  1 minutes 32.6 seconds.
 File lengths (MBytes):  RWF=    140 Int=      0 D2E=      0 Chk=     24 Scr=      1
 Normal termination of Gaussian 16 at Thu Feb  3 07:04:12 2022.
