 Entering Gaussian System, Link 0=/uufs/chpc.utah.edu/sys/installdir/gaussian16/C01/AVX2/g16/g16
 Input=Ac1_clust-23.com
 Output=Ac1_clust-23.log
 Initial command:
 /uufs/chpc.utah.edu/sys/installdir/gaussian16/C01/AVX2/g16/l1.exe "/scratch/general/lustre/u6032257/3857479/notchpeak.peaks/Gau-233813.inp" -scrdir="/scratch/general/lustre/u6032257/3857479/notchpeak.peaks/"
 Entering Link 1 = /uufs/chpc.utah.edu/sys/installdir/gaussian16/C01/AVX2/g16/l1.exe PID=    233815.
  
 Copyright (c) 1988-2019, Gaussian, Inc.  All Rights Reserved.
  
 This is part of the Gaussian(R) 16 program.  It is based on
 the Gaussian(R) 09 system (copyright 2009, Gaussian, Inc.),
 the Gaussian(R) 03 system (copyright 2003, Gaussian, Inc.),
 the Gaussian(R) 98 system (copyright 1998, Gaussian, Inc.),
 the Gaussian(R) 94 system (copyright 1995, Gaussian, Inc.),
 the Gaussian 92(TM) system (copyright 1992, Gaussian, Inc.),
 the Gaussian 90(TM) system (copyright 1990, Gaussian, Inc.),
 the Gaussian 88(TM) system (copyright 1988, Gaussian, Inc.),
 the Gaussian 86(TM) system (copyright 1986, Carnegie Mellon
 University), and the Gaussian 82(TM) system (copyright 1983,
 Carnegie Mellon University). Gaussian is a federally registered
 trademark of Gaussian, Inc.
  
 This software contains proprietary and confidential information,
 including trade secrets, belonging to Gaussian, Inc.
  
 This software is provided under written license and may be
 used, copied, transmitted, or stored only in accord with that
 written license.
  
 The following legend is applicable only to US Government
 contracts under FAR:
  
                    RESTRICTED RIGHTS LEGEND
  
 Use, reproduction and disclosure by the US Government is
 subject to restrictions as set forth in subparagraphs (a)
 and (c) of the Commercial Computer Software - Restricted
 Rights clause in FAR 52.227-19.
  
 Gaussian, Inc.
 340 Quinnipiac St., Bldg. 40, Wallingford CT 06492
  
  
 ---------------------------------------------------------------
 Warning -- This program may not be used in any manner that
 competes with the business of Gaussian, Inc. or will provide
 assistance to any competitor of Gaussian, Inc.  The licensee
 of this program is prohibited from giving any competitor of
 Gaussian, Inc. access to this program.  By using this program,
 the user acknowledges that Gaussian, Inc. is engaged in the
 business of creating and licensing software in the field of
 computational chemistry and represents and warrants to the
 licensee that it is not a competitor of Gaussian, Inc. and that
 it will not use this program in any manner prohibited above.
 ---------------------------------------------------------------
  

 Cite this work as:
 Gaussian 16, Revision C.01,
 M. J. Frisch, G. W. Trucks, H. B. Schlegel, G. E. Scuseria, 
 M. A. Robb, J. R. Cheeseman, G. Scalmani, V. Barone, 
 G. A. Petersson, H. Nakatsuji, X. Li, M. Caricato, A. V. Marenich, 
 J. Bloino, B. G. Janesko, R. Gomperts, B. Mennucci, H. P. Hratchian, 
 J. V. Ortiz, A. F. Izmaylov, J. L. Sonnenberg, D. Williams-Young, 
 F. Ding, F. Lipparini, F. Egidi, J. Goings, B. Peng, A. Petrone, 
 T. Henderson, D. Ranasinghe, V. G. Zakrzewski, J. Gao, N. Rega, 
 G. Zheng, W. Liang, M. Hada, M. Ehara, K. Toyota, R. Fukuda, 
 J. Hasegawa, M. Ishida, T. Nakajima, Y. Honda, O. Kitao, H. Nakai, 
 T. Vreven, K. Throssell, J. A. Montgomery, Jr., J. E. Peralta, 
 F. Ogliaro, M. J. Bearpark, J. J. Heyd, E. N. Brothers, K. N. Kudin, 
 V. N. Staroverov, T. A. Keith, R. Kobayashi, J. Normand, 
 K. Raghavachari, A. P. Rendell, J. C. Burant, S. S. Iyengar, 
 J. Tomasi, M. Cossi, J. M. Millam, M. Klene, C. Adamo, R. Cammi, 
 J. W. Ochterski, R. L. Martin, K. Morokuma, O. Farkas, 
 J. B. Foresman, and D. J. Fox, Gaussian, Inc., Wallingford CT, 2019.
 
 ******************************************
 Gaussian 16:  ES64L-G16RevC.01  3-Jul-2019
                 3-Feb-2022 
 ******************************************
 %NProcShared=32
 Will use up to   32 processors via shared memory.
 %mem=16GB
 %chk=Ac1_clust-23.chk
 ----------------------------------------------------------------------
 # B3LYP/6-31G(d,p) empiricaldispersion=GD3BJ int=(grid=ultrafine) opt 
 freq=noraman
 ----------------------------------------------------------------------
 1/18=20,19=15,26=4,38=1/1,3;
 2/9=110,12=2,17=6,18=5,40=1/2;
 3/5=1,6=6,7=101,11=2,25=1,30=1,71=1,74=-5,75=-5,124=41/1,2,3;
 4//1;
 5/5=2,38=5/2;
 6/7=2,8=2,9=2,10=2,28=1/1;
 7//1,2,3,16;
 1/18=20,19=15,26=4/3(2);
 2/9=110/2;
 99//99;
 2/9=110/2;
 3/5=1,6=6,7=101,11=2,25=1,30=1,71=1,74=-5,75=-5,124=41/1,2,3;
 4/5=5,16=3,69=1/1;
 5/5=2,38=5/2;
 7//1,2,3,16;
 1/18=20,19=15,26=4/3(-5);
 2/9=110/2;
 6/7=2,8=2,9=2,10=2,19=2,28=1/1;
 99/9=1/99;
 -------
 Ac1.xyz
 -------
 Symbolic Z-matrix:
 Charge =  0 Multiplicity = 1
 O                     5.1513    0.4437    0.3297 
 C                     5.3428   -0.8197   -0.1078 
 C                     4.4894   -1.8375    0.6441 
 C                     2.9573   -1.6116    0.5529 
 C                     2.3601   -1.6009   -0.872 
 C                     2.5602   -2.9164   -1.6484 
 C                     1.8724   -2.9042   -3.0248 
 C                     2.0812   -4.2164   -3.8052 
 C                     1.3311   -4.2787   -5.1506 
 C                     1.8372   -3.2746   -6.2032 
 C                     1.1307   -3.4316   -7.5571 
 O                     6.1314   -1.1111   -0.9949 
 H                     5.7376    0.97     -0.2143 
 H                     4.8089   -1.8177    1.6853 
 H                     4.7482   -2.8303    0.2774 
 H                     2.4541   -2.3832    1.1384 
 H                     2.7033   -0.6723    1.0494 
 H                     1.2917   -1.3907   -0.7971 
 H                     2.7802   -0.7715   -1.4437 
 H                     3.6268   -3.1018   -1.7865 
 H                     2.1783   -3.7505   -1.0573 
 H                     2.256    -2.0646   -3.606 
 H                     0.8036   -2.7241   -2.8966 
 H                     1.7503   -5.0526   -3.1869 
 H                     3.1474   -4.3782   -3.9746 
 H                     1.4265   -5.2893   -5.5518 
 H                     0.2636   -4.1281   -4.9805 
 H                     2.9126   -3.3988   -6.3426 
 H                     1.693    -2.2539   -5.8468 
 H                     0.0553   -3.275    -7.4641 
 H                     1.5075   -2.7078   -8.2804 
 H                     1.2885   -4.4267   -7.9747 
 

 GradGradGradGradGradGradGradGradGradGradGradGradGradGradGradGradGradGrad
 Berny optimization.
 Initialization pass.
                           ----------------------------
                           !    Initial Parameters    !
                           ! (Angstroms and Degrees)  !
 --------------------------                            --------------------------
 ! Name  Definition              Value          Derivative Info.                !
 --------------------------------------------------------------------------------
 ! R1    R(1,2)                  1.3507         estimate D2E/DX2                !
 ! R2    R(1,13)                 0.9574         estimate D2E/DX2                !
 ! R3    R(2,3)                  1.5263         estimate D2E/DX2                !
 ! R4    R(2,12)                 1.2222         estimate D2E/DX2                !
 ! R5    R(3,4)                  1.5513         estimate D2E/DX2                !
 ! R6    R(3,14)                 1.0893         estimate D2E/DX2                !
 ! R7    R(3,15)                 1.0895         estimate D2E/DX2                !
 ! R8    R(4,5)                  1.545          estimate D2E/DX2                !
 ! R9    R(4,16)                 1.0915         estimate D2E/DX2                !
 ! R10   R(4,17)                 1.0924         estimate D2E/DX2                !
 ! R11   R(5,6)                  1.5406         estimate D2E/DX2                !
 ! R12   R(5,18)                 1.0915         estimate D2E/DX2                !
 ! R13   R(5,19)                 1.0914         estimate D2E/DX2                !
 ! R14   R(6,7)                  1.5387         estimate D2E/DX2                !
 ! R15   R(6,20)                 1.0914         estimate D2E/DX2                !
 ! R16   R(6,21)                 1.0913         estimate D2E/DX2                !
 ! R17   R(7,8)                  1.5409         estimate D2E/DX2                !
 ! R18   R(7,22)                 1.0908         estimate D2E/DX2                !
 ! R19   R(7,23)                 1.0914         estimate D2E/DX2                !
 ! R20   R(8,9)                  1.5416         estimate D2E/DX2                !
 ! R21   R(8,24)                 1.0913         estimate D2E/DX2                !
 ! R22   R(8,25)                 1.0916         estimate D2E/DX2                !
 ! R23   R(9,10)                 1.5402         estimate D2E/DX2                !
 ! R24   R(9,26)                 1.0915         estimate D2E/DX2                !
 ! R25   R(9,27)                 1.0914         estimate D2E/DX2                !
 ! R26   R(10,11)                1.5352         estimate D2E/DX2                !
 ! R27   R(10,28)                1.0915         estimate D2E/DX2                !
 ! R28   R(10,29)                1.0907         estimate D2E/DX2                !
 ! R29   R(11,30)                1.0907         estimate D2E/DX2                !
 ! R30   R(11,31)                1.0904         estimate D2E/DX2                !
 ! R31   R(11,32)                1.0906         estimate D2E/DX2                !
 ! A1    A(2,1,13)             104.0826         estimate D2E/DX2                !
 ! A2    A(1,2,3)              112.6387         estimate D2E/DX2                !
 ! A3    A(1,2,12)             123.3406         estimate D2E/DX2                !
 ! A4    A(3,2,12)             124.0106         estimate D2E/DX2                !
 ! A5    A(2,3,4)              115.2224         estimate D2E/DX2                !
 ! A6    A(2,3,14)             107.1432         estimate D2E/DX2                !
 ! A7    A(2,3,15)             108.0003         estimate D2E/DX2                !
 ! A8    A(4,3,14)             110.0728         estimate D2E/DX2                !
 ! A9    A(4,3,15)             110.3335         estimate D2E/DX2                !
 ! A10   A(14,3,15)            105.5807         estimate D2E/DX2                !
 ! A11   A(3,4,5)              115.9101         estimate D2E/DX2                !
 ! A12   A(3,4,16)             108.7127         estimate D2E/DX2                !
 ! A13   A(3,4,17)             109.1549         estimate D2E/DX2                !
 ! A14   A(5,4,16)             108.7481         estimate D2E/DX2                !
 ! A15   A(5,4,17)             108.8651         estimate D2E/DX2                !
 ! A16   A(16,4,17)            104.883          estimate D2E/DX2                !
 ! A17   A(4,5,6)              114.121          estimate D2E/DX2                !
 ! A18   A(4,5,18)             108.4461         estimate D2E/DX2                !
 ! A19   A(4,5,19)             109.8504         estimate D2E/DX2                !
 ! A20   A(6,5,18)             109.0369         estimate D2E/DX2                !
 ! A21   A(6,5,19)             109.5676         estimate D2E/DX2                !
 ! A22   A(18,5,19)            105.4485         estimate D2E/DX2                !
 ! A23   A(5,6,7)              112.7041         estimate D2E/DX2                !
 ! A24   A(5,6,20)             109.6194         estimate D2E/DX2                !
 ! A25   A(5,6,21)             109.5252         estimate D2E/DX2                !
 ! A26   A(7,6,20)             108.9659         estimate D2E/DX2                !
 ! A27   A(7,6,21)             109.52           estimate D2E/DX2                !
 ! A28   A(20,6,21)            106.3021         estimate D2E/DX2                !
 ! A29   A(6,7,8)              112.687          estimate D2E/DX2                !
 ! A30   A(6,7,22)             108.9968         estimate D2E/DX2                !
 ! A31   A(6,7,23)             109.5096         estimate D2E/DX2                !
 ! A32   A(8,7,22)             109.7523         estimate D2E/DX2                !
 ! A33   A(8,7,23)             109.4327         estimate D2E/DX2                !
 ! A34   A(22,7,23)            106.2572         estimate D2E/DX2                !
 ! A35   A(7,8,9)              114.2339         estimate D2E/DX2                !
 ! A36   A(7,8,24)             108.9332         estimate D2E/DX2                !
 ! A37   A(7,8,25)             109.7035         estimate D2E/DX2                !
 ! A38   A(9,8,24)             108.4178         estimate D2E/DX2                !
 ! A39   A(9,8,25)             109.5001         estimate D2E/DX2                !
 ! A40   A(24,8,25)            105.6936         estimate D2E/DX2                !
 ! A41   A(8,9,10)             114.2168         estimate D2E/DX2                !
 ! A42   A(8,9,26)             108.4012         estimate D2E/DX2                !
 ! A43   A(8,9,27)             109.5307         estimate D2E/DX2                !
 ! A44   A(10,9,26)            108.8856         estimate D2E/DX2                !
 ! A45   A(10,9,27)            109.7517         estimate D2E/DX2                !
 ! A46   A(26,9,27)            105.6961         estimate D2E/DX2                !
 ! A47   A(9,10,11)            112.632          estimate D2E/DX2                !
 ! A48   A(9,10,28)            109.6847         estimate D2E/DX2                !
 ! A49   A(9,10,29)            110.0793         estimate D2E/DX2                !
 ! A50   A(11,10,28)           109.2171         estimate D2E/DX2                !
 ! A51   A(11,10,29)           108.8464         estimate D2E/DX2                !
 ! A52   A(28,10,29)           106.1694         estimate D2E/DX2                !
 ! A53   A(10,11,30)           111.3375         estimate D2E/DX2                !
 ! A54   A(10,11,31)           110.9822         estimate D2E/DX2                !
 ! A55   A(10,11,32)           111.3705         estimate D2E/DX2                !
 ! A56   A(30,11,31)           107.5752         estimate D2E/DX2                !
 ! A57   A(30,11,32)           107.8363         estimate D2E/DX2                !
 ! A58   A(31,11,32)           107.5568         estimate D2E/DX2                !
 ! D1    D(13,1,2,3)           179.8461         estimate D2E/DX2                !
 ! D2    D(13,1,2,12)            0.9599         estimate D2E/DX2                !
 ! D3    D(1,2,3,4)             59.7033         estimate D2E/DX2                !
 ! D4    D(1,2,3,14)           -63.1387         estimate D2E/DX2                !
 ! D5    D(1,2,3,15)          -176.4532         estimate D2E/DX2                !
 ! D6    D(12,2,3,4)          -121.4192         estimate D2E/DX2                !
 ! D7    D(12,2,3,14)          115.7388         estimate D2E/DX2                !
 ! D8    D(12,2,3,15)            2.4242         estimate D2E/DX2                !
 ! D9    D(2,3,4,5)             58.1807         estimate D2E/DX2                !
 ! D10   D(2,3,4,16)          -179.0116         estimate D2E/DX2                !
 ! D11   D(2,3,4,17)           -65.1372         estimate D2E/DX2                !
 ! D12   D(14,3,4,5)           179.4472         estimate D2E/DX2                !
 ! D13   D(14,3,4,16)          -57.7451         estimate D2E/DX2                !
 ! D14   D(14,3,4,17)           56.1293         estimate D2E/DX2                !
 ! D15   D(15,3,4,5)           -64.4244         estimate D2E/DX2                !
 ! D16   D(15,3,4,16)           58.3832         estimate D2E/DX2                !
 ! D17   D(15,3,4,17)          172.2576         estimate D2E/DX2                !
 ! D18   D(3,4,5,6)             60.7156         estimate D2E/DX2                !
 ! D19   D(3,4,5,18)          -177.5428         estimate D2E/DX2                !
 ! D20   D(3,4,5,19)           -62.7743         estimate D2E/DX2                !
 ! D21   D(16,4,5,6)           -62.0734         estimate D2E/DX2                !
 ! D22   D(16,4,5,18)           59.6682         estimate D2E/DX2                !
 ! D23   D(16,4,5,19)          174.4367         estimate D2E/DX2                !
 ! D24   D(17,4,5,6)          -175.815          estimate D2E/DX2                !
 ! D25   D(17,4,5,18)          -54.0734         estimate D2E/DX2                !
 ! D26   D(17,4,5,19)           60.6951         estimate D2E/DX2                !
 ! D27   D(4,5,6,7)            176.1426         estimate D2E/DX2                !
 ! D28   D(4,5,6,20)           -62.3128         estimate D2E/DX2                !
 ! D29   D(4,5,6,21)            53.9566         estimate D2E/DX2                !
 ! D30   D(18,5,6,7)            54.7271         estimate D2E/DX2                !
 ! D31   D(18,5,6,20)          176.2717         estimate D2E/DX2                !
 ! D32   D(18,5,6,21)          -67.4589         estimate D2E/DX2                !
 ! D33   D(19,5,6,7)           -60.2148         estimate D2E/DX2                !
 ! D34   D(19,5,6,20)           61.3297         estimate D2E/DX2                !
 ! D35   D(19,5,6,21)          177.5991         estimate D2E/DX2                !
 ! D36   D(5,6,7,8)            179.5924         estimate D2E/DX2                !
 ! D37   D(5,6,7,22)            57.4982         estimate D2E/DX2                !
 ! D38   D(5,6,7,23)           -58.3561         estimate D2E/DX2                !
 ! D39   D(20,6,7,8)            57.6779         estimate D2E/DX2                !
 ! D40   D(20,6,7,22)          -64.4163         estimate D2E/DX2                !
 ! D41   D(20,6,7,23)          179.7294         estimate D2E/DX2                !
 ! D42   D(21,6,7,8)           -58.2187         estimate D2E/DX2                !
 ! D43   D(21,6,7,22)          179.6872         estimate D2E/DX2                !
 ! D44   D(21,6,7,23)           63.8329         estimate D2E/DX2                !
 ! D45   D(6,7,8,9)            176.2262         estimate D2E/DX2                !
 ! D46   D(6,7,8,24)            54.8471         estimate D2E/DX2                !
 ! D47   D(6,7,8,25)           -60.4044         estimate D2E/DX2                !
 ! D48   D(22,7,8,9)           -62.1068         estimate D2E/DX2                !
 ! D49   D(22,7,8,24)          176.5141         estimate D2E/DX2                !
 ! D50   D(22,7,8,25)           61.2626         estimate D2E/DX2                !
 ! D51   D(23,7,8,9)            54.1313         estimate D2E/DX2                !
 ! D52   D(23,7,8,24)          -67.2478         estimate D2E/DX2                !
 ! D53   D(23,7,8,25)          177.5007         estimate D2E/DX2                !
 ! D54   D(7,8,9,10)            66.4046         estimate D2E/DX2                !
 ! D55   D(7,8,9,26)          -172.0169         estimate D2E/DX2                !
 ! D56   D(7,8,9,27)           -57.1491         estimate D2E/DX2                !
 ! D57   D(24,8,9,10)         -171.9322         estimate D2E/DX2                !
 ! D58   D(24,8,9,26)          -50.3538         estimate D2E/DX2                !
 ! D59   D(24,8,9,27)           64.5141         estimate D2E/DX2                !
 ! D60   D(25,8,9,10)          -57.0745         estimate D2E/DX2                !
 ! D61   D(25,8,9,26)           64.5039         estimate D2E/DX2                !
 ! D62   D(25,8,9,27)          179.3718         estimate D2E/DX2                !
 ! D63   D(8,9,10,11)          176.1292         estimate D2E/DX2                !
 ! D64   D(8,9,10,28)           54.2659         estimate D2E/DX2                !
 ! D65   D(8,9,10,29)          -62.2005         estimate D2E/DX2                !
 ! D66   D(26,9,10,11)          54.818          estimate D2E/DX2                !
 ! D67   D(26,9,10,28)         -67.0453         estimate D2E/DX2                !
 ! D68   D(26,9,10,29)         176.4883         estimate D2E/DX2                !
 ! D69   D(27,9,10,11)         -60.4363         estimate D2E/DX2                !
 ! D70   D(27,9,10,28)         177.7004         estimate D2E/DX2                !
 ! D71   D(27,9,10,29)          61.234          estimate D2E/DX2                !
 ! D72   D(9,10,11,30)          60.0924         estimate D2E/DX2                !
 ! D73   D(9,10,11,31)         179.895          estimate D2E/DX2                !
 ! D74   D(9,10,11,32)         -60.3037         estimate D2E/DX2                !
 ! D75   D(28,10,11,30)       -177.78           estimate D2E/DX2                !
 ! D76   D(28,10,11,31)        -57.9774         estimate D2E/DX2                !
 ! D77   D(28,10,11,32)         61.8239         estimate D2E/DX2                !
 ! D78   D(29,10,11,30)        -62.2746         estimate D2E/DX2                !
 ! D79   D(29,10,11,31)         57.528          estimate D2E/DX2                !
 ! D80   D(29,10,11,32)        177.3293         estimate D2E/DX2                !
 --------------------------------------------------------------------------------
 Trust Radius=3.00D-01 FncErr=1.00D-07 GrdErr=1.00D-06 EigMax=2.50D+02 EigMin=1.00D-04
 Number of steps in this run=    179 maximum allowed number of steps=    192.
 GradGradGradGradGradGradGradGradGradGradGradGradGradGradGradGradGradGrad

                          Input orientation:                          
 ---------------------------------------------------------------------
 Center     Atomic      Atomic             Coordinates (Angstroms)
 Number     Number       Type             X           Y           Z
 ---------------------------------------------------------------------
      1          8           0        5.151300    0.443700    0.329700
      2          6           0        5.342800   -0.819700   -0.107800
      3          6           0        4.489400   -1.837500    0.644100
      4          6           0        2.957300   -1.611600    0.552900
      5          6           0        2.360100   -1.600900   -0.872000
      6          6           0        2.560200   -2.916400   -1.648400
      7          6           0        1.872400   -2.904200   -3.024800
      8          6           0        2.081200   -4.216400   -3.805200
      9          6           0        1.331100   -4.278700   -5.150600
     10          6           0        1.837200   -3.274600   -6.203200
     11          6           0        1.130700   -3.431600   -7.557100
     12          8           0        6.131400   -1.111100   -0.994900
     13          1           0        5.737600    0.970000   -0.214300
     14          1           0        4.808900   -1.817700    1.685300
     15          1           0        4.748200   -2.830300    0.277400
     16          1           0        2.454100   -2.383200    1.138400
     17          1           0        2.703300   -0.672300    1.049400
     18          1           0        1.291700   -1.390700   -0.797100
     19          1           0        2.780200   -0.771500   -1.443700
     20          1           0        3.626800   -3.101800   -1.786500
     21          1           0        2.178300   -3.750500   -1.057300
     22          1           0        2.256000   -2.064600   -3.606000
     23          1           0        0.803600   -2.724100   -2.896600
     24          1           0        1.750300   -5.052600   -3.186900
     25          1           0        3.147400   -4.378200   -3.974600
     26          1           0        1.426500   -5.289300   -5.551800
     27          1           0        0.263600   -4.128100   -4.980500
     28          1           0        2.912600   -3.398800   -6.342600
     29          1           0        1.693000   -2.253900   -5.846800
     30          1           0        0.055300   -3.275000   -7.464100
     31          1           0        1.507500   -2.707800   -8.280400
     32          1           0        1.288500   -4.426700   -7.974700
 ---------------------------------------------------------------------
                    Distance matrix (angstroms):
                    1          2          3          4          5
     1  O    0.000000
     2  C    1.350651   0.000000
     3  C    2.396003   1.526290   0.000000
     4  C    3.014583   2.598892   1.551347   0.000000
     5  C    3.662686   3.176598   2.624587   1.545025   0.000000
     6  C    4.681554   3.809523   3.184556   2.589578   1.540577
     7  C    5.763010   4.989760   4.631130   3.955725   2.563394
     8  C    6.945462   5.987184   5.590605   5.152239   3.939833
     9  C    8.180995   7.313566   7.036538   6.502912   5.151298
    10  C    8.215096   7.447796   7.482308   7.047346   5.612164
    11  C    9.663581   8.947395   9.004538   8.510051   7.039421
    12  O    2.265516   1.222191   2.431078   3.566665   3.804959
    13  H    0.957432   1.835820   3.190127   3.870830   4.295300
    14  H    2.658725   2.120439   1.089298   2.180190   3.547310
    15  H    3.299136   2.131769   1.089540   2.183679   2.921569
    16  H    3.990018   3.513137   2.164386   1.091507   2.159291
    17  H    2.784983   2.885793   2.170740   1.092389   2.161449
    18  H    4.419413   4.148805   3.535813   2.155347   1.091454
    19  H    3.200590   2.890306   2.901143   2.173372   1.091434
    20  H    4.401474   3.312200   2.872342   2.853370   2.166458
    21  H    5.324830   4.416469   3.448987   2.788275   2.165218
    22  H    5.492182   4.828614   4.806558   4.241872   2.774997
    23  H    6.272676   5.657604   5.187267   4.216056   2.789852
    24  H    7.358165   6.348571   5.702289   5.223355   4.200577
    25  H    6.767077   5.695160   5.439532   5.309281   4.237849
    26  H    9.018507   8.059272   7.725636   7.289457   6.031288
    27  H    8.543371   7.777338   7.398673   6.648858   5.259451
    28  H    8.018489   7.171496   7.330616   7.123482   5.784908
    29  H    7.575357   6.950834   7.079903   6.554934   5.061627
    30  H   10.027027   9.386229   9.352570   8.686817   7.181260
    31  H    9.866258   9.223114   9.449648   9.018357   7.539002
    32  H   10.373287   9.556982   9.551619   9.133983   7.718926
                    6          7          8          9         10
     6  C    0.000000
     7  C    1.538732   0.000000
     8  C    2.563441   1.540938   0.000000
     9  C    3.953726   2.588683   1.541633   0.000000
    10  C    4.625715   3.200103   2.587842   1.540234   0.000000
    11  C    6.100954   4.622771   3.949192   2.559098   1.535199
    12  O    4.054583   5.047255   5.826216   7.095521   7.088531
    13  H    5.220787   6.152082   7.291267   8.445896   8.312441
    14  H    4.168615   5.655843   6.583289   8.054883   8.554647
    15  H    2.916070   4.379522   5.069693   6.575532   7.118251
    16  H    2.839333   4.235806   5.285722   6.663750   7.421203
    17  H    3.512063   4.719203   6.042747   7.302674   7.753857
    18  H    2.159066   2.755094   4.201971   5.224467   5.750875
    19  H    2.165848   2.805777   4.234692   5.304852   5.459634
    20  H    1.091366   2.156467   2.776034   4.239399   4.768623
    21  H    1.091316   2.163528   2.788807   4.213294   5.179104
    22  H    2.156455   1.090812   2.168059   2.853676   2.895676
    23  H    2.163475   1.091423   2.164434   2.788468   3.507846
    24  H    2.754319   2.157964   1.091339   2.151922   3.502414
    25  H    2.809425   2.168045   1.091631   2.166061   2.810910
    26  H    4.706640   3.503321   2.151827   1.091501   2.156852
    27  H    4.224391   2.812638   2.166286   1.091408   2.167873
    28  H    4.732062   3.512042   2.792507   2.167079   1.091487
    29  H    4.337915   2.901510   2.858362   2.171516   1.090708
    30  H    6.342356   4.811105   4.286963   2.826192   2.182896
    31  H    6.718267   5.271912   4.757354   3.506350   2.178239
    32  H    6.627239   5.211569   4.249392   2.828296   2.183259
                   11         12         13         14         15
    11  C    0.000000
    12  O    8.570542   0.000000
    13  H    9.721848   2.257298   0.000000
    14  H   10.077489   3.071117   3.498891   0.000000
    15  H    8.650275   2.547084   3.957646   1.735288   0.000000
    16  H    8.857892   4.437538   4.884170   2.482735   2.490806
    17  H    9.173802   4.015417   3.674379   2.479891   3.071574
    18  H    7.063200   4.851803   5.067404   4.326122   3.895432
    19  H    6.868089   3.398131   3.645609   3.873087   3.327742
    20  H    6.295960   3.295836   4.848386   3.885829   2.364515
    21  H    6.591401   4.753664   5.971799   4.263523   3.038516
    22  H    4.329686   4.769248   5.730093   5.880146   4.677409
    23  H    4.725231   5.882490   6.722013   6.152869   5.064131
    24  H    4.702148   6.287633   7.810674   6.599844   5.091895
    25  H    4.218701   5.334493   7.032228   6.430491   4.799798
    26  H    2.749505   7.769091   9.287267   8.710238   7.145624
    27  H    2.806393   7.708331   8.869722   8.392293   7.031460
    28  H    2.156677   6.647717   8.038849   8.398989   6.893259
    29  H    2.151345   6.674303   7.647050   8.162820   6.868210
    30  H    1.090714   9.135207  10.142394  10.413067   9.063768
    31  H    1.090425   8.775444   9.822521  10.535972   9.151671
    32  H    1.090649   9.119457  10.447137  10.607342   9.089289
                   16         17         18         19         20
    16  H    0.000000
    17  H    1.731242   0.000000
    18  H    2.466250   2.432751   0.000000
    19  H    3.061235   2.496258   1.736989   0.000000
    20  H    3.232128   3.846772   3.059325   2.502907   0.000000
    21  H    2.601283   3.766846   2.534249   3.063663   1.746624
    22  H    4.759210   4.879685   3.045314   2.573409   2.503089
    23  H    4.372824   4.836286   2.534580   3.135365   3.057031
    24  H    5.131204   6.167777   4.396700   4.735743   3.047621
    25  H    5.532039   6.258714   4.739756   4.421377   2.578139
    26  H    7.366149   8.156148   6.150157   6.254559   4.878930
    27  H    6.729332   7.365758   5.104036   5.487166   4.750373
    28  H    7.563533   7.881578   6.116564   5.560527   4.621292
    29  H    7.027732   7.147009   5.138640   4.771457   4.576522
    30  H    8.975108   9.287929   7.037625   7.066669   6.709751
    31  H    9.471811   9.623844   7.601388   7.218690   6.842325
    32  H    9.411860   9.875807   7.793282   7.631489   6.746616
                   21         22         23         24         25
    21  H    0.000000
    22  H    3.056823   0.000000
    23  H    2.515218   1.745753   0.000000
    24  H    2.532557   3.059333   2.530302   0.000000
    25  H    3.137483   2.506632   3.064560   1.739878   0.000000
    26  H    4.809744   3.856540   3.744108   2.398672   2.505825
    27  H    4.381798   3.180714   2.570108   2.506387   3.064423
    28  H    5.347643   3.114513   4.096098   3.747591   2.573282
    29  H    5.041293   2.318186   3.117018   3.861486   3.183247
    30  H    6.766115   4.603595   4.661062   4.932274   4.791111
    31  H    7.328736   4.777444   5.429645   5.612556   4.900961
    32  H    7.007097   5.059754   5.377832   4.850571   4.411197
                   26         27         28         29         30
    26  H    0.000000
    27  H    1.739858   0.000000
    28  H    2.531373   3.066659   0.000000
    29  H    3.061323   2.511232   1.744717   0.000000
    30  H    3.097497   2.634281   3.072011   2.518008   0.000000
    31  H    3.757121   3.801826   2.491356   2.482508   1.759814
    32  H    2.575571   3.178807   2.521513   3.068002   1.762926
                   31         32
    31  H    0.000000
    32  H    1.759554   0.000000
 Stoichiometry    C10H20O2
 Framework group  C1[X(C10H20O2)]
 Deg. of freedom    90
 Full point group                 C1      NOp   1
 Largest Abelian subgroup         C1      NOp   1
 Largest concise Abelian subgroup C1      NOp   1
                         Standard orientation:                         
 ---------------------------------------------------------------------
 Center     Atomic      Atomic             Coordinates (Angstroms)
 Number     Number       Type             X           Y           Z
 ---------------------------------------------------------------------
      1          8           0       -4.171876    1.126001   -0.851167
      2          6           0       -3.423786    0.940851    0.258039
      3          6           0       -3.287597   -0.531674    0.635774
      4          6           0       -2.631444   -1.432947   -0.443045
      5          6           0       -1.208761   -1.026640   -0.888008
      6          6           0       -0.167325   -1.035967    0.247202
      7          6           0        1.254456   -0.719006   -0.248547
      8          6           0        2.294151   -0.718584    0.888785
      9          6           0        3.745517   -0.495586    0.419272
     10          6           0        4.011725    0.903224   -0.167911
     11          6           0        5.486553    1.118621   -0.535772
     12          8           0       -2.930921    1.858886    0.896824
     13          1           0       -4.178223    2.075753   -0.972025
     14          1           0       -4.286705   -0.896641    0.870621
     15          1           0       -2.728061   -0.589551    1.568870
     16          1           0       -2.603375   -2.459148   -0.072220
     17          1           0       -3.279350   -1.469774   -1.321779
     18          1           0       -0.884354   -1.710501   -1.674370
     19          1           0       -1.233647   -0.039592   -1.353140
     20          1           0       -0.448471   -0.306184    1.008421
     21          1           0       -0.173175   -2.009891    0.739551
     22          1           0        1.249400    0.252909   -0.743751
     23          1           0        1.546651   -1.447034   -1.007364
     24          1           0        2.244638   -1.673857    1.414163
     25          1           0        2.029981    0.039354    1.628651
     26          1           0        4.411007   -0.654239    1.269758
     27          1           0        4.013872   -1.259840   -0.312214
     28          1           0        3.704906    1.667245    0.548663
     29          1           0        3.400361    1.058364   -1.057748
     30          1           0        5.819246    0.395587   -1.281557
     31          1           0        5.644195    2.114970   -0.949856
     32          1           0        6.132546    1.019220    0.337341
 ---------------------------------------------------------------------
 Rotational constants (GHZ):           1.6851281           0.2638558           0.2465983
 Standard basis: 6-31G(d,p) (6D, 7F)
 There are   280 symmetry adapted cartesian basis functions of A   symmetry.
 There are   280 symmetry adapted basis functions of A   symmetry.
   280 basis functions,   476 primitive gaussians,   280 cartesian basis functions
    48 alpha electrons       48 beta electrons
       nuclear repulsion energy       699.7196664225 Hartrees.
 NAtoms=   32 NActive=   32 NUniq=   32 SFac= 1.00D+00 NAtFMM=   60 NAOKFM=F Big=F
 Integral buffers will be    131072 words long.
 Raffenetti 2 integral format.
 Two-electron integral symmetry is turned on.
 Nuclear repulsion after empirical dispersion term =      699.6727649376 Hartrees.
 One-electron integrals computed using PRISM.
 NBasis=   280 RedAO= T EigKep=  2.73D-03  NBF=   280
 NBsUse=   280 1.00D-06 EigRej= -1.00D+00 NBFU=   280
 ExpMin= 1.61D-01 ExpMax= 5.48D+03 ExpMxC= 8.25D+02 IAcc=3 IRadAn=         5 AccDes= 0.00D+00
 Harris functional with IExCor=  402 and IRadAn=       5 diagonalized for initial guess.
 HarFok:  IExCor=  402 AccDes= 0.00D+00 IRadAn=         5 IDoV= 1 UseB2=F ITyADJ=14
 ICtDFT=  3500011 ScaDFX=  1.000000  1.000000  1.000000  1.000000
 FoFCou: FMM=F IPFlag=           0 FMFlag=      100000 FMFlg1=           0
         NFxFlg=           0 DoJE=T BraDBF=F KetDBF=T FulRan=T
         wScrn=  0.000000 ICntrl=       500 IOpCl=  0 I1Cent=   200000004 NGrid=           0
         NMat0=    1 NMatS0=      1 NMatT0=    0 NMatD0=    1 NMtDS0=    0 NMtDT0=    0
 Petite list used in FoFCou.
 Requested convergence on RMS density matrix=1.00D-08 within 128 cycles.
 Requested convergence on MAX density matrix=1.00D-06.
 Requested convergence on             energy=1.00D-06.
 No special actions if energy rises.
 Integral accuracy reduced to 1.0D-05 until final iterations.
 Initial convergence to 1.0D-05 achieved.  Increase integral accuracy.
 SCF Done:  E(RB3LYP) =  -543.665482053     A.U. after   13 cycles
            NFock= 13  Conv=0.41D-08     -V/T= 2.0096

 **********************************************************************

            Population analysis using the SCF Density.

 **********************************************************************

 Orbital symmetries:
       Occupied  (A) (A) (A) (A) (A) (A) (A) (A) (A) (A) (A) (A)
                 (A) (A) (A) (A) (A) (A) (A) (A) (A) (A) (A) (A)
                 (A) (A) (A) (A) (A) (A) (A) (A) (A) (A) (A) (A)
                 (A) (A) (A) (A) (A) (A) (A) (A) (A) (A) (A) (A)
       Virtual   (A) (A) (A) (A) (A) (A) (A) (A) (A) (A) (A) (A)
                 (A) (A) (A) (A) (A) (A) (A) (A) (A) (A) (A) (A)
                 (A) (A) (A) (A) (A) (A) (A) (A) (A) (A) (A) (A)
                 (A) (A) (A) (A) (A) (A) (A) (A) (A) (A) (A) (A)
                 (A) (A) (A) (A) (A) (A) (A) (A) (A) (A) (A) (A)
                 (A) (A) (A) (A) (A) (A) (A) (A) (A) (A) (A) (A)
                 (A) (A) (A) (A) (A) (A) (A) (A) (A) (A) (A) (A)
                 (A) (A) (A) (A) (A) (A) (A) (A) (A) (A) (A) (A)
                 (A) (A) (A) (A) (A) (A) (A) (A) (A) (A) (A) (A)
                 (A) (A) (A) (A) (A) (A) (A) (A) (A) (A) (A) (A)
                 (A) (A) (A) (A) (A) (A) (A) (A) (A) (A) (A) (A)
                 (A) (A) (A) (A) (A) (A) (A) (A) (A) (A) (A) (A)
                 (A) (A) (A) (A) (A) (A) (A) (A) (A) (A) (A) (A)
                 (A) (A) (A) (A) (A) (A) (A) (A) (A) (A) (A) (A)
                 (A) (A) (A) (A) (A) (A) (A) (A) (A) (A) (A) (A)
                 (A) (A) (A) (A) (A) (A) (A) (A) (A) (A) (A) (A)
                 (A) (A) (A) (A) (A) (A) (A) (A) (A) (A) (A) (A)
                 (A) (A) (A) (A) (A) (A) (A) (A) (A) (A) (A) (A)
                 (A) (A) (A) (A) (A) (A) (A) (A) (A) (A) (A) (A)
                 (A) (A) (A) (A)
 The electronic state is 1-A.
 Alpha  occ. eigenvalues --  -19.19952 -19.13704 -10.32054 -10.19883 -10.19127
 Alpha  occ. eigenvalues --  -10.18084 -10.17498 -10.17370 -10.17342 -10.17265
 Alpha  occ. eigenvalues --  -10.17235 -10.16768  -1.10783  -1.01084  -0.81155
 Alpha  occ. eigenvalues --   -0.79405  -0.76440  -0.72783  -0.68711  -0.63984
 Alpha  occ. eigenvalues --   -0.61274  -0.59535  -0.56974  -0.56089  -0.48470
 Alpha  occ. eigenvalues --   -0.48350  -0.47078  -0.46064  -0.44966  -0.44465
 Alpha  occ. eigenvalues --   -0.42222  -0.41820  -0.40903  -0.39721  -0.39312
 Alpha  occ. eigenvalues --   -0.37822  -0.36729  -0.36361  -0.35022  -0.34206
 Alpha  occ. eigenvalues --   -0.33434  -0.32933  -0.32214  -0.31802  -0.31432
 Alpha  occ. eigenvalues --   -0.30602  -0.29817  -0.26916
 Alpha virt. eigenvalues --    0.00740   0.07548   0.09405   0.10052   0.11596
 Alpha virt. eigenvalues --    0.11828   0.12144   0.13781   0.14384   0.15063
 Alpha virt. eigenvalues --    0.15666   0.16974   0.17389   0.17904   0.18322
 Alpha virt. eigenvalues --    0.19042   0.19491   0.20041   0.20202   0.21238
 Alpha virt. eigenvalues --    0.21958   0.22263   0.22602   0.22911   0.25024
 Alpha virt. eigenvalues --    0.25951   0.26461   0.27132   0.29147   0.30570
 Alpha virt. eigenvalues --    0.31123   0.36539   0.48963   0.49362   0.49995
 Alpha virt. eigenvalues --    0.50353   0.52553   0.54407   0.54947   0.55243
 Alpha virt. eigenvalues --    0.56901   0.57481   0.59370   0.60377   0.61148
 Alpha virt. eigenvalues --    0.63246   0.64327   0.65853   0.67346   0.67430
 Alpha virt. eigenvalues --    0.67789   0.69378   0.70069   0.73461   0.74827
 Alpha virt. eigenvalues --    0.75855   0.76526   0.78387   0.79464   0.81173
 Alpha virt. eigenvalues --    0.82704   0.84083   0.85210   0.85745   0.86297
 Alpha virt. eigenvalues --    0.87542   0.88556   0.89189   0.90104   0.90973
 Alpha virt. eigenvalues --    0.91410   0.91821   0.92827   0.92888   0.93933
 Alpha virt. eigenvalues --    0.94098   0.94776   0.95955   0.96454   0.97054
 Alpha virt. eigenvalues --    0.98235   0.98806   1.00013   1.01148   1.03192
 Alpha virt. eigenvalues --    1.06025   1.08120   1.09877   1.12444   1.17922
 Alpha virt. eigenvalues --    1.21202   1.27766   1.29895   1.32961   1.34213
 Alpha virt. eigenvalues --    1.37211   1.39931   1.41324   1.44198   1.45529
 Alpha virt. eigenvalues --    1.46857   1.50639   1.52737   1.57171   1.58851
 Alpha virt. eigenvalues --    1.59721   1.62443   1.63709   1.65398   1.68440
 Alpha virt. eigenvalues --    1.69223   1.70193   1.70865   1.73225   1.74099
 Alpha virt. eigenvalues --    1.76450   1.78852   1.79597   1.80817   1.81088
 Alpha virt. eigenvalues --    1.83898   1.86013   1.87694   1.88132   1.88931
 Alpha virt. eigenvalues --    1.90367   1.91319   1.91506   1.94882   1.95843
 Alpha virt. eigenvalues --    2.00854   2.01688   2.05849   2.06008   2.08007
 Alpha virt. eigenvalues --    2.09661   2.11511   2.11932   2.12631   2.13222
 Alpha virt. eigenvalues --    2.14617   2.16793   2.17818   2.18645   2.19487
 Alpha virt. eigenvalues --    2.22014   2.24268   2.24483   2.25487   2.27261
 Alpha virt. eigenvalues --    2.27741   2.29187   2.30190   2.30321   2.31457
 Alpha virt. eigenvalues --    2.33741   2.36873   2.38498   2.39632   2.40338
 Alpha virt. eigenvalues --    2.42988   2.43869   2.45536   2.47349   2.49771
 Alpha virt. eigenvalues --    2.52336   2.53435   2.54993   2.57363   2.59082
 Alpha virt. eigenvalues --    2.60828   2.61518   2.63062   2.64010   2.65735
 Alpha virt. eigenvalues --    2.68914   2.71564   2.71735   2.74142   2.75623
 Alpha virt. eigenvalues --    2.77294   2.78092   2.81368   2.81969   2.83556
 Alpha virt. eigenvalues --    2.85072   2.87172   2.87769   2.88808   2.89949
 Alpha virt. eigenvalues --    2.90991   2.91547   2.91732   2.92264   2.93004
 Alpha virt. eigenvalues --    2.93374   2.94892   2.97898   3.02204   3.11558
 Alpha virt. eigenvalues --    3.19910   3.24785   3.27979   3.30866   3.31984
 Alpha virt. eigenvalues --    3.32901   3.32984   3.35218   3.37437   3.38449
 Alpha virt. eigenvalues --    3.41991   3.44298   3.45784   3.48852   3.49907
 Alpha virt. eigenvalues --    3.53480   3.55159   3.58026   3.59983   3.60777
 Alpha virt. eigenvalues --    3.91739   4.12975   4.24882   4.30000   4.33900
 Alpha virt. eigenvalues --    4.43445   4.51182   4.56476   4.63093   4.67307
 Alpha virt. eigenvalues --    4.69645   4.77922
          Condensed to atoms (all electrons):
               1          2          3          4          5          6
     1  O    8.121998   0.244533  -0.099559   0.004870  -0.001416   0.000030
     2  C    0.244533   4.381855   0.346339  -0.030266  -0.000370  -0.001671
     3  C   -0.099559   0.346339   5.099984   0.338523  -0.046358  -0.002897
     4  C    0.004870  -0.030266   0.338523   4.923929   0.364311  -0.039879
     5  C   -0.001416  -0.000370  -0.046358   0.364311   4.925505   0.369432
     6  C    0.000030  -0.001671  -0.002897  -0.039879   0.369432   4.911427
     7  C    0.000000   0.000002   0.000109   0.003535  -0.033902   0.374184
     8  C    0.000000  -0.000000   0.000002  -0.000125   0.003347  -0.034643
     9  C   -0.000000   0.000000   0.000000   0.000001  -0.000118   0.003505
    10  C    0.000000   0.000000   0.000000   0.000000   0.000001   0.000171
    11  C    0.000000   0.000000  -0.000000   0.000000  -0.000000  -0.000001
    12  O   -0.082890   0.568411  -0.072413   0.000354   0.000942  -0.000597
    13  H    0.268247  -0.009200   0.010895  -0.000378  -0.000058   0.000000
    14  H    0.001494  -0.025518   0.358652  -0.022756   0.004520   0.000017
    15  H    0.003302  -0.033385   0.379109  -0.031892  -0.005978   0.003201
    16  H    0.000009   0.003856  -0.032263   0.379256  -0.040296  -0.006216
    17  H    0.004458  -0.007989  -0.035000   0.377448  -0.031541   0.004395
    18  H   -0.000012   0.000010   0.005102  -0.031668   0.380782  -0.040265
    19  H    0.001119   0.006088  -0.008708  -0.036268   0.380573  -0.038952
    20  H    0.000009   0.000709   0.001432  -0.005229  -0.035938   0.383813
    21  H   -0.000001   0.000117  -0.000983  -0.002705  -0.041716   0.380864
    22  H   -0.000000   0.000007  -0.000017   0.000097  -0.003449  -0.038469
    23  H   -0.000000  -0.000001   0.000004  -0.000002  -0.004103  -0.039653
    24  H    0.000000   0.000000  -0.000000   0.000002   0.000078  -0.004749
    25  H   -0.000000  -0.000000  -0.000002   0.000002   0.000026  -0.003777
    26  H   -0.000000  -0.000000   0.000000  -0.000000   0.000001  -0.000136
    27  H   -0.000000   0.000000  -0.000000   0.000000  -0.000001   0.000047
    28  H   -0.000000   0.000000  -0.000000  -0.000000  -0.000000  -0.000026
    29  H    0.000000  -0.000000   0.000000  -0.000000   0.000005  -0.000086
    30  H    0.000000   0.000000  -0.000000  -0.000000   0.000000  -0.000000
    31  H    0.000000  -0.000000   0.000000  -0.000000   0.000000  -0.000000
    32  H   -0.000000  -0.000000   0.000000  -0.000000   0.000000   0.000000
               7          8          9         10         11         12
     1  O    0.000000   0.000000  -0.000000   0.000000   0.000000  -0.082890
     2  C    0.000002  -0.000000   0.000000   0.000000   0.000000   0.568411
     3  C    0.000109   0.000002   0.000000   0.000000  -0.000000  -0.072413
     4  C    0.003535  -0.000125   0.000001   0.000000   0.000000   0.000354
     5  C   -0.033902   0.003347  -0.000118   0.000001  -0.000000   0.000942
     6  C    0.374184  -0.034643   0.003505   0.000171  -0.000001  -0.000597
     7  C    4.895644   0.376161  -0.037730  -0.005241   0.000155  -0.000001
     8  C    0.376161   4.911762   0.363724  -0.038904   0.003886   0.000000
     9  C   -0.037730   0.363724   4.900000   0.387498  -0.042122   0.000000
    10  C   -0.005241  -0.038904   0.387498   4.865640   0.369695   0.000000
    11  C    0.000155   0.003886  -0.042122   0.369695   4.918519   0.000000
    12  O   -0.000001   0.000000   0.000000   0.000000   0.000000   8.041619
    13  H   -0.000000   0.000000  -0.000000  -0.000000  -0.000000   0.011375
    14  H   -0.000001  -0.000000   0.000000  -0.000000  -0.000000   0.001901
    15  H   -0.000107   0.000005  -0.000000   0.000000  -0.000000   0.000990
    16  H    0.000025  -0.000001   0.000000  -0.000000   0.000000  -0.000082
    17  H   -0.000125   0.000001  -0.000000  -0.000000  -0.000000   0.000006
    18  H   -0.004320   0.000056   0.000002  -0.000000  -0.000000   0.000004
    19  H   -0.003616   0.000022   0.000002  -0.000002   0.000000  -0.000281
    20  H   -0.036645  -0.003305   0.000087  -0.000018  -0.000000   0.001984
    21  H   -0.038830  -0.003828   0.000009   0.000002   0.000000   0.000002
    22  H    0.384389  -0.038328  -0.003807   0.002491  -0.000117   0.000001
    23  H    0.382094  -0.040450  -0.003260  -0.000794  -0.000024  -0.000000
    24  H   -0.040996   0.376247  -0.032034   0.004730  -0.000165  -0.000000
    25  H   -0.039216   0.382014  -0.037291  -0.007671   0.000061  -0.000000
    26  H    0.004530  -0.031223   0.376651  -0.041453  -0.004249  -0.000000
    27  H   -0.007745  -0.037531   0.380850  -0.040664  -0.003094   0.000000
    28  H   -0.000795  -0.003355  -0.040585   0.387011  -0.038471   0.000000
    29  H    0.002376  -0.003857  -0.039202   0.387560  -0.037975  -0.000000
    30  H   -0.000018   0.000082  -0.004673  -0.034761   0.387080  -0.000000
    31  H    0.000002  -0.000159   0.004175  -0.027641   0.379201   0.000000
    32  H    0.000003   0.000013  -0.004949  -0.034649   0.387019   0.000000
              13         14         15         16         17         18
     1  O    0.268247   0.001494   0.003302   0.000009   0.004458  -0.000012
     2  C   -0.009200  -0.025518  -0.033385   0.003856  -0.007989   0.000010
     3  C    0.010895   0.358652   0.379109  -0.032263  -0.035000   0.005102
     4  C   -0.000378  -0.022756  -0.031892   0.379256   0.377448  -0.031668
     5  C   -0.000058   0.004520  -0.005978  -0.040296  -0.031541   0.380782
     6  C    0.000000   0.000017   0.003201  -0.006216   0.004395  -0.040265
     7  C   -0.000000  -0.000001  -0.000107   0.000025  -0.000125  -0.004320
     8  C    0.000000  -0.000000   0.000005  -0.000001   0.000001   0.000056
     9  C   -0.000000   0.000000  -0.000000   0.000000  -0.000000   0.000002
    10  C   -0.000000  -0.000000   0.000000  -0.000000  -0.000000  -0.000000
    11  C   -0.000000  -0.000000  -0.000000   0.000000  -0.000000  -0.000000
    12  O    0.011375   0.001901   0.000990  -0.000082   0.000006   0.000004
    13  H    0.401179  -0.000456  -0.000318   0.000015  -0.000149   0.000001
    14  H   -0.000456   0.596976  -0.032644  -0.004471  -0.004003  -0.000134
    15  H   -0.000318  -0.032644   0.583155  -0.004248   0.005204   0.000011
    16  H    0.000015  -0.004471  -0.004248   0.634725  -0.036728  -0.004097
    17  H   -0.000149  -0.004003   0.005204  -0.036728   0.621215  -0.003555
    18  H    0.000001  -0.000134   0.000011  -0.004097  -0.003555   0.638845
    19  H    0.000100  -0.000017  -0.000033   0.006042  -0.003319  -0.039543
    20  H   -0.000004   0.000071   0.001612  -0.000402  -0.000057   0.005849
    21  H    0.000000  -0.000026   0.000541   0.005051   0.000017  -0.005352
    22  H    0.000000  -0.000000   0.000010   0.000007   0.000004  -0.000601
    23  H    0.000000   0.000000  -0.000000   0.000003  -0.000004   0.005425
    24  H    0.000000  -0.000000   0.000001  -0.000002   0.000000   0.000003
    25  H    0.000000   0.000000  -0.000002   0.000000  -0.000000   0.000007
    26  H    0.000000  -0.000000   0.000000   0.000000   0.000000   0.000000
    27  H   -0.000000   0.000000  -0.000000   0.000000   0.000000  -0.000002
    28  H   -0.000000  -0.000000   0.000000   0.000000   0.000000  -0.000000
    29  H    0.000000  -0.000000   0.000000  -0.000000   0.000000   0.000001
    30  H    0.000000  -0.000000   0.000000   0.000000   0.000000  -0.000000
    31  H    0.000000   0.000000   0.000000  -0.000000   0.000000   0.000000
    32  H   -0.000000   0.000000  -0.000000  -0.000000   0.000000  -0.000000
              19         20         21         22         23         24
     1  O    0.001119   0.000009  -0.000001  -0.000000  -0.000000   0.000000
     2  C    0.006088   0.000709   0.000117   0.000007  -0.000001   0.000000
     3  C   -0.008708   0.001432  -0.000983  -0.000017   0.000004  -0.000000
     4  C   -0.036268  -0.005229  -0.002705   0.000097  -0.000002   0.000002
     5  C    0.380573  -0.035938  -0.041716  -0.003449  -0.004103   0.000078
     6  C   -0.038952   0.383813   0.380864  -0.038469  -0.039653  -0.004749
     7  C   -0.003616  -0.036645  -0.038830   0.384389   0.382094  -0.040996
     8  C    0.000022  -0.003305  -0.003828  -0.038328  -0.040450   0.376247
     9  C    0.000002   0.000087   0.000009  -0.003807  -0.003260  -0.032034
    10  C   -0.000002  -0.000018   0.000002   0.002491  -0.000794   0.004730
    11  C    0.000000  -0.000000   0.000000  -0.000117  -0.000024  -0.000165
    12  O   -0.000281   0.001984   0.000002   0.000001  -0.000000  -0.000000
    13  H    0.000100  -0.000004   0.000000   0.000000   0.000000   0.000000
    14  H   -0.000017   0.000071  -0.000026  -0.000000   0.000000  -0.000000
    15  H   -0.000033   0.001612   0.000541   0.000010  -0.000000   0.000001
    16  H    0.006042  -0.000402   0.005051   0.000007   0.000003  -0.000002
    17  H   -0.003319  -0.000057   0.000017   0.000004  -0.000004   0.000000
    18  H   -0.039543   0.005849  -0.005352  -0.000601   0.005425   0.000003
    19  H    0.634731  -0.006265   0.006049   0.004818  -0.000515   0.000007
    20  H   -0.006265   0.622414  -0.041590  -0.006040   0.005909  -0.000595
    21  H    0.006049  -0.041590   0.651037   0.006049  -0.006056   0.005401
    22  H    0.004818  -0.006040   0.006049   0.636521  -0.042333   0.006123
    23  H   -0.000515   0.005909  -0.006056  -0.042333   0.650172  -0.005391
    24  H    0.000007  -0.000595   0.005401   0.006123  -0.005391   0.654854
    25  H    0.000003   0.004722  -0.000520  -0.006199   0.006108  -0.040682
    26  H   -0.000000   0.000004  -0.000006  -0.000039   0.000044  -0.004718
    27  H    0.000000   0.000008   0.000004  -0.000186   0.005630  -0.003099
    28  H    0.000000   0.000000   0.000001   0.000475   0.000080   0.000044
    29  H   -0.000004   0.000011  -0.000001   0.002119   0.000476  -0.000042
    30  H    0.000000  -0.000000   0.000000   0.000010   0.000000   0.000003
    31  H   -0.000000   0.000000   0.000000   0.000007  -0.000000   0.000003
    32  H   -0.000000   0.000000  -0.000000  -0.000000   0.000000  -0.000006
              25         26         27         28         29         30
     1  O   -0.000000  -0.000000  -0.000000  -0.000000   0.000000   0.000000
     2  C   -0.000000  -0.000000   0.000000   0.000000  -0.000000   0.000000
     3  C   -0.000002   0.000000  -0.000000  -0.000000   0.000000  -0.000000
     4  C    0.000002  -0.000000   0.000000  -0.000000  -0.000000  -0.000000
     5  C    0.000026   0.000001  -0.000001  -0.000000   0.000005   0.000000
     6  C   -0.003777  -0.000136   0.000047  -0.000026  -0.000086  -0.000000
     7  C   -0.039216   0.004530  -0.007745  -0.000795   0.002376  -0.000018
     8  C    0.382014  -0.031223  -0.037531  -0.003355  -0.003857   0.000082
     9  C   -0.037291   0.376651   0.380850  -0.040585  -0.039202  -0.004673
    10  C   -0.007671  -0.041453  -0.040664   0.387011   0.387560  -0.034761
    11  C    0.000061  -0.004249  -0.003094  -0.038471  -0.037975   0.387080
    12  O   -0.000000  -0.000000   0.000000   0.000000  -0.000000  -0.000000
    13  H    0.000000   0.000000  -0.000000  -0.000000   0.000000   0.000000
    14  H    0.000000  -0.000000   0.000000  -0.000000  -0.000000  -0.000000
    15  H   -0.000002   0.000000  -0.000000   0.000000   0.000000   0.000000
    16  H    0.000000   0.000000   0.000000   0.000000  -0.000000   0.000000
    17  H   -0.000000   0.000000   0.000000   0.000000   0.000000   0.000000
    18  H    0.000007   0.000000  -0.000002  -0.000000   0.000001  -0.000000
    19  H    0.000003  -0.000000   0.000000   0.000000  -0.000004   0.000000
    20  H    0.004722   0.000004   0.000008   0.000000   0.000011  -0.000000
    21  H   -0.000520  -0.000006   0.000004   0.000001  -0.000001   0.000000
    22  H   -0.006199  -0.000039  -0.000186   0.000475   0.002119   0.000010
    23  H    0.006108   0.000044   0.005630   0.000080   0.000476   0.000000
    24  H   -0.040682  -0.004718  -0.003099   0.000044  -0.000042   0.000003
    25  H    0.641450  -0.003036   0.006058   0.005580  -0.000194   0.000008
    26  H   -0.003036   0.653267  -0.041129  -0.005438   0.006165  -0.000486
    27  H    0.006058  -0.041129   0.649897   0.006138  -0.006249   0.004627
    28  H    0.005580  -0.005438   0.006138   0.639936  -0.041386   0.005494
    29  H   -0.000194   0.006165  -0.006249  -0.041386   0.637090  -0.005060
    30  H    0.000008  -0.000486   0.004627   0.005494  -0.005060   0.612758
    31  H   -0.000001   0.000011  -0.000046  -0.003107  -0.003050  -0.032665
    32  H    0.000001   0.005229  -0.000455  -0.005026   0.005428  -0.033814
              31         32
     1  O    0.000000  -0.000000
     2  C   -0.000000  -0.000000
     3  C    0.000000   0.000000
     4  C   -0.000000  -0.000000
     5  C    0.000000   0.000000
     6  C   -0.000000   0.000000
     7  C    0.000002   0.000003
     8  C   -0.000159   0.000013
     9  C    0.004175  -0.004949
    10  C   -0.027641  -0.034649
    11  C    0.379201   0.387019
    12  O    0.000000   0.000000
    13  H    0.000000  -0.000000
    14  H    0.000000   0.000000
    15  H    0.000000  -0.000000
    16  H   -0.000000  -0.000000
    17  H    0.000000   0.000000
    18  H    0.000000  -0.000000
    19  H   -0.000000  -0.000000
    20  H    0.000000   0.000000
    21  H    0.000000  -0.000000
    22  H    0.000007  -0.000000
    23  H   -0.000000   0.000000
    24  H    0.000003  -0.000006
    25  H   -0.000001   0.000001
    26  H    0.000011   0.005229
    27  H   -0.000046  -0.000455
    28  H   -0.003107  -0.005026
    29  H   -0.003050   0.005428
    30  H   -0.032665  -0.033814
    31  H    0.617456  -0.032676
    32  H   -0.032676   0.611983
 Mulliken charges:
               1
     1  O   -0.466192
     2  C    0.556471
     3  C   -0.241952
     4  C   -0.191163
     5  C   -0.184281
     6  C   -0.179070
     7  C   -0.173921
     8  C   -0.181614
     9  C   -0.170732
    10  C   -0.172999
    11  C   -0.319397
    12  O   -0.471323
    13  H    0.318751
    14  H    0.126394
    15  H    0.131466
    16  H    0.099818
    17  H    0.109720
    18  H    0.093450
    19  H    0.097968
    20  H    0.107454
    21  H    0.086470
    22  H    0.096457
    23  H    0.086638
    24  H    0.084981
    25  H    0.092549
    26  H    0.086008
    27  H    0.086942
    28  H    0.093430
    29  H    0.095875
    30  H    0.101414
    31  H    0.098490
    32  H    0.101899
 Sum of Mulliken charges =  -0.00000
 Mulliken charges with hydrogens summed into heavy atoms:
               1
     1  O   -0.147442
     2  C    0.556471
     3  C    0.015908
     4  C    0.018375
     5  C    0.007136
     6  C    0.014853
     7  C    0.009174
     8  C   -0.004084
     9  C    0.002218
    10  C    0.016306
    11  C   -0.017594
    12  O   -0.471323
 Electronic spatial extent (au):  <R**2>=           4515.2575
 Charge=             -0.0000 electrons
 Dipole moment (field-independent basis, Debye):
    X=             -0.5446    Y=             -1.1151    Z=             -1.0309  Tot=              1.6133
 Quadrupole moment (field-independent basis, Debye-Ang):
   XX=            -73.1248   YY=            -75.7084   ZZ=            -77.0502
   XY=              0.6885   XZ=              2.5194   YZ=             -4.6942
 Traceless Quadrupole moment (field-independent basis, Debye-Ang):
   XX=              2.1697   YY=             -0.4140   ZZ=             -1.7557
   XY=              0.6885   XZ=              2.5194   YZ=             -4.6942
 Octapole moment (field-independent basis, Debye-Ang**2):
  XXX=            -61.9454  YYY=             12.6426  ZZZ=             -1.6564  XYY=            -19.1235
  XXY=             11.4818  XXZ=             -1.7083  XZZ=             -7.6458  YZZ=              2.6137
  YYZ=            -12.7137  XYZ=             16.9753
 Hexadecapole moment (field-independent basis, Debye-Ang**3):
 XXXX=          -4946.6814 YYYY=           -643.4256 ZZZZ=           -322.7429 XXXY=           -116.4501
 XXXZ=             16.3477 YYYX=            -63.6050 YYYZ=            -27.6868 ZZZX=             11.6296
 ZZZY=             -3.0013 XXYY=           -880.8627 XXZZ=           -882.0590 YYZZ=           -159.9298
 XXYZ=            -51.7389 YYXZ=             42.6654 ZZXY=            -13.6629
 N-N= 6.996727649376D+02 E-N=-2.662676987122D+03  KE= 5.384854039117D+02
 Calling FoFJK, ICntrl=      2127 FMM=F ISym2X=0 I1Cent= 0 IOpClX= 0 NMat=1 NMatS=1 NMatT=0.
 ***** Axes restored to original set *****
 -------------------------------------------------------------------
 Center     Atomic                   Forces (Hartrees/Bohr)
 Number     Number              X              Y              Z
 -------------------------------------------------------------------
      1        8          -0.006746434   -0.008094963    0.004344947
      2        6           0.001757285   -0.022208689   -0.007160308
      3        6          -0.004116194    0.001497896   -0.005088778
      4        6           0.001038607    0.005437455   -0.002818869
      5        6           0.006629172   -0.007739909    0.003550405
      6        6          -0.002747559    0.008579960   -0.003622997
      7        6           0.006566110   -0.007718685    0.002342704
      8        6          -0.006904895    0.005762572   -0.002111410
      9        6           0.008967065    0.004347520    0.001321249
     10        6          -0.007398155   -0.005155049   -0.001364910
     11        6           0.003238111    0.001860152    0.003619585
     12        8          -0.010216065    0.009707059    0.011022872
     13        1           0.008780198    0.012050127   -0.007346074
     14        1          -0.001391036    0.002802439    0.005614643
     15        1           0.001872485    0.000599298   -0.004241625
     16        1           0.001099439   -0.004675793    0.001345308
     17        1           0.001388506    0.003213709   -0.000122391
     18        1          -0.003721867    0.000205521    0.001474206
     19        1           0.003167025    0.002764515   -0.002244016
     20        1           0.003707273   -0.000215881   -0.000778932
     21        1          -0.002255584   -0.003354763    0.002753282
     22        1           0.001569460    0.003159325   -0.001925535
     23        1          -0.004720222    0.000242676    0.000603636
     24        1          -0.001709592   -0.002723629    0.003240630
     25        1           0.004333898    0.000639893   -0.001070066
     26        1           0.000845884   -0.003611199   -0.002453410
     27        1          -0.004398161    0.001960555    0.000746006
     28        1           0.004076592   -0.001318439    0.000544328
     29        1          -0.000525677    0.003288297    0.001999443
     30        1          -0.003174659    0.000013259    0.000685103
     31        1           0.000780889    0.001913739   -0.002211526
     32        1           0.000208101   -0.003228967   -0.000647501
 -------------------------------------------------------------------
 Cartesian Forces:  Max     0.022208689 RMS     0.004935412

 GradGradGradGradGradGradGradGradGradGradGradGradGradGradGradGradGradGrad
 Berny optimization.
 FormGI is forming the generalized inverse of G from B-inverse, IUseBI=4.
 Internal  Forces:  Max     0.016906907 RMS     0.003001136
 Search for a local minimum.
 Step number   1 out of a maximum of  179
 All quantities printed in internal units (Hartrees-Bohrs-Radians)
 Mixed Optimization -- RFO/linear search
 Second derivative matrix not updated -- first step.
 ITU=  0
     Eigenvalues ---    0.00230   0.00230   0.00230   0.00230   0.00230
     Eigenvalues ---    0.00234   0.00254   0.00300   0.00418   0.00895
     Eigenvalues ---    0.02345   0.03078   0.03247   0.03247   0.03250
     Eigenvalues ---    0.03417   0.03417   0.03438   0.03663   0.04634
     Eigenvalues ---    0.04683   0.04687   0.04689   0.04735   0.04736
     Eigenvalues ---    0.04749   0.05150   0.05408   0.05465   0.08294
     Eigenvalues ---    0.08295   0.08303   0.08554   0.08561   0.08563
     Eigenvalues ---    0.08871   0.09815   0.12189   0.12190   0.12191
     Eigenvalues ---    0.12381   0.12385   0.12386   0.12599   0.13104
     Eigenvalues ---    0.16000   0.16000   0.16000   0.16000   0.21890
     Eigenvalues ---    0.21895   0.21897   0.21897   0.21909   0.21909
     Eigenvalues ---    0.21915   0.21947   0.24997   0.25000   0.27537
     Eigenvalues ---    0.28078   0.28375   0.28436   0.28468   0.28498
     Eigenvalues ---    0.28632   0.28948   0.29769   0.34538   0.34625
     Eigenvalues ---    0.34639   0.34640   0.34641   0.34645   0.34647
     Eigenvalues ---    0.34649   0.34650   0.34655   0.34658   0.34661
     Eigenvalues ---    0.34719   0.34730   0.34731   0.34738   0.34764
     Eigenvalues ---    0.34866   0.34894   0.54883   0.56030   0.94419
 RFO step:  Lambda=-5.50667713D-03 EMin= 2.30000000D-03
 Linear search not attempted -- first point.
 Iteration  1 RMS(Cart)=  0.08961954 RMS(Int)=  0.00145788
 Iteration  2 RMS(Cart)=  0.00340032 RMS(Int)=  0.00020653
 Iteration  3 RMS(Cart)=  0.00000492 RMS(Int)=  0.00020652
 Iteration  4 RMS(Cart)=  0.00000000 RMS(Int)=  0.00020652
 Variable       Old X    -DE/DX   Delta X   Delta X   Delta X     New X
                                 (Linear)    (Quad)   (Total)
    R1        2.55236   0.00244   0.00000   0.00440   0.00440   2.55676
    R2        1.80928   0.01617   0.00000   0.02859   0.02859   1.83787
    R3        2.88427  -0.00972   0.00000  -0.03205  -0.03205   2.85222
    R4        2.30961  -0.01691   0.00000  -0.01780  -0.01780   2.29180
    R5        2.93162  -0.00957   0.00000  -0.03408  -0.03408   2.89755
    R6        2.05847   0.00501   0.00000   0.01413   0.01413   2.07261
    R7        2.05893   0.00133   0.00000   0.00375   0.00375   2.06268
    R8        2.91967  -0.00663   0.00000  -0.02316  -0.02316   2.89652
    R9        2.06265   0.00352   0.00000   0.01000   0.01000   2.07265
   R10        2.06432   0.00238   0.00000   0.00680   0.00680   2.07111
   R11        2.91127  -0.00458   0.00000  -0.01578  -0.01578   2.89549
   R12        2.06255   0.00378   0.00000   0.01075   0.01075   2.07330
   R13        2.06251   0.00449   0.00000   0.01277   0.01277   2.07528
   R14        2.90778  -0.00375   0.00000  -0.01287  -0.01287   2.89492
   R15        2.06238   0.00376   0.00000   0.01068   0.01068   2.07306
   R16        2.06229   0.00484   0.00000   0.01376   0.01376   2.07605
   R17        2.91195  -0.00459   0.00000  -0.01582  -0.01582   2.89613
   R18        2.06134   0.00401   0.00000   0.01137   0.01137   2.07270
   R19        2.06249   0.00473   0.00000   0.01345   0.01345   2.07594
   R20        2.91326  -0.00323   0.00000  -0.01116  -0.01116   2.90210
   R21        2.06233   0.00444   0.00000   0.01261   0.01261   2.07494
   R22        2.06288   0.00430   0.00000   0.01224   0.01224   2.07512
   R23        2.91062  -0.00442   0.00000  -0.01522  -0.01522   2.89540
   R24        2.06264   0.00432   0.00000   0.01227   0.01227   2.07491
   R25        2.06246   0.00469   0.00000   0.01332   0.01332   2.07578
   R26        2.90111  -0.00182   0.00000  -0.00616  -0.00616   2.89495
   R27        2.06261   0.00410   0.00000   0.01164   0.01164   2.07425
   R28        2.06114   0.00380   0.00000   0.01077   0.01077   2.07191
   R29        2.06115   0.00319   0.00000   0.00904   0.00904   2.07020
   R30        2.06061   0.00301   0.00000   0.00852   0.00852   2.06912
   R31        2.06103   0.00322   0.00000   0.00913   0.00913   2.07016
    A1        1.81658   0.00692   0.00000   0.04183   0.04183   1.85842
    A2        1.96592  -0.00110   0.00000  -0.00389  -0.00475   1.96117
    A3        2.15270  -0.00610   0.00000  -0.02343  -0.02425   2.12845
    A4        2.16439   0.00722   0.00000   0.02867   0.02778   2.19217
    A5        2.01101  -0.00624   0.00000  -0.03697  -0.03728   1.97373
    A6        1.87000   0.00387   0.00000   0.01852   0.01824   1.88824
    A7        1.88496  -0.00110   0.00000  -0.02331  -0.02331   1.86166
    A8        1.92113  -0.00114   0.00000  -0.01131  -0.01141   1.90972
    A9        1.92568   0.00398   0.00000   0.02128   0.02064   1.94632
   A10        1.84273   0.00123   0.00000   0.03810   0.03811   1.88084
   A11        2.02301  -0.00704   0.00000  -0.03955  -0.03979   1.98322
   A12        1.89739  -0.00000   0.00000  -0.01377  -0.01371   1.88368
   A13        1.90511   0.00187   0.00000   0.00244   0.00242   1.90754
   A14        1.89801   0.00354   0.00000   0.01860   0.01795   1.91597
   A15        1.90005   0.00195   0.00000   0.00835   0.00800   1.90805
   A16        1.83055   0.00038   0.00000   0.03105   0.03082   1.86137
   A17        1.99179   0.00043   0.00000  -0.00077  -0.00081   1.99098
   A18        1.89274  -0.00079   0.00000  -0.00335  -0.00335   1.88939
   A19        1.91725  -0.00025   0.00000  -0.00700  -0.00706   1.91019
   A20        1.90305   0.00063   0.00000   0.00925   0.00926   1.91232
   A21        1.91232  -0.00076   0.00000  -0.00938  -0.00943   1.90288
   A22        1.84042   0.00077   0.00000   0.01262   0.01265   1.85307
   A23        1.96706   0.00062   0.00000   0.00180   0.00180   1.96886
   A24        1.91322  -0.00020   0.00000  -0.00086  -0.00086   1.91236
   A25        1.91157  -0.00040   0.00000  -0.00345  -0.00345   1.90813
   A26        1.90181  -0.00026   0.00000  -0.00096  -0.00096   1.90085
   A27        1.91148  -0.00018   0.00000  -0.00145  -0.00145   1.91004
   A28        1.85532   0.00041   0.00000   0.00513   0.00513   1.86045
   A29        1.96676   0.00068   0.00000   0.00265   0.00265   1.96941
   A30        1.90235  -0.00042   0.00000  -0.00174  -0.00174   1.90061
   A31        1.91130  -0.00007   0.00000  -0.00079  -0.00079   1.91052
   A32        1.91554   0.00004   0.00000   0.00179   0.00179   1.91733
   A33        1.90996  -0.00052   0.00000  -0.00434  -0.00434   1.90563
   A34        1.85454   0.00027   0.00000   0.00242   0.00243   1.85696
   A35        1.99376   0.00019   0.00000  -0.00108  -0.00111   1.99265
   A36        1.90124  -0.00053   0.00000  -0.00173  -0.00174   1.89951
   A37        1.91469  -0.00057   0.00000  -0.01008  -0.01012   1.90457
   A38        1.89225   0.00062   0.00000   0.00971   0.00971   1.90196
   A39        1.91114  -0.00019   0.00000  -0.00472  -0.00478   1.90636
   A40        1.84470   0.00053   0.00000   0.00902   0.00902   1.85372
   A41        1.99346   0.00054   0.00000   0.00069   0.00066   1.99412
   A42        1.89196   0.00052   0.00000   0.00944   0.00944   1.90140
   A43        1.91167  -0.00024   0.00000  -0.00449  -0.00454   1.90713
   A44        1.90041  -0.00064   0.00000  -0.00228  -0.00229   1.89812
   A45        1.91553  -0.00073   0.00000  -0.01082  -0.01085   1.90468
   A46        1.84474   0.00056   0.00000   0.00841   0.00841   1.85315
   A47        1.96580   0.00037   0.00000   0.00131   0.00132   1.96712
   A48        1.91436  -0.00106   0.00000  -0.01130  -0.01131   1.90305
   A49        1.92125  -0.00046   0.00000  -0.00442  -0.00443   1.91681
   A50        1.90620   0.00065   0.00000   0.00644   0.00643   1.91263
   A51        1.89973   0.00030   0.00000   0.00591   0.00591   1.90564
   A52        1.85301   0.00022   0.00000   0.00230   0.00223   1.85524
   A53        1.94321  -0.00056   0.00000  -0.00471  -0.00473   1.93847
   A54        1.93701   0.00085   0.00000   0.00755   0.00756   1.94457
   A55        1.94378  -0.00066   0.00000  -0.00508  -0.00510   1.93869
   A56        1.87754   0.00009   0.00000   0.00266   0.00267   1.88021
   A57        1.88210   0.00012   0.00000  -0.00378  -0.00383   1.87827
   A58        1.87722   0.00019   0.00000   0.00358   0.00358   1.88080
    D1        3.13891   0.00058   0.00000   0.03665   0.03565  -3.10862
    D2        0.01675  -0.00063   0.00000  -0.03853  -0.03754  -0.02079
    D3        1.04202  -0.00150   0.00000  -0.04993  -0.05063   0.99139
    D4       -1.10198   0.00121   0.00000  -0.02457  -0.02484  -1.12682
    D5       -3.07969  -0.00156   0.00000  -0.06646  -0.06639   3.13711
    D6       -2.11917  -0.00046   0.00000   0.02515   0.02506  -2.09411
    D7        2.02002   0.00226   0.00000   0.05052   0.05085   2.07087
    D8        0.04231  -0.00051   0.00000   0.00863   0.00930   0.05161
    D9        1.01545  -0.00138   0.00000  -0.04304  -0.04339   0.97206
   D10       -3.12434  -0.00174   0.00000  -0.05773  -0.05773   3.10112
   D11       -1.13686  -0.00032   0.00000  -0.02707  -0.02737  -1.16423
   D12        3.13195  -0.00162   0.00000  -0.05380  -0.05384   3.07810
   D13       -1.00784  -0.00198   0.00000  -0.06848  -0.06818  -1.07602
   D14        0.97964  -0.00056   0.00000  -0.03782  -0.03783   0.94181
   D15       -1.12442   0.00154   0.00000  -0.00155  -0.00154  -1.12596
   D16        1.01898   0.00118   0.00000  -0.01624  -0.01588   1.00310
   D17        3.00646   0.00260   0.00000   0.01442   0.01447   3.02093
   D18        1.05969  -0.00104   0.00000  -0.03861  -0.03869   1.02100
   D19       -3.09871  -0.00052   0.00000  -0.02971  -0.02980  -3.12850
   D20       -1.09562  -0.00017   0.00000  -0.02028  -0.02037  -1.11599
   D21       -1.08338   0.00119   0.00000  -0.00688  -0.00667  -1.09005
   D22        1.04141   0.00171   0.00000   0.00203   0.00223   1.04363
   D23        3.04449   0.00206   0.00000   0.01146   0.01165   3.05615
   D24       -3.06855  -0.00213   0.00000  -0.05753  -0.05763  -3.12618
   D25       -0.94376  -0.00160   0.00000  -0.04862  -0.04874  -0.99249
   D26        1.05933  -0.00126   0.00000  -0.03919  -0.03931   1.02002
   D27        3.07427   0.00007   0.00000   0.00269   0.00268   3.07695
   D28       -1.08756   0.00002   0.00000   0.00207   0.00206  -1.08550
   D29        0.94172   0.00017   0.00000   0.00579   0.00577   0.94749
   D30        0.95517   0.00034   0.00000   0.00073   0.00072   0.95589
   D31        3.07652   0.00029   0.00000   0.00011   0.00010   3.07662
   D32       -1.17738   0.00043   0.00000   0.00382   0.00381  -1.17357
   D33       -1.05095  -0.00052   0.00000  -0.01433  -0.01431  -1.06526
   D34        1.07041  -0.00057   0.00000  -0.01495  -0.01493   1.05548
   D35        3.09969  -0.00043   0.00000  -0.01123  -0.01121   3.08848
   D36        3.13448   0.00020   0.00000   0.00134   0.00134   3.13582
   D37        1.00353  -0.00000   0.00000  -0.00148  -0.00148   1.00205
   D38       -1.01851  -0.00005   0.00000  -0.00297  -0.00297  -1.02148
   D39        1.00667   0.00022   0.00000   0.00191   0.00191   1.00858
   D40       -1.12428   0.00002   0.00000  -0.00091  -0.00091  -1.12519
   D41        3.13687  -0.00003   0.00000  -0.00240  -0.00240   3.13447
   D42       -1.01611  -0.00002   0.00000  -0.00289  -0.00289  -1.01899
   D43        3.13613  -0.00022   0.00000  -0.00570  -0.00570   3.13043
   D44        1.11409  -0.00027   0.00000  -0.00719  -0.00719   1.10690
   D45        3.07573   0.00041   0.00000   0.01120   0.01119   3.08691
   D46        0.95726  -0.00013   0.00000   0.00070   0.00070   0.95796
   D47       -1.05426  -0.00015   0.00000  -0.00359  -0.00358  -1.05784
   D48       -1.08397   0.00037   0.00000   0.01206   0.01204  -1.07192
   D49        3.08075  -0.00017   0.00000   0.00156   0.00156   3.08231
   D50        1.06923  -0.00020   0.00000  -0.00274  -0.00272   1.06651
   D51        0.94477   0.00041   0.00000   0.01351   0.01349   0.95826
   D52       -1.17370  -0.00013   0.00000   0.00301   0.00301  -1.17069
   D53        3.09797  -0.00015   0.00000  -0.00128  -0.00127   3.09670
   D54        1.15898  -0.00053   0.00000  -0.02451  -0.02452   1.13446
   D55       -3.00226  -0.00060   0.00000  -0.02006  -0.02005  -3.02232
   D56       -0.99744   0.00022   0.00000  -0.00732  -0.00732  -1.00476
   D57       -3.00078  -0.00063   0.00000  -0.02033  -0.02034  -3.02112
   D58       -0.87884  -0.00070   0.00000  -0.01588  -0.01587  -0.89471
   D59        1.12598   0.00013   0.00000  -0.00314  -0.00314   1.12285
   D60       -0.99614   0.00024   0.00000  -0.00685  -0.00686  -1.00300
   D61        1.12581   0.00017   0.00000  -0.00240  -0.00240   1.12341
   D62        3.13063   0.00099   0.00000   0.01035   0.01034   3.14097
   D63        3.07403   0.00039   0.00000   0.01069   0.01068   3.08472
   D64        0.94712   0.00007   0.00000   0.00962   0.00962   0.95673
   D65       -1.08560   0.00070   0.00000   0.01602   0.01599  -1.06961
   D66        0.95675  -0.00018   0.00000  -0.00025  -0.00025   0.95651
   D67       -1.17016  -0.00050   0.00000  -0.00133  -0.00131  -1.17147
   D68        3.08030   0.00013   0.00000   0.00507   0.00506   3.08536
   D69       -1.05481  -0.00010   0.00000  -0.00311  -0.00310  -1.05791
   D70        3.10146  -0.00043   0.00000  -0.00419  -0.00417   3.09729
   D71        1.06873   0.00021   0.00000   0.00221   0.00221   1.07094
   D72        1.04881  -0.00016   0.00000  -0.00271  -0.00269   1.04612
   D73        3.13976   0.00015   0.00000   0.00258   0.00258  -3.14084
   D74       -1.05250   0.00052   0.00000   0.00878   0.00877  -1.04372
   D75       -3.10285  -0.00081   0.00000  -0.01166  -0.01166  -3.11450
   D76       -1.01190  -0.00049   0.00000  -0.00637  -0.00638  -1.01828
   D77        1.07903  -0.00012   0.00000  -0.00017  -0.00019   1.07884
   D78       -1.08690  -0.00003   0.00000  -0.00216  -0.00214  -1.08903
   D79        1.00405   0.00029   0.00000   0.00313   0.00313   1.00719
   D80        3.09498   0.00066   0.00000   0.00933   0.00933   3.10431
         Item               Value     Threshold  Converged?
 Maximum Force            0.016907     0.000450     NO 
 RMS     Force            0.003001     0.000300     NO 
 Maximum Displacement     0.536888     0.001800     NO 
 RMS     Displacement     0.090505     0.001200     NO 
 Predicted change in Energy=-2.926665D-03
 GradGradGradGradGradGradGradGradGradGradGradGradGradGradGradGradGradGrad

                          Input orientation:                          
 ---------------------------------------------------------------------
 Center     Atomic      Atomic             Coordinates (Angstroms)
 Number     Number       Type             X           Y           Z
 ---------------------------------------------------------------------
      1          8           0        5.047596    0.363022    0.113737
      2          6           0        5.254621   -0.927007   -0.237714
      3          6           0        4.454030   -1.888006    0.607044
      4          6           0        2.946559   -1.610335    0.568509
      5          6           0        2.359580   -1.600866   -0.847383
      6          6           0        2.564580   -2.909386   -1.617756
      7          6           0        1.889587   -2.900871   -2.992929
      8          6           0        2.100982   -4.206326   -3.767435
      9          6           0        1.373812   -4.260403   -5.119008
     10          6           0        1.876693   -3.240163   -6.145554
     11          6           0        1.183108   -3.377579   -7.504562
     12          8           0        5.965110   -1.231506   -1.172217
     13          1           0        5.575466    0.903856   -0.498409
     14          1           0        4.811974   -1.814844    1.641183
     15          1           0        4.685701   -2.891206    0.244635
     16          1           0        2.446469   -2.377241    1.172444
     17          1           0        2.743135   -0.647961    1.051870
     18          1           0        1.286995   -1.382246   -0.773290
     19          1           0        2.801225   -0.774884   -1.420734
     20          1           0        3.637899   -3.093857   -1.749664
     21          1           0        2.173056   -3.746341   -1.023509
     22          1           0        2.278196   -2.055776   -3.574160
     23          1           0        0.812282   -2.723969   -2.870831
     24          1           0        1.762460   -5.045926   -3.146059
     25          1           0        3.176398   -4.358632   -3.929054
     26          1           0        1.480933   -5.268265   -5.541304
     27          1           0        0.297839   -4.108758   -4.958103
     28          1           0        2.960163   -3.363070   -6.271317
     29          1           0        1.724555   -2.223395   -5.764572
     30          1           0        0.101407   -3.231571   -7.411150
     31          1           0        1.558439   -2.639887   -8.221370
     32          1           0        1.347652   -4.372702   -7.932039
 ---------------------------------------------------------------------
                    Distance matrix (angstroms):
                    1          2          3          4          5
     1  O    0.000000
     2  C    1.352979   0.000000
     3  C    2.379664   1.509330   0.000000
     4  C    2.918101   2.538520   1.533316   0.000000
     5  C    3.464973   3.034311   2.566034   1.532770   0.000000
     6  C    4.457812   3.615337   3.092406   2.571613   1.532228
     7  C    5.502489   4.776065   4.534541   3.932749   2.552307
     8  C    6.680192   5.758325   5.481561   5.123922   3.921989
     9  C    7.890143   7.071014   6.921249   6.468713   5.127539
[...]
    13  H   -0.000004   0.000000  -0.000000  -0.000000  -0.000000   0.006633
    14  H    0.000054  -0.000003   0.000000   0.000000  -0.000000   0.003606
    15  H    0.000407   0.000036   0.000001  -0.000000   0.000000   0.003576
    16  H    0.000115  -0.000013   0.000001  -0.000000  -0.000000  -0.000489
    17  H   -0.000879   0.000036  -0.000001   0.000000  -0.000000   0.000109
    18  H   -0.004989  -0.000135  -0.000063   0.000040   0.000000   0.000052
    19  H    0.002178  -0.000631   0.000070  -0.000059   0.000000  -0.003441
    20  H   -0.028541  -0.004657   0.000458   0.000111  -0.000001   0.008397
    21  H   -0.040441  -0.006586   0.000214  -0.000160   0.000004   0.000285
    22  H    0.429514  -0.041775  -0.007327   0.000020   0.000654   0.000465
    23  H    0.431214  -0.048736   0.006546  -0.002885  -0.000106  -0.000011
    24  H   -0.045967   0.433904  -0.048476   0.009312  -0.000397   0.000003
    25  H   -0.067446   0.446272  -0.033654  -0.011115  -0.000194   0.000003
    26  H    0.012003  -0.052894   0.432972  -0.040474  -0.004770  -0.000000
    27  H   -0.014431  -0.028788   0.427974  -0.059013  -0.003323   0.000000
    28  H   -0.004782   0.007943  -0.055080   0.419446  -0.038143   0.000001
    29  H    0.004878  -0.010569  -0.048629   0.427557  -0.037457  -0.000002
    30  H   -0.000025   0.000039  -0.006220  -0.040332   0.412915   0.000000
    31  H    0.000061  -0.000860   0.012496  -0.052243   0.422909   0.000000
    32  H   -0.000008  -0.000322  -0.007313  -0.044296   0.419222   0.000000
              13         14         15         16         17         18
     1  O    0.287194   0.003486   0.003998  -0.000136   0.003341  -0.000248
     2  C   -0.022994  -0.020833  -0.051712   0.007560  -0.005927  -0.000647
     3  C    0.015521   0.404395   0.432828  -0.056553  -0.031905   0.011912
     4  C   -0.001565  -0.043966  -0.027555   0.428853   0.445092  -0.049401
     5  C    0.000384   0.010308  -0.007138  -0.031851  -0.066683   0.432410
     6  C    0.000002  -0.000545  -0.002961  -0.007380   0.012000  -0.040355
     7  C   -0.000004   0.000054   0.000407   0.000115  -0.000879  -0.004989
     8  C    0.000000  -0.000003   0.000036  -0.000013   0.000036  -0.000135
     9  C   -0.000000   0.000000   0.000001   0.000001  -0.000001  -0.000063
    10  C   -0.000000   0.000000  -0.000000  -0.000000   0.000000   0.000040
    11  C   -0.000000  -0.000000   0.000000  -0.000000  -0.000000   0.000000
    12  O    0.006633   0.003606   0.003576  -0.000489   0.000109   0.000052
    13  H    0.381215  -0.000851  -0.000720   0.000078  -0.000254   0.000006
    14  H   -0.000851   0.500167  -0.015586  -0.005211  -0.004495  -0.000119
    15  H   -0.000720  -0.015586   0.489275  -0.004007   0.004535  -0.000628
    16  H    0.000078  -0.005211  -0.004007   0.529725  -0.017673  -0.003402
    17  H   -0.000254  -0.004495   0.004535  -0.017673   0.505901  -0.005673
    18  H    0.000006  -0.000119  -0.000628  -0.003402  -0.005673   0.526806
    19  H    0.000028  -0.000590   0.001302   0.005584  -0.002014  -0.019448
    20  H   -0.000045   0.000910  -0.008226   0.001007  -0.000637   0.004019
    21  H   -0.000001  -0.000182   0.002500   0.000101   0.000191  -0.000682
    22  H    0.000001  -0.000001   0.000037  -0.000045   0.000025   0.001217
    23  H    0.000000   0.000003  -0.000040   0.000165  -0.000035   0.000359
    24  H   -0.000000   0.000000  -0.000004  -0.000009   0.000001   0.000159
    25  H    0.000000  -0.000000   0.000035   0.000002   0.000000  -0.000059
    26  H    0.000000  -0.000000  -0.000000   0.000000   0.000000   0.000001
    27  H   -0.000000  -0.000000   0.000000  -0.000000   0.000000  -0.000022
    28  H   -0.000000  -0.000000   0.000000  -0.000000   0.000000  -0.000002
    29  H    0.000000   0.000000  -0.000000   0.000000  -0.000000   0.000009
    30  H    0.000000  -0.000000  -0.000000  -0.000000   0.000000   0.000000
    31  H    0.000000  -0.000000  -0.000000   0.000000   0.000000   0.000000
    32  H    0.000000   0.000000   0.000000  -0.000000  -0.000000  -0.000000
              19         20         21         22         23         24
     1  O    0.002396   0.000383  -0.000011  -0.000026  -0.000001  -0.000000
     2  C    0.004771  -0.003369   0.000564  -0.000148   0.000053  -0.000013
     3  C   -0.015058   0.010339  -0.007213   0.000352  -0.000109   0.000083
     4  C   -0.031870  -0.017014   0.012473   0.000200  -0.000274  -0.000105
     5  C    0.441140  -0.027907  -0.057254  -0.002087  -0.006684   0.000208
     6  C   -0.069598   0.416254   0.427470  -0.039675  -0.048424  -0.003490
     7  C    0.002178  -0.028541  -0.040441   0.429514   0.431214  -0.045967
     8  C   -0.000631  -0.004657  -0.006586  -0.041775  -0.048736   0.433904
     9  C    0.000070   0.000458   0.000214  -0.007327   0.006546  -0.048476
    10  C   -0.000059   0.000111  -0.000160   0.000020  -0.002885   0.009312
    11  C    0.000000  -0.000001   0.000004   0.000654  -0.000106  -0.000397
    12  O   -0.003441   0.008397   0.000285   0.000465  -0.000011   0.000003
    13  H    0.000028  -0.000045  -0.000001   0.000001   0.000000  -0.000000
    14  H   -0.000590   0.000910  -0.000182  -0.000001   0.000003   0.000000
    15  H    0.001302  -0.008226   0.002500   0.000037  -0.000040  -0.000004
    16  H    0.005584   0.001007   0.000101  -0.000045   0.000165  -0.000009
    17  H   -0.002014  -0.000637   0.000191   0.000025  -0.000035   0.000001
    18  H   -0.019448   0.004019  -0.000682   0.001217   0.000359   0.000159
    19  H    0.515159  -0.001455   0.005641   0.000227   0.001080  -0.000050
    20  H   -0.001455   0.507524  -0.026671  -0.004026   0.005644   0.000698
    21  H    0.005641  -0.026671   0.540631   0.006294  -0.004113   0.001380
    22  H    0.000227  -0.004026   0.006294   0.536919  -0.029098   0.005213
    23  H    0.001080   0.005644  -0.004113  -0.029098   0.547964  -0.002065
    24  H   -0.000050   0.000698   0.001380   0.005213  -0.002065   0.543879
    25  H    0.000163   0.000190   0.001249  -0.000835   0.006056  -0.021579
    26  H    0.000000   0.000021  -0.000061  -0.000624   0.000319  -0.008165
    27  H    0.000004  -0.000066   0.000174   0.001762   0.001286  -0.002421
    28  H    0.000002  -0.000029   0.000020   0.001291   0.000100   0.000267
    29  H    0.000041   0.000060  -0.000045  -0.007859   0.001338  -0.000656
    30  H   -0.000000   0.000000   0.000000   0.000068  -0.000021   0.000022
    31  H   -0.000000   0.000000  -0.000000  -0.000024   0.000010   0.000015
    32  H    0.000000  -0.000000  -0.000000  -0.000056   0.000009  -0.000049
              25         26         27         28         29         30
     1  O    0.000000   0.000000   0.000000   0.000000   0.000000  -0.000000
     2  C    0.000029   0.000000   0.000000   0.000000   0.000000  -0.000000
     3  C   -0.000112  -0.000000  -0.000001  -0.000000  -0.000001   0.000000
     4  C    0.000089  -0.000000   0.000001  -0.000001   0.000005  -0.000000
     5  C   -0.000787   0.000024  -0.000004   0.000013  -0.000006   0.000001
     6  C   -0.002193  -0.000471  -0.000194  -0.000170   0.000916  -0.000010
     7  C   -0.067446   0.012003  -0.014431  -0.004782   0.004878  -0.000025
     8  C    0.446272  -0.052894  -0.028788   0.007943  -0.010569   0.000039
     9  C   -0.033654   0.432972   0.427974  -0.055080  -0.048629  -0.006220
    10  C   -0.011115  -0.040474  -0.059013   0.419446   0.427557  -0.040332
    11  C   -0.000194  -0.004770  -0.003323  -0.038143  -0.037457   0.412915
    12  O    0.000003  -0.000000   0.000000   0.000001  -0.000002   0.000000
    13  H    0.000000   0.000000  -0.000000  -0.000000   0.000000   0.000000
    14  H   -0.000000  -0.000000  -0.000000  -0.000000   0.000000  -0.000000
    15  H    0.000035  -0.000000   0.000000   0.000000  -0.000000  -0.000000
    16  H    0.000002   0.000000  -0.000000  -0.000000   0.000000  -0.000000
    17  H    0.000000   0.000000   0.000000   0.000000  -0.000000   0.000000
    18  H   -0.000059   0.000001  -0.000022  -0.000002   0.000009   0.000000
    19  H    0.000163   0.000000   0.000004   0.000002   0.000041  -0.000000
    20  H    0.000190   0.000021  -0.000066  -0.000029   0.000060   0.000000
    21  H    0.001249  -0.000061   0.000174   0.000020  -0.000045   0.000000
    22  H   -0.000835  -0.000624   0.001762   0.001291  -0.007859   0.000068
    23  H    0.006056   0.000319   0.001286   0.000100   0.001338  -0.000021
    24  H   -0.021579  -0.008165  -0.002421   0.000267  -0.000656   0.000022
    25  H    0.523241  -0.002233   0.006012   0.001351   0.001502  -0.000042
    26  H   -0.002233   0.543193  -0.024245  -0.003446   0.006426   0.000158
    27  H    0.006012  -0.024245   0.546740   0.007580  -0.002981   0.002606
    28  H    0.001351  -0.003446   0.007580   0.564989  -0.032615   0.007655
    29  H    0.001502   0.006426  -0.002981  -0.032615   0.567840  -0.006137
    30  H   -0.000042   0.000158   0.002606   0.007655  -0.006137   0.551406
    31  H    0.000021  -0.000059  -0.000232  -0.004364  -0.004217  -0.024885
    32  H    0.000115   0.003204   0.000331  -0.006173   0.007973  -0.032385
              31         32
     1  O   -0.000000  -0.000000
     2  C   -0.000000   0.000000
     3  C    0.000000  -0.000000
     4  C   -0.000000   0.000000
     5  C    0.000000  -0.000000
     6  C   -0.000006   0.000007
     7  C    0.000061  -0.000008
     8  C   -0.000860  -0.000322
     9  C    0.012496  -0.007313
    10  C   -0.052243  -0.044296
    11  C    0.422909   0.419222
    12  O    0.000000   0.000000
    13  H    0.000000   0.000000
    14  H   -0.000000   0.000000
    15  H   -0.000000   0.000000
    16  H    0.000000  -0.000000
    17  H    0.000000  -0.000000
    18  H    0.000000  -0.000000
    19  H   -0.000000   0.000000
    20  H    0.000000  -0.000000
    21  H   -0.000000  -0.000000
    22  H   -0.000024  -0.000056
    23  H    0.000010   0.000009
    24  H    0.000015  -0.000049
    25  H    0.000021   0.000115
    26  H   -0.000059   0.003204
    27  H   -0.000232   0.000331
    28  H   -0.004364  -0.006173
    29  H   -0.004217   0.007973
    30  H   -0.024885  -0.032385
    31  H    0.535400  -0.024957
    32  H   -0.024957   0.548391
 Mulliken charges:
               1
     1  O   -0.407461
     2  C    0.334912
     3  C   -0.330027
     4  C   -0.285133
     5  C   -0.306337
     6  C   -0.302218
     7  C   -0.306235
     8  C   -0.271070
     9  C   -0.278264
    10  C   -0.255380
    11  C   -0.429093
    12  O   -0.332858
    13  H    0.335372
    14  H    0.169450
    15  H    0.180049
    16  H    0.153578
    17  H    0.164946
    18  H    0.148881
    19  H    0.164427
    20  H    0.166633
    21  H    0.144229
    22  H    0.149349
    23  H    0.140457
    24  H    0.138303
    25  H    0.153919
    26  H    0.139120
    27  H    0.141250
    28  H    0.134144
    29  H    0.132627
    30  H    0.135187
    31  H    0.140935
    32  H    0.136308
 Sum of Mulliken charges =  -0.00000
 Mulliken charges with hydrogens summed into heavy atoms:
               1
     1  O   -0.072090
     2  C    0.334912
     3  C    0.019472
     4  C    0.033390
     5  C    0.006972
     6  C    0.008644
     7  C   -0.016429
     8  C    0.021152
     9  C    0.002106
    10  C    0.011391
    11  C   -0.016663
    12  O   -0.332858
 Electronic spatial extent (au):  <R**2>=           4306.0691
 Charge=              0.0000 electrons
 Dipole moment (field-independent basis, Debye):
    X=             -0.8559    Y=             -1.1541    Z=             -0.8770  Tot=              1.6834
 Quadrupole moment (field-independent basis, Debye-Ang):
   XX=            -74.8722   YY=            -75.9509   ZZ=            -78.1268
   XY=              0.5504   XZ=              1.4357   YZ=             -4.0045
 Traceless Quadrupole moment (field-independent basis, Debye-Ang):
   XX=              1.4445   YY=              0.3657   ZZ=             -1.8102
   XY=              0.5504   XZ=              1.4357   YZ=             -4.0045
 Octapole moment (field-independent basis, Debye-Ang**2):
  XXX=            -55.6977  YYY=             16.0456  ZZZ=             -0.8268  XYY=            -22.8557
  XXY=             10.3862  XXZ=              4.7545  XZZ=             -8.4952  YZZ=              2.9908
  YYZ=            -11.4499  XYZ=             13.0573
 Hexadecapole moment (field-independent basis, Debye-Ang**3):
 XXXX=          -4909.0963 YYYY=           -623.0130 ZZZZ=           -329.8628 XXXY=            -84.4980
 XXXZ=             -4.4635 YYYX=            -76.6518 YYYZ=            -27.6923 ZZZX=             10.5723
 ZZZY=             -2.1093 XXYY=           -846.4057 XXZZ=           -853.5637 YYZZ=           -158.7075
 XXYZ=            -32.1989 YYXZ=             33.2043 ZZXY=            -13.6789
 N-N= 7.096309961111D+02 E-N=-2.684257961569D+03  KE= 5.405753790608D+02
 Unable to Open any file for archive entry.
 1\1\GINC-NOTCH075\SP\RM062X\def2TZVP\C10H20O2\U6032257\03-Feb-2022\0\\
 # M062X/def2tzvp int=(grid=ultrafine) nmr=giao guess=read geom=check\\
 Ac1.xyz\\0,1\O,0,5.2483946719,0.3046976302,0.2276234974\C,0,5.22717354
 75,-0.9690603004,-0.2421764421\C,0,4.427532102,-1.883187528,0.65282523
 29\C,0,2.9155567292,-1.5826259366,0.5671101658\C,0,2.3522791951,-1.585
 7620421,-0.8602592583\C,0,2.584222959,-2.8882897697,-1.632144441\C,0,1
 .8954844011,-2.900000924,-2.9993086709\C,0,2.1472278295,-4.191334986,-
 3.7843857823\C,0,1.4084859574,-4.2725302554,-5.1265591031\C,0,1.847370
 8596,-3.2267546456,-6.1576044911\C,0,1.1467292714,-3.3969793284,-7.507
 2453125\O,0,5.7664628638,-1.2828431385,-1.2813574347\H,0,5.7469446442,
 0.8218992187,-0.4273346475\H,0,4.7654508692,-1.7545421986,1.6859742697
 \H,0,4.6421830693,-2.9069015757,0.3427019743\H,0,2.3914127083,-2.33214
 68747,1.1721052814\H,0,2.7238409886,-0.6095394443,1.0313174208\H,0,1.2
 753388509,-1.3808189017,-0.8061866951\H,0,2.7892064116,-0.7525646229,-
 1.4270086123\H,0,3.6602606468,-3.0398422314,-1.7769712051\H,0,2.223660
 0707,-3.7378033177,-1.034101453\H,0,2.2452411241,-2.0362219475,-3.5784
 906473\H,0,0.8128048665,-2.7613066174,-2.8665768863\H,0,1.8496484145,-
 5.0458906281,-3.1620768895\H,0,3.2267875791,-4.3026059444,-3.956835270
 5\H,0,1.5579589564,-5.2725974642,-5.555141647\H,0,0.3271290842,-4.1760
 90964,-4.9528703487\H,0,2.9351545052,-3.2932050514,-6.2951512813\H,0,1
 .6508007029,-2.2188428449,-5.7728961562\H,0,0.0596398483,-3.3084533507
 ,-7.400413885\H,0,1.4729269053,-2.64130392,-8.2288914893\H,0,1.3551893
 663,-4.3826500945,-7.9383697923\\Version=ES64L-G16RevC.01\State=1-A\HF
 =-543.543303\RMSD=1.926e-09\Dipole=-0.3738671,0.1916664,0.5119639\Quad
 rupole=-3.3244235,2.0410321,1.2833914,1.6945154,0.3970544,-0.4783956\P
 G=C01 [X(C10H20O2)]\\@
 The archive entry for this job was punched.


                                                                                    A
                                                                                  AA
                                                                                 AAA
                                                                                AAAA
                                                                               AAAAA
                                                                              AAAAAA   KKKKKKKK
                                                                             AAAAAAA   KKKKKKKK
                                                                            AAAAAAAA   KKKKKKKK
                                       ZZZZZZZZZZZZZZZZZZZZ                AAAA  AAA   KKKKKKKK
                                       ZZZZZZZZZZZZZZZZZZZ                AAAA   AAA   KKKKKKKK          K
                                       ZZZZZZZZZZZZZZZZZZ                AAAA    AAA   KKKKKKKK         KKK
                                       ZZZZZZZZZZZZZZZZZ                AAAA     AAA   KKKKKKKK        KKKKK
                                       ZZZZZZZZZZZZZZZZ                AAAA      AAA   KKKKKKKK       KKKKKKK
                                                ZZZZZZ                AAAA       AAA   KKKKKKKK      KKKKKKK
                                               ZZZZZZ                AAAA        AAA   KKKKKKKK     KKKKKKK
                                              ZZZZZZ                AAAA         AAA   KKKKKKKK    KKKKKKK
                                             ZZZZZZ                AAAA          AAA   KKKKKKKK   KKKKKKK
                                            ZZZZZZ                AAAAAAAAAAAAAAAAAA   KKKKKKKK  KKKKKKK
                                           ZZZZZZ                AAAAAAAAAAAAAAAAAAA   KKKKKKKK KKKKKKK
                                          ZZZZZZ                AAAAAAAAAAAAAAAAAAAA   KKKKKKKKKKKKKKK
                                         ZZZZZZ                AAAAAAAAAAAAAAAAAAAAA   KKKKKKKKKKKKKK
                                        ZZZZZZ                AAAAAA        AAAAAAAA   KKKKKKKKKKKKK
                                       ZZZZZZ                AAAAAA         AAAAAAAA   KKKKKKKKKKKK
                                      ZZZZZZ                AAAAAA          AAAAAAAA   KKKKKKKKKKK
                                     ZZZZZZ                AAAAAA           AAAAAAAA   KKKKKKKKKKKK
                                    ZZZZZZ                AAAAAA            AAAAAAAA   KKKKKKKKKKKKK
                                   ZZZZZZ                AAAAAA             AAAAAAAA   KKKKKKKKKKKKKK
                                  ZZZZZZ                AAAAAA              AAAAAAAA   KKKKKKKKKKKKKKK
                                 ZZZZZZ                AAAAAA               AAAAAAAA   KKKKK KKKKKKKKKK
                                ZZZZZZ                AAAAAA                AAAAAAAA   KKKKK  KKKKKKKKKK
                               ZZZZZZ                AAAAAA                            KKKKK   KKKKKKKKKK
                              ZZZZZZ                AAAAAA                             KKKKK    KKKKKKKKKK
                             ZZZZZZ                                                    KKKKK     KKKKKKKKKK
                            ZZZZZZ                                                     KKKKK      KKKKKKKKKK
                           ZZZZZZ                                                      KKKKK       KKKKKKKKKK
                          ZZZZZZ                                                       KKKKK        KKKKKKKKKK
                         ZZZZZZZZZZZZZZZZZZZZZZZZZZZZZZZZZZZZZZZZ                      KKKKK         KKKKKKKKKK
                        ZZZZZZZZZZZZZZZZZZZZZZZZZZZZZZZZZZZZZZZZZ                      KKKKK          KKKKKKKKKK
                       ZZZZZZZZZZZZZZZZZZZZZZZZZZZZZZZZZZZZZZZZZZ                      KKKKK           KKKKKKKKKK
                       ZZZZZZZZZZZZZZZZZZZZZZZZZZZZZZZZZZZZZZZZZZ                      KKKKK            KKKKKKKKKK
                       ZZZZZZZZZZZZZZZZZZZZZZZZZZZZZZZZZZZZZZZZZZ                      KKKKK             KKKKKKKKKK
                       ZZZZZZZZZZZZZZZZZZZZZZZZZZZZZZZZZZZZZZZZZZ                      KKKKK              KKKKKKKKKK
                       ZZZZZZZZZZZZZZZZZZZZZZZZZZZZZZZZZZZZZZZZZZ                      KKKKK               KKKKKKKKKK
                       ZZZZZZZZZZZZZZZZZZZZZZZZZZZZZZZZZZZZZZZZZZ                      KKKKK                KKKKKKKKKK
                       ZZZZZZZZZZZZZZZZZZZZZZZZZZZZZZZZZZZZZZZZZZ                      KKKKK
                                                                                       KKKKK
                                                                                          (J.P.)
 Job cpu time:       0 days  0 hours 36 minutes 38.7 seconds.
 Elapsed time:       0 days  0 hours  1 minutes 19.9 seconds.
 File lengths (MBytes):  RWF=    140 Int=      0 D2E=      0 Chk=     24 Scr=      1
 Normal termination of Gaussian 16 at Thu Feb  3 08:33:37 2022.
