 Entering Gaussian System, Link 0=/uufs/chpc.utah.edu/sys/installdir/gaussian16/C01/AVX2/g16/g16
 Input=Ac1_clust-30.com
 Output=Ac1_clust-30.log
 Initial command:
 /uufs/chpc.utah.edu/sys/installdir/gaussian16/C01/AVX2/g16/l1.exe "/scratch/general/lustre/u6032257/3857487/notchpeak.peaks/Gau-286811.inp" -scrdir="/scratch/general/lustre/u6032257/3857487/notchpeak.peaks/"
 Entering Link 1 = /uufs/chpc.utah.edu/sys/installdir/gaussian16/C01/AVX2/g16/l1.exe PID=    286813.
  
 Copyright (c) 1988-2019, Gaussian, Inc.  All Rights Reserved.
  
 This is part of the Gaussian(R) 16 program.  It is based on
 the Gaussian(R) 09 system (copyright 2009, Gaussian, Inc.),
 the Gaussian(R) 03 system (copyright 2003, Gaussian, Inc.),
 the Gaussian(R) 98 system (copyright 1998, Gaussian, Inc.),
 the Gaussian(R) 94 system (copyright 1995, Gaussian, Inc.),
 the Gaussian 92(TM) system (copyright 1992, Gaussian, Inc.),
 the Gaussian 90(TM) system (copyright 1990, Gaussian, Inc.),
 the Gaussian 88(TM) system (copyright 1988, Gaussian, Inc.),
 the Gaussian 86(TM) system (copyright 1986, Carnegie Mellon
 University), and the Gaussian 82(TM) system (copyright 1983,
 Carnegie Mellon University). Gaussian is a federally registered
 trademark of Gaussian, Inc.
  
 This software contains proprietary and confidential information,
 including trade secrets, belonging to Gaussian, Inc.
  
 This software is provided under written license and may be
 used, copied, transmitted, or stored only in accord with that
 written license.
  
 The following legend is applicable only to US Government
 contracts under FAR:
  
                    RESTRICTED RIGHTS LEGEND
  
 Use, reproduction and disclosure by the US Government is
 subject to restrictions as set forth in subparagraphs (a)
 and (c) of the Commercial Computer Software - Restricted
 Rights clause in FAR 52.227-19.
  
 Gaussian, Inc.
 340 Quinnipiac St., Bldg. 40, Wallingford CT 06492
  
  
 ---------------------------------------------------------------
 Warning -- This program may not be used in any manner that
 competes with the business of Gaussian, Inc. or will provide
 assistance to any competitor of Gaussian, Inc.  The licensee
 of this program is prohibited from giving any competitor of
 Gaussian, Inc. access to this program.  By using this program,
 the user acknowledges that Gaussian, Inc. is engaged in the
 business of creating and licensing software in the field of
 computational chemistry and represents and warrants to the
 licensee that it is not a competitor of Gaussian, Inc. and that
 it will not use this program in any manner prohibited above.
 ---------------------------------------------------------------
  

 Cite this work as:
 Gaussian 16, Revision C.01,
 M. J. Frisch, G. W. Trucks, H. B. Schlegel, G. E. Scuseria, 
 M. A. Robb, J. R. Cheeseman, G. Scalmani, V. Barone, 
 G. A. Petersson, H. Nakatsuji, X. Li, M. Caricato, A. V. Marenich, 
 J. Bloino, B. G. Janesko, R. Gomperts, B. Mennucci, H. P. Hratchian, 
 J. V. Ortiz, A. F. Izmaylov, J. L. Sonnenberg, D. Williams-Young, 
 F. Ding, F. Lipparini, F. Egidi, J. Goings, B. Peng, A. Petrone, 
 T. Henderson, D. Ranasinghe, V. G. Zakrzewski, J. Gao, N. Rega, 
 G. Zheng, W. Liang, M. Hada, M. Ehara, K. Toyota, R. Fukuda, 
 J. Hasegawa, M. Ishida, T. Nakajima, Y. Honda, O. Kitao, H. Nakai, 
 T. Vreven, K. Throssell, J. A. Montgomery, Jr., J. E. Peralta, 
 F. Ogliaro, M. J. Bearpark, J. J. Heyd, E. N. Brothers, K. N. Kudin, 
 V. N. Staroverov, T. A. Keith, R. Kobayashi, J. Normand, 
 K. Raghavachari, A. P. Rendell, J. C. Burant, S. S. Iyengar, 
 J. Tomasi, M. Cossi, J. M. Millam, M. Klene, C. Adamo, R. Cammi, 
 J. W. Ochterski, R. L. Martin, K. Morokuma, O. Farkas, 
 J. B. Foresman, and D. J. Fox, Gaussian, Inc., Wallingford CT, 2019.
 
 ******************************************
 Gaussian 16:  ES64L-G16RevC.01  3-Jul-2019
                 3-Feb-2022 
 ******************************************
 %NProcShared=32
 Will use up to   32 processors via shared memory.
 %mem=16GB
 %chk=Ac1_clust-30.chk
 ----------------------------------------------------------------------
 # B3LYP/6-31G(d,p) empiricaldispersion=GD3BJ int=(grid=ultrafine) opt 
 freq=noraman
 ----------------------------------------------------------------------
 1/18=20,19=15,26=4,38=1/1,3;
 2/9=110,12=2,17=6,18=5,40=1/2;
 3/5=1,6=6,7=101,11=2,25=1,30=1,71=1,74=-5,75=-5,124=41/1,2,3;
 4//1;
 5/5=2,38=5/2;
 6/7=2,8=2,9=2,10=2,28=1/1;
 7//1,2,3,16;
 1/18=20,19=15,26=4/3(2);
 2/9=110/2;
 99//99;
 2/9=110/2;
 3/5=1,6=6,7=101,11=2,25=1,30=1,71=1,74=-5,75=-5,124=41/1,2,3;
 4/5=5,16=3,69=1/1;
 5/5=2,38=5/2;
 7//1,2,3,16;
 1/18=20,19=15,26=4/3(-5);
 2/9=110/2;
 6/7=2,8=2,9=2,10=2,19=2,28=1/1;
 99/9=1/99;
 -------
 Ac1.xyz
 -------
 Symbolic Z-matrix:
 Charge =  0 Multiplicity = 1
 O                     5.7605   -0.3533    1.3775 
 C                     5.1643   -0.0877    0.1962 
 C                     4.2589   -1.2337   -0.2516 
 C                     3.5288   -0.9822   -1.5945 
 C                     2.5039   -2.073    -1.9626 
 C                     3.1285   -3.4513   -2.2635 
 C                     2.1023   -4.5479   -2.6217 
 C                     1.2515   -4.2878   -3.8833 
 C                     2.0734   -4.1383   -5.18 
 C                     1.218    -4.0393   -6.4577 
 C                     0.3563   -2.7689   -6.5365 
 O                     5.3431    0.9511   -0.4244 
 H                     6.2933    0.4235    1.5506 
 H                     3.531    -1.3969    0.5426 
 H                     4.8799   -2.126    -0.3165 
 H                     3.0043   -0.0246   -1.5488 
 H                     4.2565   -0.8797   -2.4028 
 H                     1.7665   -2.1679   -1.1637 
 H                     1.9497   -1.7321   -2.8383 
 H                     3.8633   -3.356    -3.0641 
 H                     3.6906   -3.7913   -1.3932 
 H                     2.6298   -5.4956   -2.7428 
 H                     1.434    -4.697    -1.7719 
 H                     0.6304   -3.4051   -3.7298 
 H                     0.5513   -5.1164   -4.0019 
 H                     2.7181   -3.2607   -5.1135 
 H                     2.7442   -4.9937   -5.2758 
 H                     1.879    -4.0672   -7.3257 
 H                     0.58     -4.9205   -6.5444 
 H                     0.9668   -1.8692   -6.4508 
 H                    -0.1736   -2.7172   -7.4882 
 H                    -0.394    -2.7407   -5.7462 
 

 GradGradGradGradGradGradGradGradGradGradGradGradGradGradGradGradGradGrad
 Berny optimization.
 Initialization pass.
                           ----------------------------
                           !    Initial Parameters    !
                           ! (Angstroms and Degrees)  !
 --------------------------                            --------------------------
 ! Name  Definition              Value          Derivative Info.                !
 --------------------------------------------------------------------------------
 ! R1    R(1,2)                  1.3496         estimate D2E/DX2                !
 ! R2    R(1,13)                 0.9577         estimate D2E/DX2                !
 ! R3    R(2,3)                  1.5276         estimate D2E/DX2                !
 ! R4    R(2,12)                 1.2232         estimate D2E/DX2                !
 ! R5    R(3,4)                  1.5491         estimate D2E/DX2                !
 ! R6    R(3,14)                 1.0896         estimate D2E/DX2                !
 ! R7    R(3,15)                 1.0891         estimate D2E/DX2                !
 ! R8    R(4,5)                  1.5414         estimate D2E/DX2                !
 ! R9    R(4,16)                 1.0928         estimate D2E/DX2                !
 ! R10   R(4,17)                 1.0924         estimate D2E/DX2                !
 ! R11   R(5,6)                  1.5428         estimate D2E/DX2                !
 ! R12   R(5,18)                 1.0913         estimate D2E/DX2                !
 ! R13   R(5,19)                 1.091          estimate D2E/DX2                !
 ! R14   R(6,7)                  1.544          estimate D2E/DX2                !
 ! R15   R(6,20)                 1.0909         estimate D2E/DX2                !
 ! R16   R(6,21)                 1.0904         estimate D2E/DX2                !
 ! R17   R(7,8)                  1.5437         estimate D2E/DX2                !
 ! R18   R(7,22)                 1.0914         estimate D2E/DX2                !
 ! R19   R(7,23)                 1.0913         estimate D2E/DX2                !
 ! R20   R(8,9)                  1.5425         estimate D2E/DX2                !
 ! R21   R(8,24)                 1.0902         estimate D2E/DX2                !
 ! R22   R(8,25)                 1.0913         estimate D2E/DX2                !
 ! R23   R(9,10)                 1.5408         estimate D2E/DX2                !
 ! R24   R(9,26)                 1.091          estimate D2E/DX2                !
 ! R25   R(9,27)                 1.0913         estimate D2E/DX2                !
 ! R26   R(10,11)                1.5371         estimate D2E/DX2                !
 ! R27   R(10,28)                1.0914         estimate D2E/DX2                !
 ! R28   R(10,29)                1.0914         estimate D2E/DX2                !
 ! R29   R(11,30)                1.0906         estimate D2E/DX2                !
 ! R30   R(11,31)                1.0905         estimate D2E/DX2                !
 ! R31   R(11,32)                1.0901         estimate D2E/DX2                !
 ! A1    A(2,1,13)             104.1425         estimate D2E/DX2                !
 ! A2    A(1,2,3)              111.763          estimate D2E/DX2                !
 ! A3    A(1,2,12)             123.1367         estimate D2E/DX2                !
 ! A4    A(3,2,12)             125.1003         estimate D2E/DX2                !
 ! A5    A(2,3,4)              114.3094         estimate D2E/DX2                !
 ! A6    A(2,3,14)             107.136          estimate D2E/DX2                !
 ! A7    A(2,3,15)             107.1073         estimate D2E/DX2                !
 ! A8    A(4,3,14)             109.9583         estimate D2E/DX2                !
 ! A9    A(4,3,15)             110.494          estimate D2E/DX2                !
 ! A10   A(14,3,15)            107.5566         estimate D2E/DX2                !
 ! A11   A(3,4,5)              113.9239         estimate D2E/DX2                !
 ! A12   A(3,4,16)             109.404          estimate D2E/DX2                !
 ! A13   A(3,4,17)             110.0418         estimate D2E/DX2                !
 ! A14   A(5,4,16)             108.1185         estimate D2E/DX2                !
 ! A15   A(5,4,17)             109.4286         estimate D2E/DX2                !
 ! A16   A(16,4,17)            105.5715         estimate D2E/DX2                !
 ! A17   A(4,5,6)              114.1798         estimate D2E/DX2                !
 ! A18   A(4,5,18)             109.6337         estimate D2E/DX2                !
 ! A19   A(4,5,19)             107.9592         estimate D2E/DX2                !
 ! A20   A(6,5,18)             109.7933         estimate D2E/DX2                !
 ! A21   A(6,5,19)             109.163          estimate D2E/DX2                !
 ! A22   A(18,5,19)            105.7552         estimate D2E/DX2                !
 ! A23   A(5,6,7)              114.2465         estimate D2E/DX2                !
 ! A24   A(5,6,20)             109.7421         estimate D2E/DX2                !
 ! A25   A(5,6,21)             109.3651         estimate D2E/DX2                !
 ! A26   A(7,6,20)             109.8453         estimate D2E/DX2                !
 ! A27   A(7,6,21)             107.838          estimate D2E/DX2                !
 ! A28   A(20,6,21)            105.413          estimate D2E/DX2                !
 ! A29   A(6,7,8)              115.8636         estimate D2E/DX2                !
 ! A30   A(6,7,22)             108.7379         estimate D2E/DX2                !
 ! A31   A(6,7,23)             108.8679         estimate D2E/DX2                !
 ! A32   A(8,7,22)             108.7845         estimate D2E/DX2                !
 ! A33   A(8,7,23)             108.7771         estimate D2E/DX2                !
 ! A34   A(22,7,23)            105.2927         estimate D2E/DX2                !
 ! A35   A(7,8,9)              114.1845         estimate D2E/DX2                !
 ! A36   A(7,8,24)             109.5934         estimate D2E/DX2                !
 ! A37   A(7,8,25)             108.3308         estimate D2E/DX2                !
 ! A38   A(9,8,24)             110.0878         estimate D2E/DX2                !
 ! A39   A(9,8,25)             108.9117         estimate D2E/DX2                !
 ! A40   A(24,8,25)            105.3392         estimate D2E/DX2                !
 ! A41   A(8,9,10)             114.0492         estimate D2E/DX2                !
 ! A42   A(8,9,26)             109.9741         estimate D2E/DX2                !
 ! A43   A(8,9,27)             108.9875         estimate D2E/DX2                !
 ! A44   A(10,9,26)            109.0826         estimate D2E/DX2                !
 ! A45   A(10,9,27)            108.5922         estimate D2E/DX2                !
 ! A46   A(26,9,27)            105.8221         estimate D2E/DX2                !
 ! A47   A(9,10,11)            114.007          estimate D2E/DX2                !
 ! A48   A(9,10,28)            108.7619         estimate D2E/DX2                !
 ! A49   A(9,10,29)            109.7882         estimate D2E/DX2                !
 ! A50   A(11,10,28)           108.6561         estimate D2E/DX2                !
 ! A51   A(11,10,29)           109.6055         estimate D2E/DX2                !
 ! A52   A(28,10,29)           105.6783         estimate D2E/DX2                !
 ! A53   A(10,11,30)           111.3438         estimate D2E/DX2                !
 ! A54   A(10,11,31)           110.8752         estimate D2E/DX2                !
 ! A55   A(10,11,32)           111.7199         estimate D2E/DX2                !
 ! A56   A(30,11,31)           107.5456         estimate D2E/DX2                !
 ! A57   A(30,11,32)           107.8765         estimate D2E/DX2                !
 ! A58   A(31,11,32)           107.2788         estimate D2E/DX2                !
 ! D1    D(13,1,2,3)           179.9573         estimate D2E/DX2                !
 ! D2    D(13,1,2,12)            0.0412         estimate D2E/DX2                !
 ! D3    D(1,2,3,4)            179.2241         estimate D2E/DX2                !
 ! D4    D(1,2,3,14)            57.1361         estimate D2E/DX2                !
 ! D5    D(1,2,3,15)           -58.0253         estimate D2E/DX2                !
 ! D6    D(12,2,3,4)            -0.8617         estimate D2E/DX2                !
 ! D7    D(12,2,3,14)         -122.9497         estimate D2E/DX2                !
 ! D8    D(12,2,3,15)          121.8889         estimate D2E/DX2                !
 ! D9    D(2,3,4,5)           -173.7409         estimate D2E/DX2                !
 ! D10   D(2,3,4,16)           -52.612          estimate D2E/DX2                !
 ! D11   D(2,3,4,17)            62.9475         estimate D2E/DX2                !
 ! D12   D(14,3,4,5)           -53.21           estimate D2E/DX2                !
 ! D13   D(14,3,4,16)           67.919          estimate D2E/DX2                !
 ! D14   D(14,3,4,17)         -176.5215         estimate D2E/DX2                !
 ! D15   D(15,3,4,5)            65.3668         estimate D2E/DX2                !
 ! D16   D(15,3,4,16)         -173.5042         estimate D2E/DX2                !
 ! D17   D(15,3,4,17)          -57.9448         estimate D2E/DX2                !
 ! D18   D(3,4,5,6)            -66.4729         estimate D2E/DX2                !
 ! D19   D(3,4,5,18)            57.1886         estimate D2E/DX2                !
 ! D20   D(3,4,5,19)           171.9404         estimate D2E/DX2                !
 ! D21   D(16,4,5,6)           171.6852         estimate D2E/DX2                !
 ! D22   D(16,4,5,18)          -64.6533         estimate D2E/DX2                !
 ! D23   D(16,4,5,19)           50.0984         estimate D2E/DX2                !
 ! D24   D(17,4,5,6)            57.1713         estimate D2E/DX2                !
 ! D25   D(17,4,5,18)         -179.1672         estimate D2E/DX2                !
 ! D26   D(17,4,5,19)          -64.4154         estimate D2E/DX2                !
 ! D27   D(4,5,6,7)            179.5482         estimate D2E/DX2                !
 ! D28   D(4,5,6,20)           -56.5885         estimate D2E/DX2                !
 ! D29   D(4,5,6,21)            58.5901         estimate D2E/DX2                !
 ! D30   D(18,5,6,7)            55.9727         estimate D2E/DX2                !
 ! D31   D(18,5,6,20)          179.836          estimate D2E/DX2                !
 ! D32   D(18,5,6,21)          -64.9853         estimate D2E/DX2                !
 ! D33   D(19,5,6,7)           -59.5311         estimate D2E/DX2                !
 ! D34   D(19,5,6,20)           64.3322         estimate D2E/DX2                !
 ! D35   D(19,5,6,21)          179.5109         estimate D2E/DX2                !
 ! D36   D(5,6,7,8)             61.3486         estimate D2E/DX2                !
 ! D37   D(5,6,7,22)          -175.8088         estimate D2E/DX2                !
 ! D38   D(5,6,7,23)           -61.5879         estimate D2E/DX2                !
 ! D39   D(20,6,7,8)           -62.4593         estimate D2E/DX2                !
 ! D40   D(20,6,7,22)           60.3833         estimate D2E/DX2                !
 ! D41   D(20,6,7,23)          174.6042         estimate D2E/DX2                !
 ! D42   D(21,6,7,8)          -176.8506         estimate D2E/DX2                !
 ! D43   D(21,6,7,22)          -54.008          estimate D2E/DX2                !
 ! D44   D(21,6,7,23)           60.2129         estimate D2E/DX2                !
 ! D45   D(6,7,8,9)             60.3028         estimate D2E/DX2                !
 ! D46   D(6,7,8,24)           -63.7187         estimate D2E/DX2                !
 ! D47   D(6,7,8,25)          -178.1583         estimate D2E/DX2                !
 ! D48   D(22,7,8,9)           -62.5153         estimate D2E/DX2                !
 ! D49   D(22,7,8,24)          173.4633         estimate D2E/DX2                !
 ! D50   D(22,7,8,25)           59.0236         estimate D2E/DX2                !
 ! D51   D(23,7,8,9)          -176.7131         estimate D2E/DX2                !
 ! D52   D(23,7,8,24)           59.2655         estimate D2E/DX2                !
 ! D53   D(23,7,8,25)          -55.1741         estimate D2E/DX2                !
 ! D54   D(7,8,9,10)           173.4065         estimate D2E/DX2                !
 ! D55   D(7,8,9,26)           -63.6974         estimate D2E/DX2                !
 ! D56   D(7,8,9,27)            51.8879         estimate D2E/DX2                !
 ! D57   D(24,8,9,10)          -62.8377         estimate D2E/DX2                !
 ! D58   D(24,8,9,26)           60.0584         estimate D2E/DX2                !
 ! D59   D(24,8,9,27)          175.6437         estimate D2E/DX2                !
 ! D60   D(25,8,9,10)           52.1885         estimate D2E/DX2                !
 ! D61   D(25,8,9,26)          175.0846         estimate D2E/DX2                !
 ! D62   D(25,8,9,27)          -69.3301         estimate D2E/DX2                !
 ! D63   D(8,9,10,11)           65.8489         estimate D2E/DX2                !
 ! D64   D(8,9,10,28)         -172.7439         estimate D2E/DX2                !
 ! D65   D(8,9,10,29)          -57.5598         estimate D2E/DX2                !
 ! D66   D(26,9,10,11)         -57.5315         estimate D2E/DX2                !
 ! D67   D(26,9,10,28)          63.8757         estimate D2E/DX2                !
 ! D68   D(26,9,10,29)         179.0597         estimate D2E/DX2                !
 ! D69   D(27,9,10,11)        -172.4141         estimate D2E/DX2                !
 ! D70   D(27,9,10,28)         -51.0068         estimate D2E/DX2                !
 ! D71   D(27,9,10,29)          64.1772         estimate D2E/DX2                !
 ! D72   D(9,10,11,30)          56.3882         estimate D2E/DX2                !
 ! D73   D(9,10,11,31)         176.0861         estimate D2E/DX2                !
 ! D74   D(9,10,11,32)         -64.3036         estimate D2E/DX2                !
 ! D75   D(28,10,11,30)        -65.0777         estimate D2E/DX2                !
 ! D76   D(28,10,11,31)         54.6202         estimate D2E/DX2                !
 ! D77   D(28,10,11,32)        174.2306         estimate D2E/DX2                !
 ! D78   D(29,10,11,30)        179.8959         estimate D2E/DX2                !
 ! D79   D(29,10,11,31)        -60.4062         estimate D2E/DX2                !
 ! D80   D(29,10,11,32)         59.2042         estimate D2E/DX2                !
 --------------------------------------------------------------------------------
 Trust Radius=3.00D-01 FncErr=1.00D-07 GrdErr=1.00D-06 EigMax=2.50D+02 EigMin=1.00D-04
 Number of steps in this run=    179 maximum allowed number of steps=    192.
 GradGradGradGradGradGradGradGradGradGradGradGradGradGradGradGradGradGrad

                          Input orientation:                          
 ---------------------------------------------------------------------
 Center     Atomic      Atomic             Coordinates (Angstroms)
 Number     Number       Type             X           Y           Z
 ---------------------------------------------------------------------
      1          8           0        5.760500   -0.353300    1.377500
      2          6           0        5.164300   -0.087700    0.196200
      3          6           0        4.258900   -1.233700   -0.251600
      4          6           0        3.528800   -0.982200   -1.594500
      5          6           0        2.503900   -2.073000   -1.962600
      6          6           0        3.128500   -3.451300   -2.263500
      7          6           0        2.102300   -4.547900   -2.621700
      8          6           0        1.251500   -4.287800   -3.883300
      9          6           0        2.073400   -4.138300   -5.180000
     10          6           0        1.218000   -4.039300   -6.457700
     11          6           0        0.356300   -2.768900   -6.536500
     12          8           0        5.343100    0.951100   -0.424400
     13          1           0        6.293300    0.423500    1.550600
     14          1           0        3.531000   -1.396900    0.542600
     15          1           0        4.879900   -2.126000   -0.316500
     16          1           0        3.004300   -0.024600   -1.548800
     17          1           0        4.256500   -0.879700   -2.402800
     18          1           0        1.766500   -2.167900   -1.163700
     19          1           0        1.949700   -1.732100   -2.838300
     20          1           0        3.863300   -3.356000   -3.064100
     21          1           0        3.690600   -3.791300   -1.393200
     22          1           0        2.629800   -5.495600   -2.742800
     23          1           0        1.434000   -4.697000   -1.771900
     24          1           0        0.630400   -3.405100   -3.729800
     25          1           0        0.551300   -5.116400   -4.001900
     26          1           0        2.718100   -3.260700   -5.113500
     27          1           0        2.744200   -4.993700   -5.275800
     28          1           0        1.879000   -4.067200   -7.325700
     29          1           0        0.580000   -4.920500   -6.544400
     30          1           0        0.966800   -1.869200   -6.450800
     31          1           0       -0.173600   -2.717200   -7.488200
     32          1           0       -0.394000   -2.740700   -5.746200
 ---------------------------------------------------------------------
                    Distance matrix (angstroms):
                    1          2          3          4          5
     1  O    0.000000
     2  C    1.349618   0.000000
     3  C    2.384088   1.527609   0.000000
     4  C    3.769454   2.584879   1.549090   0.000000
     5  C    4.971829   3.959743   2.590747   1.541351   0.000000
     6  C    5.457280   4.637716   3.200515   2.589258   1.542847
     7  C    6.853517   6.099983   4.610013   3.975457   2.592455
     8  C    7.967897   7.042241   5.617938   4.620789   3.187936
     9  C    8.421504   7.407061   6.123907   4.993492   3.847396
    10  C    9.778101   8.686933   7.458830   6.191637   5.072061
    11  C    9.882909   8.696835   7.555600   6.138438   5.100689
    12  O    2.263300   1.223200   2.445138   2.898011   4.424059
    13  H    0.957736   1.835856   3.183240   4.417025   5.738871
    14  H    2.599390   2.121713   1.089599   2.176965   2.790712
    15  H    2.605294   2.120946   1.089060   2.183354   2.890991
    16  H    4.033350   2.777518   2.172250   1.092788   2.148854
    17  H    4.102412   2.864641   2.180134   1.092430   2.165490
    18  H    5.069764   4.209704   2.813666   2.167297   1.091332
    19  H    5.847756   4.716555   3.503116   2.145448   1.090963
    20  H    5.687125   4.796242   3.545534   2.811857   2.169645
    21  H    4.876588   4.291228   2.857890   2.820947   2.164493
    22  H    7.295300   6.656335   5.198446   4.743161   3.512656
    23  H    6.892391   6.247736   4.720786   4.268419   2.840146
    24  H    7.855948   6.853821   5.475296   4.339432   2.899567
    25  H    8.874730   8.011968   6.548771   5.634953   4.151346
    26  H    7.735777   6.651672   5.488248   4.269913   3.374120
    27  H    8.654350   7.737474   6.455579   5.500882   4.423294
    28  H   10.227648   9.121875   7.983454   6.714590   5.755882
    29  H   10.509681   9.476679   8.168606   6.979050   5.727350
    30  H    9.303752   8.060729   7.047827   5.561858   4.748489
    31  H   10.927131   9.718922   8.614883   7.173123   6.173836
    32  H    9.712088   8.558342   7.356029   5.976395   4.812409
                    6          7          8          9         10
     6  C    0.000000
     7  C    1.543997   0.000000
     8  C    2.616603   1.543745   0.000000
     9  C    3.176661   2.591043   1.542498   0.000000
    10  C    4.646189   3.969327   2.586583   1.540788   0.000000
    11  C    5.138997   4.641015   3.185579   2.581430   1.537092
    12  O    5.260025   6.750549   7.493414   7.694716   8.849929
    13  H    6.291057   7.725761   8.783130   9.160707  10.478937
    14  H    3.500966   4.688580   5.756910   6.510608   7.831759
    15  H    2.935069   4.346793   5.528176   5.964849   7.401660
    16  H    3.502641   4.735500   5.166921   5.565493   6.588322
    17  H    2.811568   4.259599   4.778813   4.805959   5.971413
    18  H    2.170650   2.811214   3.486463   4.484120   5.641757
    19  H    2.162317   2.828238   2.848001   3.359860   4.354149
    20  H    1.090859   2.171972   2.891512   2.879717   4.356723
    21  H    1.090403   2.145776   3.520841   4.132263   5.641313
    22  H    2.158146   1.091355   2.158525   2.844607   4.232549
    23  H    2.159808   1.091337   2.158416   3.512282   4.736660
    24  H    2.897011   2.168033   1.090177   2.173226   2.861629
    25  H    3.526550   2.152614   1.091295   2.159025   2.763257
    26  H    2.885699   2.871439   2.172382   1.090982   2.159489
    27  H    3.405971   2.766771   2.159978   1.091265   2.153382
    28  H    5.250376   4.733767   3.506072   2.155661   1.091386
    29  H    5.194180   4.224193   2.816500   2.168794   1.091364
    30  H    4.970862   4.809033   3.538748   2.826360   2.184601
    31  H    6.224167   5.675738   4.182463   3.520841   2.178630
    32  H    5.004214   4.388620   2.927727   2.891700   2.188867
                   11         12         13         14         15
    11  C    0.000000
    12  O    8.721487   0.000000
    13  H   10.528085   2.254300   0.000000
    14  H    7.878754   3.119599   3.458355   0.000000
    15  H    7.717816   3.113638   3.461750   1.757604   0.000000
    16  H    6.278554   2.772409   4.541431   2.556281   3.074463
    17  H    5.988999   2.906303   4.634248   3.077211   2.508892
    18  H    5.587204   4.802790   5.880025   2.572812   3.226881
    19  H    4.158192   4.953952   6.540330   3.747446   3.885962
    20  H    4.970040   5.263928   6.440883   4.117861   3.177370
    21  H    6.214209   5.114654   5.762338   3.083171   2.312345
    22  H    5.195754   7.368644   8.178647   5.329668   4.722720
    23  H    5.251706   6.999847   7.802008   4.543675   4.538993
    24  H    2.890925   7.218843   8.637664   5.540735   5.598657
    25  H    3.460199   8.519062   9.720664   6.585269   6.423507
    26  H    2.800874   6.827704   8.412230   6.010493   5.382577
    27  H    3.498738   8.101297   9.409671   6.885478   6.113884
    28  H    2.151054   9.209303  10.883066   8.471703   7.867817
    29  H    2.163212   9.727138  11.257405   8.446877   8.067534
    30  H    1.090649   7.963893   9.881826   7.463634   7.280655
    31  H    1.090504   9.684404  11.549229   8.942092   8.793217
    32  H    1.090101   8.652471  10.391123   7.533952   7.594308
                   16         17         18         19         20
    16  H    0.000000
    17  H    1.740263   0.000000
    18  H    2.504832   3.065115   0.000000
    19  H    2.385487   2.497513   1.740049   0.000000
    20  H    3.759287   2.593065   3.069148   2.519901   0.000000
    21  H    3.831873   3.133201   2.527896   3.059306   1.735286
    22  H    5.612284   4.905944   3.783177   3.825649   2.490511
    23  H    4.934262   4.789188   2.622367   3.192771   3.060974
    24  H    4.671182   4.613803   3.066962   2.309600   3.301092
    25  H    6.161277   5.851090   4.269162   3.842262   3.866241
    26  H    4.823001   3.922210   4.207217   2.846681   2.349597
    27  H    6.216923   5.240818   5.084330   4.148575   2.970869
    28  H    7.140132   6.328318   6.449050   5.059096   4.754418
    29  H    7.402911   6.855477   6.159263   5.077120   5.033906
    30  H    5.619925   5.309194   5.355574   3.746338   4.697874
    31  H    7.254351   6.990242   6.638149   5.205804   6.023063
    32  H    6.045148   6.022358   5.098546   3.868603   5.069207
                   21         22         23         24         25
    21  H    0.000000
    22  H    2.418957   0.000000
    23  H    2.460884   1.735035   0.000000
    24  H    3.869583   3.056462   2.479547   0.000000
    25  H    4.291435   2.459530   2.434739   1.734602   0.000000
    26  H    3.881742   3.259263   3.857222   2.508778   3.061748
    27  H    4.173251   2.584779   3.752595   3.062991   2.539033
    28  H    6.209072   4.858703   5.607082   3.863661   3.729779
    29  H    6.122564   4.357130   4.853455   3.197022   2.550197
    30  H    6.057464   5.446615   5.486969   3.142610   4.088283
    31  H    7.296215   6.172307   6.259399   3.904509   4.293708
    32  H    6.061050   5.074766   4.792051   2.357264   3.095178
                   26         27         28         29         30
    26  H    0.000000
    27  H    1.740779   0.000000
    28  H    2.499672   2.410200   0.000000
    29  H    3.061680   2.509674   1.739526   0.000000
    30  H    2.606088   3.781835   2.535501   3.077143   0.000000
    31  H    3.781074   4.311696   2.462128   2.512609   1.759493
    32  H    3.218055   3.891733   3.069357   2.517405   1.762881
                   31         32
    31  H    0.000000
    32  H    1.756045   0.000000
 Stoichiometry    C10H20O2
 Framework group  C1[X(C10H20O2)]
 Deg. of freedom    90
 Full point group                 C1      NOp   1
 Largest Abelian subgroup         C1      NOp   1
 Largest concise Abelian subgroup C1      NOp   1
                         Standard orientation:                         
 ---------------------------------------------------------------------
 Center     Atomic      Atomic             Coordinates (Angstroms)
 Number     Number       Type             X           Y           Z
 ---------------------------------------------------------------------
      1          8           0        5.124230   -0.470456   -0.203265
      2          6           0        4.086520    0.388889   -0.124829
      3          6           0        2.773322   -0.334163    0.168934
      4          6           0        1.543987    0.600550    0.290289
      5          6           0        0.254729   -0.117050    0.735962
      6          6           0       -0.292376   -1.129627   -0.291531
      7          6           0       -1.577754   -1.857394    0.158004
      8          6           0       -2.804238   -0.957518    0.420888
      9          6           0       -3.269412   -0.148640   -0.807375
     10          6           0       -4.584817    0.623477   -0.589262
     11          6           0       -4.483857    1.749100    0.452579
     12          8           0        4.205831    1.596864   -0.275761
     13          1           0        5.878595    0.089860   -0.388295
     14          1           0        2.912425   -0.888067    1.096871
     15          1           0        2.622532   -1.060920   -0.628021
     16          1           0        1.759471    1.391878    1.012475
     17          1           0        1.366284    1.110578   -0.659288
     18          1           0        0.424241   -0.615548    1.691876
     19          1           0       -0.503857    0.642968    0.928631
     20          1           0       -0.464245   -0.629861   -1.245821
     21          1           0        0.466646   -1.886085   -0.493118
     22          1           0       -1.842174   -2.600237   -0.596532
     23          1           0       -1.361641   -2.429530    1.061869
     24          1           0       -2.593282   -0.286047    1.253420
     25          1           0       -3.626788   -1.589086    0.760676
     26          1           0       -2.489939    0.552671   -1.108748
     27          1           0       -3.400653   -0.828192   -1.651084
     28          1           0       -4.900125    1.055538   -1.540591
     29          1           0       -5.377350   -0.070194   -0.303282
     30          1           0       -3.697239    2.459228    0.194771
     31          1           0       -5.420133    2.304528    0.516515
     32          1           0       -4.269885    1.359510    1.447945
 ---------------------------------------------------------------------
 Rotational constants (GHZ):           2.0132862           0.2486575           0.2312736
 Standard basis: 6-31G(d,p) (6D, 7F)
 There are   280 symmetry adapted cartesian basis functions of A   symmetry.
 There are   280 symmetry adapted basis functions of A   symmetry.
   280 basis functions,   476 primitive gaussians,   280 cartesian basis functions
    48 alpha electrons       48 beta electrons
       nuclear repulsion energy       696.9151833945 Hartrees.
 NAtoms=   32 NActive=   32 NUniq=   32 SFac= 1.00D+00 NAtFMM=   60 NAOKFM=F Big=F
 Integral buffers will be    131072 words long.
 Raffenetti 2 integral format.
 Two-electron integral symmetry is turned on.
 Nuclear repulsion after empirical dispersion term =      696.8676409816 Hartrees.
 One-electron integrals computed using PRISM.
 NBasis=   280 RedAO= T EigKep=  2.83D-03  NBF=   280
 NBsUse=   280 1.00D-06 EigRej= -1.00D+00 NBFU=   280
 ExpMin= 1.61D-01 ExpMax= 5.48D+03 ExpMxC= 8.25D+02 IAcc=3 IRadAn=         5 AccDes= 0.00D+00
 Harris functional with IExCor=  402 and IRadAn=       5 diagonalized for initial guess.
 HarFok:  IExCor=  402 AccDes= 0.00D+00 IRadAn=         5 IDoV= 1 UseB2=F ITyADJ=14
 ICtDFT=  3500011 ScaDFX=  1.000000  1.000000  1.000000  1.000000
 FoFCou: FMM=F IPFlag=           0 FMFlag=      100000 FMFlg1=           0
         NFxFlg=           0 DoJE=T BraDBF=F KetDBF=T FulRan=T
         wScrn=  0.000000 ICntrl=       500 IOpCl=  0 I1Cent=   200000004 NGrid=           0
         NMat0=    1 NMatS0=      1 NMatT0=    0 NMatD0=    1 NMtDS0=    0 NMtDT0=    0
 Petite list used in FoFCou.
 Requested convergence on RMS density matrix=1.00D-08 within 128 cycles.
 Requested convergence on MAX density matrix=1.00D-06.
 Requested convergence on             energy=1.00D-06.
 No special actions if energy rises.
 Integral accuracy reduced to 1.0D-05 until final iterations.
 Initial convergence to 1.0D-05 achieved.  Increase integral accuracy.
 SCF Done:  E(RB3LYP) =  -543.664849651     A.U. after   13 cycles
            NFock= 13  Conv=0.82D-08     -V/T= 2.0096

 **********************************************************************

            Population analysis using the SCF Density.

 **********************************************************************

 Orbital symmetries:
       Occupied  (A) (A) (A) (A) (A) (A) (A) (A) (A) (A) (A) (A)
                 (A) (A) (A) (A) (A) (A) (A) (A) (A) (A) (A) (A)
                 (A) (A) (A) (A) (A) (A) (A) (A) (A) (A) (A) (A)
                 (A) (A) (A) (A) (A) (A) (A) (A) (A) (A) (A) (A)
       Virtual   (A) (A) (A) (A) (A) (A) (A) (A) (A) (A) (A) (A)
                 (A) (A) (A) (A) (A) (A) (A) (A) (A) (A) (A) (A)
                 (A) (A) (A) (A) (A) (A) (A) (A) (A) (A) (A) (A)
                 (A) (A) (A) (A) (A) (A) (A) (A) (A) (A) (A) (A)
                 (A) (A) (A) (A) (A) (A) (A) (A) (A) (A) (A) (A)
                 (A) (A) (A) (A) (A) (A) (A) (A) (A) (A) (A) (A)
                 (A) (A) (A) (A) (A) (A) (A) (A) (A) (A) (A) (A)
                 (A) (A) (A) (A) (A) (A) (A) (A) (A) (A) (A) (A)
                 (A) (A) (A) (A) (A) (A) (A) (A) (A) (A) (A) (A)
                 (A) (A) (A) (A) (A) (A) (A) (A) (A) (A) (A) (A)
                 (A) (A) (A) (A) (A) (A) (A) (A) (A) (A) (A) (A)
                 (A) (A) (A) (A) (A) (A) (A) (A) (A) (A) (A) (A)
                 (A) (A) (A) (A) (A) (A) (A) (A) (A) (A) (A) (A)
                 (A) (A) (A) (A) (A) (A) (A) (A) (A) (A) (A) (A)
                 (A) (A) (A) (A) (A) (A) (A) (A) (A) (A) (A) (A)
                 (A) (A) (A) (A) (A) (A) (A) (A) (A) (A) (A) (A)
                 (A) (A) (A) (A) (A) (A) (A) (A) (A) (A) (A) (A)
                 (A) (A) (A) (A) (A) (A) (A) (A) (A) (A) (A) (A)
                 (A) (A) (A) (A) (A) (A) (A) (A) (A) (A) (A) (A)
                 (A) (A) (A) (A)
 The electronic state is 1-A.
 Alpha  occ. eigenvalues --  -19.19816 -19.13755 -10.32091 -10.20022 -10.18407
 Alpha  occ. eigenvalues --  -10.18007 -10.17778 -10.17712 -10.17675 -10.17479
 Alpha  occ. eigenvalues --  -10.17455 -10.16940  -1.10754  -1.01038  -0.81211
 Alpha  occ. eigenvalues --   -0.79369  -0.76511  -0.72726  -0.68873  -0.64995
 Alpha  occ. eigenvalues --   -0.61744  -0.58765  -0.56998  -0.54841  -0.49103
 Alpha  occ. eigenvalues --   -0.48131  -0.47793  -0.46195  -0.45747  -0.43775
 Alpha  occ. eigenvalues --   -0.42753  -0.42340  -0.40771  -0.39529  -0.39154
 Alpha  occ. eigenvalues --   -0.38180  -0.37223  -0.35550  -0.35470  -0.34624
 Alpha  occ. eigenvalues --   -0.33099  -0.32915  -0.32305  -0.31691  -0.30970
 Alpha  occ. eigenvalues --   -0.30491  -0.30392  -0.27232
 Alpha virt. eigenvalues --    0.01083   0.07626   0.08523   0.09848   0.10911
 Alpha virt. eigenvalues --    0.11575   0.11821   0.13642   0.14286   0.16085
 Alpha virt. eigenvalues --    0.16525   0.16835   0.16935   0.17857   0.17903
 Alpha virt. eigenvalues --    0.18351   0.19281   0.19401   0.20357   0.21328
 Alpha virt. eigenvalues --    0.22682   0.23166   0.23544   0.24386   0.24808
 Alpha virt. eigenvalues --    0.25476   0.25800   0.27636   0.28576   0.29284
 Alpha virt. eigenvalues --    0.32218   0.37278   0.49148   0.50639   0.51118
 Alpha virt. eigenvalues --    0.51587   0.52553   0.52951   0.53683   0.54219
 Alpha virt. eigenvalues --    0.55127   0.56994   0.58318   0.60952   0.62087
 Alpha virt. eigenvalues --    0.64813   0.65334   0.65602   0.66285   0.67750
 Alpha virt. eigenvalues --    0.68158   0.68970   0.69493   0.70286   0.73138
 Alpha virt. eigenvalues --    0.75848   0.76125   0.79951   0.81428   0.82436
 Alpha virt. eigenvalues --    0.84470   0.84797   0.85892   0.86320   0.86866
 Alpha virt. eigenvalues --    0.87079   0.87625   0.88032   0.88809   0.89262
 Alpha virt. eigenvalues --    0.91347   0.91977   0.92309   0.93095   0.94227
 Alpha virt. eigenvalues --    0.94369   0.95044   0.95391   0.96436   0.97644
 Alpha virt. eigenvalues --    0.98381   0.99792   1.00763   1.01804   1.03181
 Alpha virt. eigenvalues --    1.04937   1.09487   1.10718   1.11857   1.15682
 Alpha virt. eigenvalues --    1.20225   1.27638   1.28509   1.30069   1.33825
 Alpha virt. eigenvalues --    1.37549   1.38444   1.39620   1.42061   1.50598
 Alpha virt. eigenvalues --    1.52069   1.54469   1.55768   1.56324   1.57233
 Alpha virt. eigenvalues --    1.59279   1.59965   1.61861   1.65160   1.66451
 Alpha virt. eigenvalues --    1.69206   1.70789   1.72310   1.73027   1.73770
 Alpha virt. eigenvalues --    1.75430   1.76848   1.78823   1.81282   1.84329
 Alpha virt. eigenvalues --    1.85216   1.85534   1.87078   1.87532   1.88798
 Alpha virt. eigenvalues --    1.89404   1.89563   1.91193   1.94706   1.95545
 Alpha virt. eigenvalues --    1.97975   2.01363   2.02916   2.05361   2.05964
 Alpha virt. eigenvalues --    2.08962   2.10468   2.11820   2.13025   2.14151
 Alpha virt. eigenvalues --    2.15147   2.15807   2.18424   2.18627   2.20145
 Alpha virt. eigenvalues --    2.22219   2.23906   2.25179   2.26399   2.27474
 Alpha virt. eigenvalues --    2.27849   2.28871   2.29427   2.29693   2.31167
 Alpha virt. eigenvalues --    2.33816   2.34017   2.36220   2.36913   2.38708
 Alpha virt. eigenvalues --    2.43164   2.46613   2.47269   2.50217   2.51556
 Alpha virt. eigenvalues --    2.54180   2.55806   2.55955   2.57339   2.57974
 Alpha virt. eigenvalues --    2.60376   2.61173   2.63766   2.64755   2.66475
 Alpha virt. eigenvalues --    2.67903   2.70545   2.71426   2.73541   2.75029
 Alpha virt. eigenvalues --    2.75385   2.77586   2.79581   2.81582   2.83082
 Alpha virt. eigenvalues --    2.84036   2.84472   2.85999   2.87207   2.88569
 Alpha virt. eigenvalues --    2.90444   2.91163   2.91501   2.91993   2.92116
 Alpha virt. eigenvalues --    2.92761   2.95586   2.96452   3.01630   3.16880
 Alpha virt. eigenvalues --    3.20189   3.24948   3.28293   3.30177   3.31483
 Alpha virt. eigenvalues --    3.33906   3.34227   3.35740   3.36054   3.40620
 Alpha virt. eigenvalues --    3.41718   3.45278   3.45813   3.47769   3.50058
 Alpha virt. eigenvalues --    3.52250   3.55466   3.57036   3.59845   3.60202
 Alpha virt. eigenvalues --    3.94049   4.13797   4.23414   4.26702   4.34777
 Alpha virt. eigenvalues --    4.43943   4.50675   4.58661   4.62659   4.65882
 Alpha virt. eigenvalues --    4.71358   4.75052
          Condensed to atoms (all electrons):
               1          2          3          4          5          6
     1  O    8.114782   0.259688  -0.096586   0.002554  -0.000025  -0.000001
     2  C    0.259688   4.381071   0.319563  -0.029272   0.003824   0.000098
     3  C   -0.096586   0.319563   5.142886   0.348593  -0.036245  -0.005310
     4  C    0.002554  -0.029272   0.348593   4.904343   0.351836  -0.037034
     5  C   -0.000025   0.003824  -0.036245   0.351836   4.930189   0.376648
     6  C   -0.000001   0.000098  -0.005310  -0.037034   0.376648   4.914182
     7  C   -0.000000   0.000000   0.000128   0.003481  -0.038756   0.369949
     8  C    0.000000   0.000000   0.000000   0.000135  -0.004267  -0.042695
     9  C   -0.000000   0.000000  -0.000000  -0.000007  -0.001605  -0.004324
    10  C   -0.000000   0.000000  -0.000000   0.000000   0.000008   0.000163
    11  C    0.000000  -0.000000  -0.000000  -0.000000  -0.000015  -0.000022
    12  O   -0.080120   0.571804  -0.088047   0.005817   0.000406  -0.000006
    13  H    0.267841  -0.009492   0.011409  -0.000319   0.000002   0.000000
    14  H    0.002323  -0.025185   0.368067  -0.036981  -0.002574  -0.000650
    15  H    0.002710  -0.024614   0.368300  -0.033947  -0.002815   0.002164
    16  H    0.000091  -0.003053  -0.039935   0.384562  -0.033245   0.004378
    17  H    0.000030  -0.002627  -0.037311   0.386324  -0.037874  -0.006970
    18  H   -0.000001  -0.000011  -0.007860  -0.037232   0.379406  -0.041655
    19  H    0.000000  -0.000102   0.004280  -0.031307   0.381017  -0.038811
    20  H    0.000000  -0.000026  -0.000736  -0.002807  -0.041427   0.382682
    21  H    0.000001  -0.000041   0.002357  -0.004853  -0.041927   0.379178
    22  H    0.000000  -0.000000  -0.000003  -0.000142   0.004668  -0.033856
    23  H    0.000000  -0.000000  -0.000022   0.000064  -0.006955  -0.038797
    24  H    0.000000   0.000000  -0.000001  -0.000107   0.003256  -0.007612
    25  H    0.000000  -0.000000   0.000000  -0.000001   0.000076   0.004945
    26  H    0.000000  -0.000000   0.000001  -0.000053   0.000238   0.002427
    27  H   -0.000000   0.000000  -0.000000   0.000000   0.000113  -0.001172
    28  H    0.000000  -0.000000  -0.000000  -0.000000  -0.000001   0.000005
    29  H   -0.000000   0.000000   0.000000  -0.000000  -0.000001   0.000004
    30  H    0.000000  -0.000000   0.000000  -0.000000  -0.000019  -0.000002
    31  H    0.000000   0.000000   0.000000   0.000000   0.000000   0.000000
    32  H   -0.000000  -0.000000  -0.000000   0.000000  -0.000015   0.000012
               7          8          9         10         11         12
     1  O   -0.000000   0.000000  -0.000000  -0.000000   0.000000  -0.080120
     2  C    0.000000   0.000000   0.000000   0.000000  -0.000000   0.571804
     3  C    0.000128   0.000000  -0.000000  -0.000000  -0.000000  -0.088047
     4  C    0.003481   0.000135  -0.000007   0.000000  -0.000000   0.005817
     5  C   -0.038756  -0.004267  -0.001605   0.000008  -0.000015   0.000406
     6  C    0.369949  -0.042695  -0.004324   0.000163  -0.000022  -0.000006
     7  C    4.914432   0.372102  -0.039108   0.003744   0.000150   0.000000
     8  C    0.372102   4.904875   0.382402  -0.039271  -0.004848  -0.000000
     9  C   -0.039108   0.382402   4.894446   0.378166  -0.045808  -0.000000
    10  C    0.003744  -0.039271   0.378166   4.872772   0.375892   0.000000
    11  C    0.000150  -0.004848  -0.045808   0.375892   4.915526  -0.000000
    12  O    0.000000  -0.000000  -0.000000   0.000000  -0.000000   8.040551
    13  H    0.000000   0.000000   0.000000   0.000000  -0.000000   0.011475
    14  H   -0.000018   0.000000  -0.000000   0.000000  -0.000000   0.001242
    15  H   -0.000137   0.000000   0.000000   0.000000   0.000000   0.001083
    16  H   -0.000148  -0.000001   0.000000  -0.000000   0.000000   0.003938
    17  H    0.000079  -0.000019   0.000002   0.000000  -0.000000   0.002334
    18  H   -0.002577  -0.000960   0.000093   0.000000  -0.000000   0.000001
    19  H   -0.005424   0.002809   0.000347  -0.000105   0.000097  -0.000001
    20  H   -0.037029  -0.007673   0.003942  -0.000108   0.000006   0.000000
    21  H   -0.031539   0.004878   0.000064  -0.000002   0.000000   0.000001
    22  H    0.376559  -0.038851  -0.006878  -0.000009   0.000002  -0.000000
    23  H    0.375925  -0.033925   0.004705  -0.000147   0.000004   0.000000
    24  H   -0.036988   0.383885  -0.040195  -0.003744   0.002635   0.000000
    25  H   -0.032151   0.378889  -0.042103  -0.003907  -0.000763   0.000000
    26  H   -0.004552  -0.039658   0.382621  -0.037682  -0.007169   0.000000
    27  H   -0.003154  -0.042105   0.379090  -0.033629   0.005081  -0.000000
    28  H   -0.000154   0.004650  -0.032690   0.381164  -0.039619   0.000000
    29  H    0.000018  -0.007458  -0.038319   0.384836  -0.039881  -0.000000
    30  H   -0.000020  -0.000713  -0.004541  -0.035966   0.387054   0.000000
    31  H   -0.000001   0.000118   0.004355  -0.028160   0.381144  -0.000000
    32  H   -0.000104   0.002768  -0.004864  -0.035093   0.388434  -0.000000
              13         14         15         16         17         18
     1  O    0.267841   0.002323   0.002710   0.000091   0.000030  -0.000001
     2  C   -0.009492  -0.025185  -0.024614  -0.003053  -0.002627  -0.000011
     3  C    0.011409   0.368067   0.368300  -0.039935  -0.037311  -0.007860
     4  C   -0.000319  -0.036981  -0.033947   0.384562   0.386324  -0.037232
     5  C    0.000002  -0.002574  -0.002815  -0.033245  -0.037874   0.379406
     6  C    0.000000  -0.000650   0.002164   0.004378  -0.006970  -0.041655
     7  C    0.000000  -0.000018  -0.000137  -0.000148   0.000079  -0.002577
     8  C    0.000000   0.000000   0.000000  -0.000001  -0.000019  -0.000960
     9  C    0.000000  -0.000000   0.000000   0.000000   0.000002   0.000093
    10  C    0.000000   0.000000   0.000000  -0.000000   0.000000   0.000000
    11  C   -0.000000  -0.000000   0.000000   0.000000  -0.000000  -0.000000
    12  O    0.011475   0.001242   0.001083   0.003938   0.002334   0.000001
    13  H    0.401117  -0.000367  -0.000367  -0.000008  -0.000001   0.000000
    14  H   -0.000367   0.583163  -0.028795  -0.003727   0.005175   0.005351
    15  H   -0.000367  -0.028795   0.576892   0.005144  -0.005078  -0.000053
    16  H   -0.000008  -0.003727   0.005144   0.614649  -0.034997  -0.002745
    17  H   -0.000001   0.005175  -0.005078  -0.034997   0.615774   0.005859
    18  H    0.000000   0.005351  -0.000053  -0.002745   0.005859   0.648228
    19  H   -0.000000   0.000012  -0.000024  -0.004370  -0.003263  -0.040278
    20  H   -0.000000   0.000080   0.000402   0.000024   0.005307   0.006168
    21  H   -0.000000   0.000439   0.002182  -0.000014  -0.000209  -0.005598
    22  H   -0.000000   0.000000   0.000007   0.000002   0.000000  -0.000002
    23  H   -0.000000   0.000003   0.000009   0.000002   0.000008   0.005026
    24  H   -0.000000   0.000000  -0.000000   0.000009   0.000007   0.000469
    25  H   -0.000000  -0.000000  -0.000000  -0.000000  -0.000000  -0.000033
    26  H   -0.000000   0.000000  -0.000000  -0.000002   0.000035  -0.000019
    27  H    0.000000  -0.000000  -0.000000   0.000000  -0.000001  -0.000001
    28  H   -0.000000  -0.000000  -0.000000  -0.000000  -0.000000   0.000000
    29  H    0.000000  -0.000000  -0.000000  -0.000000   0.000000  -0.000000
    30  H   -0.000000  -0.000000  -0.000000  -0.000000   0.000000  -0.000000
    31  H   -0.000000  -0.000000   0.000000   0.000000  -0.000000  -0.000000
    32  H    0.000000  -0.000000  -0.000000  -0.000000  -0.000000  -0.000000
              19         20         21         22         23         24
     1  O    0.000000   0.000000   0.000001   0.000000   0.000000   0.000000
     2  C   -0.000102  -0.000026  -0.000041  -0.000000  -0.000000   0.000000
     3  C    0.004280  -0.000736   0.002357  -0.000003  -0.000022  -0.000001
     4  C   -0.031307  -0.002807  -0.004853  -0.000142   0.000064  -0.000107
     5  C    0.381017  -0.041427  -0.041927   0.004668  -0.006955   0.003256
     6  C   -0.038811   0.382682   0.379178  -0.033856  -0.038797  -0.007612
     7  C   -0.005424  -0.037029  -0.031539   0.376559   0.375925  -0.036988
     8  C    0.002809  -0.007673   0.004878  -0.038851  -0.033925   0.383885
     9  C    0.000347   0.003942   0.000064  -0.006878   0.004705  -0.040195
    10  C   -0.000105  -0.000108  -0.000002  -0.000009  -0.000147  -0.003744
    11  C    0.000097   0.000006   0.000000   0.000002   0.000004   0.002635
    12  O   -0.000001   0.000000   0.000001  -0.000000   0.000000   0.000000
    13  H   -0.000000  -0.000000  -0.000000  -0.000000  -0.000000  -0.000000
    14  H    0.000012   0.000080   0.000439   0.000000   0.000003   0.000000
    15  H   -0.000024   0.000402   0.002182   0.000007   0.000009  -0.000000
    16  H   -0.004370   0.000024  -0.000014   0.000002   0.000002   0.000009
    17  H   -0.003263   0.005307  -0.000209   0.000000   0.000008   0.000007
    18  H   -0.040278   0.006168  -0.005598  -0.000002   0.005026   0.000469
    19  H    0.633865  -0.006005   0.006122  -0.000018  -0.000260   0.001758
    20  H   -0.006005   0.638928  -0.041080  -0.003540   0.006074   0.000085
    21  H    0.006122  -0.041080   0.650941  -0.003821  -0.004316  -0.000007
    22  H   -0.000018  -0.003540  -0.003821   0.650724  -0.039395   0.006049
    23  H   -0.000260   0.006074  -0.004316  -0.039395   0.652673  -0.003671
    24  H    0.001758   0.000085  -0.000007   0.006049  -0.003671   0.638114
    25  H   -0.000069  -0.000004  -0.000154  -0.004554  -0.003628  -0.040845
    26  H    0.001054   0.001425  -0.000035  -0.000285  -0.000059  -0.006690
    27  H   -0.000032   0.000628  -0.000047   0.005489   0.000037   0.006208
    28  H    0.000000   0.000009  -0.000000  -0.000006   0.000003  -0.000044
    29  H    0.000003  -0.000000   0.000000   0.000000  -0.000007  -0.000306
    30  H    0.000174  -0.000003   0.000000   0.000000  -0.000000   0.000279
    31  H   -0.000001  -0.000000   0.000000   0.000000  -0.000000  -0.000101
    32  H    0.000010   0.000001  -0.000000  -0.000001   0.000007   0.001725
              25         26         27         28         29         30
     1  O    0.000000   0.000000  -0.000000   0.000000  -0.000000   0.000000
     2  C   -0.000000  -0.000000   0.000000  -0.000000   0.000000  -0.000000
     3  C    0.000000   0.000001  -0.000000  -0.000000   0.000000   0.000000
     4  C   -0.000001  -0.000053   0.000000  -0.000000  -0.000000  -0.000000
     5  C    0.000076   0.000238   0.000113  -0.000001  -0.000001  -0.000019
     6  C    0.004945   0.002427  -0.001172   0.000005   0.000004  -0.000002
     7  C   -0.032151  -0.004552  -0.003154  -0.000154   0.000018  -0.000020
     8  C    0.378889  -0.039658  -0.042105   0.004650  -0.007458  -0.000713
     9  C   -0.042103   0.382621   0.379090  -0.032690  -0.038319  -0.004541
    10  C   -0.003907  -0.037682  -0.033629   0.381164   0.384836  -0.035966
    11  C   -0.000763  -0.007169   0.005081  -0.039619  -0.039881   0.387054
    12  O    0.000000   0.000000  -0.000000   0.000000  -0.000000   0.000000
    13  H   -0.000000  -0.000000   0.000000  -0.000000   0.000000  -0.000000
    14  H   -0.000000   0.000000  -0.000000  -0.000000  -0.000000  -0.000000
    15  H   -0.000000  -0.000000  -0.000000  -0.000000  -0.000000  -0.000000
    16  H   -0.000000  -0.000002   0.000000  -0.000000  -0.000000  -0.000000
    17  H   -0.000000   0.000035  -0.000001  -0.000000   0.000000   0.000000
    18  H   -0.000033  -0.000019  -0.000001   0.000000  -0.000000  -0.000000
    19  H   -0.000069   0.001054  -0.000032   0.000000   0.000003   0.000174
    20  H   -0.000004   0.001425   0.000628   0.000009  -0.000000  -0.000003
    21  H   -0.000154  -0.000035  -0.000047  -0.000000   0.000000   0.000000
    22  H   -0.004554  -0.000285   0.005489  -0.000006   0.000000   0.000000
    23  H   -0.003628  -0.000059   0.000037   0.000003  -0.000007  -0.000000
    24  H   -0.040845  -0.006690   0.006208  -0.000044  -0.000306   0.000279
    25  H    0.649441   0.006176  -0.004990   0.000048   0.005908   0.000089
    26  H    0.006176   0.642580  -0.041034  -0.003237   0.006040   0.005386
    27  H   -0.004990  -0.041034   0.650588  -0.004387  -0.003205   0.000034
    28  H    0.000048  -0.003237  -0.004387   0.647002  -0.040116  -0.004459
    29  H    0.005908   0.006040  -0.003205  -0.040116   0.642880   0.005525
    30  H    0.000089   0.005386   0.000034  -0.004459   0.005525   0.611238
    31  H   -0.000028   0.000017  -0.000185  -0.004111  -0.002595  -0.032326
    32  H    0.000475  -0.000155  -0.000024   0.005533  -0.005188  -0.033943
              31         32
     1  O    0.000000  -0.000000
     2  C    0.000000  -0.000000
     3  C    0.000000  -0.000000
     4  C    0.000000   0.000000
     5  C    0.000000  -0.000015
     6  C    0.000000   0.000012
     7  C   -0.000001  -0.000104
     8  C    0.000118   0.002768
     9  C    0.004355  -0.004864
    10  C   -0.028160  -0.035093
    11  C    0.381144   0.388434
    12  O   -0.000000  -0.000000
    13  H   -0.000000   0.000000
    14  H   -0.000000  -0.000000
    15  H    0.000000  -0.000000
    16  H    0.000000  -0.000000
    17  H   -0.000000  -0.000000
    18  H   -0.000000  -0.000000
    19  H   -0.000001   0.000010
    20  H   -0.000000   0.000001
    21  H    0.000000  -0.000000
    22  H    0.000000  -0.000001
    23  H   -0.000000   0.000007
    24  H   -0.000101   0.001725
    25  H   -0.000028   0.000475
    26  H    0.000017  -0.000155
    27  H   -0.000185  -0.000024
    28  H   -0.004111   0.005533
    29  H   -0.002595  -0.005188
    30  H   -0.032326  -0.033943
    31  H    0.613808  -0.032118
    32  H   -0.032118   0.607315
 Mulliken charges:
               1
     1  O   -0.473289
     2  C    0.558376
     3  C   -0.253528
     4  C   -0.173645
     5  C   -0.183922
     6  C   -0.177918
     7  C   -0.184708
     8  C   -0.175070
     9  C   -0.169791
    10  C   -0.178922
    11  C   -0.317899
    12  O   -0.470478
    13  H    0.318712
    14  H    0.132443
    15  H    0.136938
    16  H    0.109445
    17  H    0.107415
    18  H    0.088426
    19  H    0.098520
    20  H    0.094677
    21  H    0.087482
    22  H    0.087856
    23  H    0.086643
    24  H    0.095831
    25  H    0.087183
    26  H    0.092630
    27  H    0.086696
    28  H    0.090411
    29  H    0.091862
    30  H    0.102214
    31  H    0.100184
    32  H    0.105226
 Sum of Mulliken charges =  -0.00000
 Mulliken charges with hydrogens summed into heavy atoms:
               1
     1  O   -0.154576
     2  C    0.558376
     3  C    0.015853
     4  C    0.043215
     5  C    0.003024
     6  C    0.004241
     7  C   -0.010209
     8  C    0.007945
     9  C    0.009534
    10  C    0.003351
    11  C   -0.010275
    12  O   -0.470478
 Electronic spatial extent (au):  <R**2>=           4652.3134
 Charge=             -0.0000 electrons
 Dipole moment (field-independent basis, Debye):
    X=             -0.2749    Y=             -1.4811    Z=              0.1512  Tot=              1.5140
 Quadrupole moment (field-independent basis, Debye-Ang):
   XX=            -71.7201   YY=            -81.7478   ZZ=            -75.2462
   XY=             -4.9064   XZ=              0.1087   YZ=              0.4639
 Traceless Quadrupole moment (field-independent basis, Debye-Ang):
   XX=              4.5180   YY=             -5.5098   ZZ=              0.9918
   XY=             -4.9064   XZ=              0.1087   YZ=              0.4639
 Octapole moment (field-independent basis, Debye-Ang**2):
  XXX=            103.7311  YYY=             -4.5350  ZZZ=             -1.8279  XYY=            -10.4577
  XXY=            -12.9750  XXZ=             -6.8403  XZZ=             17.5371  YZZ=              0.9071
  YYZ=              0.5124  XYZ=              2.7880
 Hexadecapole moment (field-independent basis, Debye-Ang**3):
 XXXX=          -4492.6764 YYYY=           -668.5742 ZZZZ=           -240.0361 XXXY=             -1.5189
 XXXZ=            -65.5992 YYYX=            -17.5501 YYYZ=              1.0820 ZZZX=             -7.7826
 ZZZY=             -2.8833 XXYY=          -1068.3788 XXZZ=           -880.7316 YYZZ=           -147.4953
 XXYZ=              5.0897 YYXZ=              7.2634 ZZXY=              6.2336
 N-N= 6.968676409816D+02 E-N=-2.656985005837D+03  KE= 5.384686674132D+02
 Calling FoFJK, ICntrl=      2127 FMM=F ISym2X=0 I1Cent= 0 IOpClX= 0 NMat=1 NMatS=1 NMatT=0.
 ***** Axes restored to original set *****
 -------------------------------------------------------------------
 Center     Atomic                   Forces (Hartrees/Bohr)
 Number     Number              X              Y              Z
 -------------------------------------------------------------------
      1        8          -0.006308303   -0.007810573   -0.003220175
      2        6          -0.009629369    0.006219170   -0.021865010
      3        6          -0.000201735    0.010220398   -0.010140590
      4        6          -0.000819818   -0.000947745    0.005851085
      5        6           0.009670712   -0.003515660   -0.002024016
      6        6          -0.008479304    0.000833756    0.001332584
      7        6           0.000514523    0.005530251   -0.004045700
      8        6           0.008003765    0.000585791   -0.000299888
      9        6          -0.008429607   -0.001412593    0.001385361
     10        6           0.001269919    0.006864883    0.003887873
     11        6           0.001166552   -0.005520733   -0.000143800
     12        8          -0.000396464   -0.014614534    0.012354202
     13        1           0.009981929    0.011305274    0.006062532
     14        1          -0.001902934   -0.003077941    0.004109095
     15        1           0.001342246   -0.004255465    0.002489983
     16        1           0.001144101    0.002160273    0.002227246
     17        1           0.002976437   -0.000125734   -0.000313808
     18        1          -0.002616888   -0.001482100    0.004074484
     19        1          -0.001180916    0.001279664   -0.002986748
     20        1           0.001960013    0.001840573   -0.003779026
     21        1           0.001752626   -0.001439657    0.003825224
     22        1           0.002998453   -0.003141445   -0.001529695
     23        1          -0.003138945    0.000745018    0.003345806
     24        1          -0.001314747    0.003952911    0.000200440
     25        1          -0.002086575   -0.003878382   -0.000866225
     26        1           0.001805421    0.004107235    0.000268566
     27        1           0.002420395   -0.004013627    0.000561113
     28        1           0.002863007    0.000155524   -0.002616127
     29        1          -0.002769250   -0.003351880    0.001089200
     30        1           0.002393428    0.002341598    0.000781650
     31        1          -0.001388939    0.000119979   -0.002469182
     32        1          -0.001599733    0.000325768    0.002453547
 -------------------------------------------------------------------
 Cartesian Forces:  Max     0.021865010 RMS     0.005002621

 GradGradGradGradGradGradGradGradGradGradGradGradGradGradGradGradGradGrad
 Berny optimization.
 FormGI is forming the generalized inverse of G from B-inverse, IUseBI=4.
 Internal  Forces:  Max     0.018737694 RMS     0.003000161
 Search for a local minimum.
 Step number   1 out of a maximum of  179
 All quantities printed in internal units (Hartrees-Bohrs-Radians)
 Mixed Optimization -- RFO/linear search
 Second derivative matrix not updated -- first step.
 ITU=  0
     Eigenvalues ---    0.00230   0.00230   0.00230   0.00230   0.00230
     Eigenvalues ---    0.00230   0.00230   0.00275   0.00401   0.00873
     Eigenvalues ---    0.02358   0.03098   0.03233   0.03235   0.03252
     Eigenvalues ---    0.03269   0.03270   0.03284   0.03827   0.04645
     Eigenvalues ---    0.04680   0.04680   0.04687   0.04690   0.04691
     Eigenvalues ---    0.04707   0.05179   0.05353   0.05456   0.08519
     Eigenvalues ---    0.08528   0.08537   0.08552   0.08570   0.08577
     Eigenvalues ---    0.08846   0.09630   0.12354   0.12360   0.12366
     Eigenvalues ---    0.12379   0.12393   0.12397   0.12582   0.12962
     Eigenvalues ---    0.16000   0.16000   0.16000   0.16000   0.21894
     Eigenvalues ---    0.21897   0.21898   0.21904   0.21910   0.21910
     Eigenvalues ---    0.21931   0.22006   0.25000   0.25000   0.27729
     Eigenvalues ---    0.28168   0.28190   0.28268   0.28299   0.28400
     Eigenvalues ---    0.28449   0.28778   0.29645   0.34492   0.34533
     Eigenvalues ---    0.34653   0.34656   0.34656   0.34659   0.34659
     Eigenvalues ---    0.34663   0.34667   0.34699   0.34702   0.34714
     Eigenvalues ---    0.34738   0.34754   0.34766   0.34792   0.34801
     Eigenvalues ---    0.34859   0.34921   0.55103   0.55963   0.93979
 RFO step:  Lambda=-4.63751844D-03 EMin= 2.30000000D-03
 Linear search not attempted -- first point.
 Iteration  1 RMS(Cart)=  0.06550412 RMS(Int)=  0.00039518
 Iteration  2 RMS(Cart)=  0.00077125 RMS(Int)=  0.00006336
 Iteration  3 RMS(Cart)=  0.00000033 RMS(Int)=  0.00006336
 Variable       Old X    -DE/DX   Delta X   Delta X   Delta X     New X
                                 (Linear)    (Quad)   (Total)
    R1        2.55041   0.00342   0.00000   0.00616   0.00616   2.55657
    R2        1.80986   0.01582   0.00000   0.02803   0.02803   1.83789
    R3        2.88676  -0.00940   0.00000  -0.03121  -0.03121   2.85555
    R4        2.31151  -0.01874   0.00000  -0.01984  -0.01984   2.29167
    R5        2.92736  -0.01188   0.00000  -0.04213  -0.04213   2.88523
    R6        2.05904   0.00473   0.00000   0.01339   0.01339   2.07243
    R7        2.05803   0.00410   0.00000   0.01160   0.01160   2.06962
    R8        2.91273  -0.00378   0.00000  -0.01310  -0.01310   2.89963
    R9        2.06507   0.00144   0.00000   0.00411   0.00411   2.06918
   R10        2.06439   0.00220   0.00000   0.00629   0.00629   2.07068
   R11        2.91556  -0.00564   0.00000  -0.01962  -0.01962   2.89593
   R12        2.06232   0.00488   0.00000   0.01389   0.01389   2.07621
   R13        2.06162   0.00340   0.00000   0.00966   0.00966   2.07128
   R14        2.91773  -0.00469   0.00000  -0.01638  -0.01638   2.90135
   R15        2.06142   0.00426   0.00000   0.01210   0.01210   2.07352
   R16        2.06056   0.00441   0.00000   0.01250   0.01250   2.07307
   R17        2.91725  -0.00470   0.00000  -0.01639  -0.01639   2.90086
   R18        2.06236   0.00435   0.00000   0.01238   0.01238   2.07474
   R19        2.06233   0.00442   0.00000   0.01260   0.01260   2.07492
   R20        2.91490  -0.00561   0.00000  -0.01951  -0.01951   2.89538
   R21        2.06014   0.00398   0.00000   0.01128   0.01128   2.07142
   R22        2.06225   0.00438   0.00000   0.01246   0.01246   2.07471
   R23        2.91167  -0.00349   0.00000  -0.01206  -0.01206   2.89961
   R24        2.06166   0.00439   0.00000   0.01248   0.01248   2.07414
   R25        2.06219   0.00458   0.00000   0.01305   0.01305   2.07524
   R26        2.90468  -0.00261   0.00000  -0.00893  -0.00893   2.89576
   R27        2.06242   0.00381   0.00000   0.01085   0.01085   2.07327
   R28        2.06238   0.00424   0.00000   0.01207   0.01207   2.07445
   R29        2.06103   0.00333   0.00000   0.00947   0.00947   2.07050
   R30        2.06075   0.00284   0.00000   0.00805   0.00805   2.06881
   R31        2.05999   0.00289   0.00000   0.00819   0.00819   2.06818
    A1        1.81763   0.00677   0.00000   0.04111   0.04111   1.85874
    A2        1.95063   0.00046   0.00000   0.00182   0.00182   1.95245
    A3        2.14914  -0.00475   0.00000  -0.01864  -0.01865   2.13049
    A4        2.18341   0.00428   0.00000   0.01683   0.01682   2.20023
    A5        1.99508  -0.00739   0.00000  -0.03039  -0.03025   1.96482
    A6        1.86988   0.00248   0.00000   0.01141   0.01154   1.88141
    A7        1.86937   0.00193   0.00000   0.00608   0.00622   1.87559
    A8        1.91913   0.00265   0.00000   0.01558   0.01561   1.93474
    A9        1.92848   0.00320   0.00000   0.01870   0.01869   1.94717
   A10        1.87722  -0.00276   0.00000  -0.02200  -0.02212   1.85510
   A11        1.98835  -0.00302   0.00000  -0.01595  -0.01595   1.97240
   A12        1.90946  -0.00094   0.00000  -0.01159  -0.01143   1.89803
   A13        1.92059  -0.00030   0.00000  -0.01568  -0.01572   1.90488
   A14        1.88702   0.00304   0.00000   0.02903   0.02891   1.91593
   A15        1.90989   0.00157   0.00000   0.00812   0.00777   1.91766
   A16        1.84257  -0.00009   0.00000   0.00866   0.00829   1.85087
   A17        1.99281   0.00007   0.00000  -0.00156  -0.00158   1.99123
   A18        1.91347   0.00040   0.00000   0.00029   0.00024   1.91371
   A19        1.88424  -0.00030   0.00000   0.00044   0.00044   1.88468
   A20        1.91626  -0.00093   0.00000  -0.01103  -0.01104   1.90522
   A21        1.90525   0.00035   0.00000   0.00450   0.00451   1.90977
   A22        1.84578   0.00047   0.00000   0.00844   0.00846   1.85423
   A23        1.99398  -0.00126   0.00000  -0.00850  -0.00857   1.98540
   A24        1.91536  -0.00090   0.00000  -0.01540  -0.01546   1.89990
   A25        1.90878   0.00078   0.00000   0.00817   0.00822   1.91700
   A26        1.91716   0.00092   0.00000   0.00054   0.00035   1.91751
   A27        1.88213   0.00025   0.00000   0.00592   0.00593   1.88806
   A28        1.83980   0.00037   0.00000   0.01142   0.01145   1.85125
   A29        2.02220  -0.00257   0.00000  -0.01558  -0.01565   2.00656
   A30        1.89784   0.00036   0.00000  -0.00138  -0.00141   1.89643
   A31        1.90010   0.00070   0.00000   0.00077   0.00072   1.90082
   A32        1.89865   0.00088   0.00000   0.00316   0.00311   1.90175
   A33        1.89852   0.00050   0.00000  -0.00027  -0.00032   1.89819
   A34        1.83771   0.00040   0.00000   0.01643   0.01642   1.85412
   A35        1.99289  -0.00119   0.00000  -0.00812  -0.00816   1.98474
   A36        1.91277   0.00046   0.00000  -0.00027  -0.00035   1.91241
   A37        1.89073   0.00048   0.00000   0.00457   0.00456   1.89529
   A38        1.92140  -0.00019   0.00000  -0.00668  -0.00672   1.91467
   A39        1.90087   0.00020   0.00000   0.00095   0.00098   1.90184
   A40        1.83852   0.00038   0.00000   0.01139   0.01139   1.84990
   A41        1.99053  -0.00074   0.00000  -0.00525  -0.00528   1.98526
   A42        1.91941   0.00014   0.00000  -0.00445  -0.00450   1.91491
   A43        1.90219  -0.00044   0.00000  -0.00255  -0.00253   1.89966
   A44        1.90385  -0.00020   0.00000  -0.00531  -0.00537   1.89848
   A45        1.89529   0.00104   0.00000   0.01081   0.01082   1.90611
   A46        1.84694   0.00029   0.00000   0.00799   0.00800   1.85494
   A47        1.98980  -0.00030   0.00000  -0.00361  -0.00366   1.98614
   A48        1.89825  -0.00009   0.00000   0.00160   0.00161   1.89987
   A49        1.91617  -0.00055   0.00000  -0.01057  -0.01063   1.90554
   A50        1.89641   0.00049   0.00000   0.00813   0.00814   1.90454
   A51        1.91298   0.00005   0.00000  -0.00403  -0.00412   1.90886
   A52        1.84443   0.00047   0.00000   0.00983   0.00985   1.85428
   A53        1.94332  -0.00112   0.00000  -0.00847  -0.00848   1.93483
   A54        1.93514   0.00033   0.00000   0.00406   0.00406   1.93920
   A55        1.94988   0.00008   0.00000   0.00005   0.00003   1.94991
   A56        1.87703   0.00050   0.00000   0.00385   0.00386   1.88088
   A57        1.88280   0.00013   0.00000  -0.00302  -0.00305   1.87975
   A58        1.87237   0.00014   0.00000   0.00394   0.00393   1.87630
    D1        3.14085   0.00003   0.00000   0.00239   0.00234  -3.14000
    D2        0.00072  -0.00004   0.00000  -0.00250  -0.00246  -0.00174
    D3        3.12805  -0.00009   0.00000   0.00103   0.00099   3.12904
    D4        0.99721  -0.00048   0.00000  -0.00744  -0.00744   0.98977
    D5       -1.01273   0.00057   0.00000   0.00946   0.00946  -1.00327
    D6       -0.01504  -0.00003   0.00000   0.00600   0.00598  -0.00906
    D7       -2.14588  -0.00042   0.00000  -0.00247  -0.00245  -2.14833
    D8        2.12736   0.00063   0.00000   0.01442   0.01446   2.14182
    D9       -3.03235  -0.00072   0.00000  -0.02283  -0.02279  -3.05514
   D10       -0.91825   0.00046   0.00000  -0.00475  -0.00475  -0.92300
   D11        1.09864  -0.00035   0.00000  -0.00981  -0.00988   1.08876
   D12       -0.92869  -0.00064   0.00000  -0.01745  -0.01746  -0.94615
   D13        1.18541   0.00054   0.00000   0.00063   0.00058   1.18599
   D14       -3.08088  -0.00027   0.00000  -0.00443  -0.00455  -3.08543
   D15        1.14087  -0.00042   0.00000  -0.02333  -0.02321   1.11766
   D16       -3.02822   0.00076   0.00000  -0.00525  -0.00517  -3.03339
   D17       -1.01133  -0.00005   0.00000  -0.01031  -0.01030  -1.02163
   D18       -1.16017   0.00057   0.00000   0.02403   0.02401  -1.13616
   D19        0.99813  -0.00029   0.00000   0.00861   0.00858   1.00671
   D20        3.00093   0.00031   0.00000   0.01898   0.01896   3.01989
   D21        2.99647   0.00156   0.00000   0.02832   0.02847   3.02494
   D22       -1.12841   0.00069   0.00000   0.01290   0.01304  -1.11537
   D23        0.87438   0.00129   0.00000   0.02327   0.02343   0.89781
   D24        0.99783  -0.00079   0.00000  -0.00173  -0.00185   0.99598
   D25       -3.12706  -0.00165   0.00000  -0.01715  -0.01728   3.13885
   D26       -1.12426  -0.00105   0.00000  -0.00677  -0.00690  -1.13116
   D27        3.13371   0.00014   0.00000   0.00582   0.00578   3.13949
   D28       -0.98766  -0.00028   0.00000  -0.01176  -0.01168  -0.99934
   D29        1.02259   0.00011   0.00000  -0.00205  -0.00205   1.02054
   D30        0.97691   0.00029   0.00000   0.01516   0.01509   0.99200
   D31        3.13873  -0.00013   0.00000  -0.00242  -0.00237   3.13636
   D32       -1.13421   0.00025   0.00000   0.00729   0.00726  -1.12695
   D33       -1.03901   0.00005   0.00000   0.00863   0.00858  -1.03043
   D34        1.12281  -0.00037   0.00000  -0.00895  -0.00888   1.11393
   D35        3.13306   0.00001   0.00000   0.00076   0.00075   3.13381
   D36        1.07073  -0.00079   0.00000  -0.03066  -0.03067   1.04006
   D37       -3.06844  -0.00118   0.00000  -0.03875  -0.03874  -3.10718
   D38       -1.07491  -0.00015   0.00000  -0.01968  -0.01969  -1.09460
   D39       -1.09012   0.00061   0.00000  -0.00450  -0.00449  -1.09461
   D40        1.05389   0.00022   0.00000  -0.01259  -0.01256   1.04133
   D41        3.04742   0.00125   0.00000   0.00648   0.00649   3.05390
   D42       -3.08663  -0.00044   0.00000  -0.02149  -0.02151  -3.10814
   D43       -0.94262  -0.00083   0.00000  -0.02958  -0.02958  -0.97219
   D44        1.05091   0.00020   0.00000  -0.01051  -0.01053   1.04038
   D45        1.05248  -0.00031   0.00000  -0.01511  -0.01511   1.03737
   D46       -1.11210   0.00045   0.00000  -0.00013  -0.00014  -1.11224
   D47       -3.10945  -0.00050   0.00000  -0.01595  -0.01597  -3.12542
   D48       -1.09110   0.00036   0.00000  -0.00461  -0.00460  -1.09570
   D49        3.02751   0.00113   0.00000   0.01036   0.01037   3.03788
   D50        1.03016   0.00017   0.00000  -0.00545  -0.00546   1.02470
   D51       -3.08422  -0.00084   0.00000  -0.02552  -0.02551  -3.10973
   D52        1.03438  -0.00007   0.00000  -0.01054  -0.01053   1.02385
   D53       -0.96297  -0.00103   0.00000  -0.02636  -0.02636  -0.98933
   D54        3.02651   0.00057   0.00000   0.01861   0.01859   3.04510
   D55       -1.11173  -0.00011   0.00000   0.00445   0.00444  -1.10729
   D56        0.90561   0.00006   0.00000   0.01012   0.01010   0.91571
   D57       -1.09672   0.00015   0.00000   0.00700   0.00701  -1.08971
   D58        1.04822  -0.00054   0.00000  -0.00717  -0.00714   1.04108
   D59        3.06556  -0.00036   0.00000  -0.00150  -0.00148   3.06408
   D60        0.91086   0.00061   0.00000   0.01751   0.01750   0.92836
   D61        3.05580  -0.00007   0.00000   0.00334   0.00335   3.05915
   D62       -1.21004   0.00011   0.00000   0.00901   0.00901  -1.20103
   D63        1.14928  -0.00044   0.00000  -0.02375  -0.02371   1.12557
   D64       -3.01495  -0.00008   0.00000  -0.01456  -0.01454  -3.02949
   D65       -1.00461   0.00013   0.00000  -0.00769  -0.00770  -1.01231
   D66       -1.00411   0.00005   0.00000  -0.01018  -0.01016  -1.01428
   D67        1.11484   0.00041   0.00000  -0.00099  -0.00099   1.11385
   D68        3.12518   0.00062   0.00000   0.00588   0.00585   3.13103
   D69       -3.00919  -0.00075   0.00000  -0.02263  -0.02261  -3.03180
   D70       -0.89024  -0.00039   0.00000  -0.01344  -0.01344  -0.90368
   D71        1.12010  -0.00018   0.00000  -0.00657  -0.00660   1.11351
   D72        0.98416   0.00011   0.00000   0.00848   0.00849   0.99265
   D73        3.07328   0.00023   0.00000   0.01044   0.01043   3.08371
   D74       -1.12231   0.00068   0.00000   0.01820   0.01819  -1.10412
   D75       -1.13582   0.00008   0.00000   0.00292   0.00293  -1.13289
   D76        0.95330   0.00019   0.00000   0.00487   0.00487   0.95817
   D77        3.04090   0.00064   0.00000   0.01263   0.01263   3.05353
   D78        3.13978  -0.00078   0.00000  -0.01109  -0.01108   3.12870
   D79       -1.05429  -0.00067   0.00000  -0.00914  -0.00914  -1.06343
   D80        1.03331  -0.00022   0.00000  -0.00138  -0.00138   1.03193
         Item               Value     Threshold  Converged?
 Maximum Force            0.018738     0.000450     NO 
 RMS     Force            0.003000     0.000300     NO 
 Maximum Displacement     0.239065     0.001800     NO 
 RMS     Displacement     0.065604     0.001200     NO 
 Predicted change in Energy=-2.393873D-03
 GradGradGradGradGradGradGradGradGradGradGradGradGradGradGradGradGradGrad

                          Input orientation:                          
 ---------------------------------------------------------------------
 Center     Atomic      Atomic             Coordinates (Angstroms)
 Number     Number       Type             X           Y           Z
 ---------------------------------------------------------------------
      1          8           0        5.718682   -0.344960    1.275081
      2          6           0        5.111822   -0.115116    0.087997
      3          6           0        4.207172   -1.257442   -0.312130
      4          6           0        3.500085   -1.007048   -1.641957
      5          6           0        2.488273   -2.103911   -1.999133
      6          6           0        3.118233   -3.478012   -2.251004
      7          6           0        2.098880   -4.570233   -2.604838
      8          6           0        1.264148   -4.294345   -3.863227
      9          6           0        2.103039   -4.122364   -5.133753
     10          6           0        1.266364   -3.980494   -6.412130
     11          6           0        0.399881   -2.717107   -6.446976
     12          8           0        5.298313    0.902939   -0.544008
     13          1           0        6.275119    0.431961    1.455814
     14          1           0        3.479644   -1.407301    0.494689
     15          1           0        4.819271   -2.164979   -0.346305
     16          1           0        2.993810   -0.037328   -1.594255
     17          1           0        4.249612   -0.918668   -2.436367
     18          1           0        1.740346   -2.191276   -1.199083
     19          1           0        1.943379   -1.783143   -2.894443
     20          1           0        3.860179   -3.386146   -3.054158
     21          1           0        3.672287   -3.802218   -1.361415
     22          1           0        2.632875   -5.521024   -2.732301
     23          1           0        1.419139   -4.711593   -1.754203
     24          1           0        0.645471   -3.403344   -3.705454
     25          1           0        0.563636   -5.127195   -4.008152
     26          1           0        2.748816   -3.240424   -5.034517
     27          1           0        2.774271   -4.985586   -5.235116
     28          1           0        1.939831   -3.978415   -7.278231
     29          1           0        0.625460   -4.864720   -6.523664
     30          1           0        1.014953   -1.818718   -6.324292
     31          1           0       -0.132204   -2.630120   -7.399776
     32          1           0       -0.350187   -2.718271   -5.649991
 ---------------------------------------------------------------------
                    Distance matrix (angstroms):
                    1          2          3          4          5
     1  O    0.000000
     2  C    1.352878   0.000000
     3  C    2.374137   1.511093   0.000000
     4  C    3.724197   2.527050   1.526797   0.000000
     5  C    4.924422   3.898003   2.552862   1.534420   0.000000
     6  C    5.386244   4.555699   3.142602   2.573404   1.532462
     7  C    6.783043   6.014752   4.547086   3.948012   2.569290
     8  C    7.864015   6.919734   5.522179   4.554094   3.125912
     9  C    8.271325   7.237229   5.990259   4.883602   3.748119
    10  C    9.598617   8.484123   7.298860   6.048589   4.948653
[...]
 Alpha virt. eigenvalues --    4.08966   4.14110   4.15529   4.18467   4.19264
 Alpha virt. eigenvalues --    4.20632   4.23234   4.26804   4.29843   4.33436
 Alpha virt. eigenvalues --    4.35490   4.37419   4.38726   4.40873   4.45683
 Alpha virt. eigenvalues --    4.46268   4.48925   4.50962   4.53087   4.54983
 Alpha virt. eigenvalues --    4.56801   4.58096   4.59879   4.60988   4.65091
 Alpha virt. eigenvalues --    4.66082   4.67654   4.68662   4.71517   4.73959
 Alpha virt. eigenvalues --    4.75746   4.78098   4.83603   4.84613   4.93110
 Alpha virt. eigenvalues --    4.94426   5.02806   5.09998   5.16930   5.22293
 Alpha virt. eigenvalues --    5.22412   5.38607   5.41564   5.50201   5.59920
 Alpha virt. eigenvalues --    5.75126   5.84488   5.86318   6.15553   6.19236
 Alpha virt. eigenvalues --    6.31998   6.33912   6.43938   6.48627   6.64807
 Alpha virt. eigenvalues --    6.68511   6.73863   6.80945   6.88777   7.07318
 Alpha virt. eigenvalues --    7.09385   7.27240  22.42441  22.49836  22.53963
 Alpha virt. eigenvalues --   22.55868  22.58852  22.59901  22.62044  22.63451
 Alpha virt. eigenvalues --   22.66978  23.27022  43.93312  44.00389
          Condensed to atoms (all electrons):
               1          2          3          4          5          6
     1  O    7.938060   0.400168  -0.150211   0.011363  -0.000302  -0.000017
     2  C    0.400168   4.427517   0.219215  -0.006506  -0.000844   0.000925
     3  C   -0.150211   0.219215   5.563648   0.123500  -0.022089   0.013494
     4  C    0.011363  -0.006506   0.123500   5.252158   0.191148  -0.044591
     5  C   -0.000302  -0.000844  -0.022089   0.191148   5.341180   0.147342
     6  C   -0.000017   0.000925   0.013494  -0.044591   0.147342   5.409270
     7  C   -0.000002  -0.000099   0.000258   0.007312  -0.040008   0.204109
     8  C    0.000000   0.000001  -0.000087  -0.001760   0.036106  -0.078744
     9  C   -0.000000   0.000000   0.000188  -0.000148  -0.013953   0.032592
    10  C    0.000000   0.000000  -0.000002   0.000002   0.000348  -0.000763
    11  C    0.000000  -0.000000   0.000001  -0.000010   0.000014  -0.000276
    12  O   -0.088023   0.673618  -0.120802   0.014567   0.001933  -0.000091
    13  H    0.291230  -0.032760   0.025150  -0.001887   0.000062  -0.000000
    14  H    0.003680  -0.014896   0.393608  -0.044106   0.005548  -0.002581
    15  H    0.006561  -0.010183   0.392719  -0.033018  -0.008370   0.001206
    16  H    0.000136  -0.005067  -0.036955   0.441916  -0.055957   0.009127
    17  H    0.000030  -0.003128  -0.052724   0.435271  -0.034279  -0.011302
    18  H   -0.000003   0.000048  -0.013708  -0.021893   0.425089  -0.071307
    19  H    0.000004  -0.000123   0.009226  -0.049962   0.433998  -0.034939
    20  H    0.000002  -0.000084  -0.003002   0.007288  -0.065306   0.425040
    21  H   -0.000070   0.000486   0.000644  -0.007785  -0.043039   0.433606
    22  H    0.000000  -0.000003  -0.000034  -0.000575   0.011279  -0.070880
    23  H    0.000000   0.000000   0.000039  -0.000105  -0.009192  -0.034716
    24  H   -0.000000  -0.000000  -0.000126   0.000941  -0.000345  -0.013273
    25  H    0.000000  -0.000000   0.000011  -0.000006  -0.000418   0.011495
    26  H    0.000000  -0.000000   0.000074   0.000088  -0.003899   0.010923
    27  H   -0.000000  -0.000000  -0.000011   0.000050   0.000712  -0.006182
    28  H   -0.000000  -0.000000   0.000000  -0.000003  -0.000015   0.000193
    29  H   -0.000000   0.000000   0.000000   0.000001  -0.000013  -0.000003
    30  H    0.000000  -0.000000   0.000001   0.000024   0.000056  -0.000095
    31  H    0.000000   0.000000  -0.000000   0.000000   0.000004  -0.000014
    32  H    0.000000  -0.000000   0.000001  -0.000034   0.000165   0.000211
               7          8          9         10         11         12
     1  O   -0.000002   0.000000  -0.000000   0.000000   0.000000  -0.088023
     2  C   -0.000099   0.000001   0.000000   0.000000  -0.000000   0.673618
     3  C    0.000258  -0.000087   0.000188  -0.000002   0.000001  -0.120802
     4  C    0.007312  -0.001760  -0.000148   0.000002  -0.000010   0.014567
     5  C   -0.040008   0.036106  -0.013953   0.000348   0.000014   0.001933
     6  C    0.204109  -0.078744   0.032592  -0.000763  -0.000276  -0.000091
     7  C    5.184823   0.226811  -0.046126   0.008555   0.000841   0.000002
     8  C    0.226811   5.371015   0.165860  -0.046237   0.012292  -0.000000
     9  C   -0.046126   0.165860   5.304981   0.254711  -0.058521   0.000000
    10  C    0.008555  -0.046237   0.254711   5.103207   0.254673   0.000000
    11  C    0.000841   0.012292  -0.058521   0.254673   5.095152   0.000000
    12  O    0.000002  -0.000000   0.000000   0.000000   0.000000   7.835802
    13  H    0.000000   0.000000  -0.000000  -0.000000  -0.000000   0.005689
    14  H   -0.000166   0.000046  -0.000010   0.000000  -0.000000   0.001486
    15  H    0.000596  -0.000088   0.000009  -0.000000   0.000000   0.002100
    16  H   -0.000258  -0.000058   0.000022  -0.000003   0.000006   0.004460
    17  H   -0.000073   0.000122  -0.000085  -0.000008   0.000001   0.002621
    18  H    0.007509  -0.004479   0.000227  -0.000010   0.000045   0.000044
    19  H   -0.015598   0.008696  -0.000335   0.000234  -0.001163  -0.000019
    20  H   -0.027751  -0.011156  -0.001436   0.000378   0.000190  -0.000012
    21  H   -0.043448   0.010847  -0.000325   0.000047  -0.000015  -0.000028
    22  H    0.449480  -0.039383  -0.008357  -0.000302  -0.000034   0.000000
    23  H    0.444716  -0.068539   0.010715  -0.000695   0.000107  -0.000000
    24  H   -0.029663   0.435878  -0.062951  -0.004906   0.001613   0.000000
    25  H   -0.045660   0.425370  -0.040822   0.000313  -0.001955   0.000000
    26  H   -0.013706  -0.057718   0.432835  -0.032408  -0.011475  -0.000000
    27  H    0.007485  -0.051150   0.419327  -0.035802   0.009431  -0.000000
    28  H   -0.000707   0.012257  -0.059091   0.435400  -0.038911  -0.000000
    29  H   -0.000702  -0.013635  -0.039753   0.432976  -0.054782  -0.000000
    30  H   -0.000191  -0.005696   0.008785  -0.050885   0.407522   0.000000
    31  H    0.000042  -0.000241   0.010463  -0.040582   0.413270   0.000000
    32  H    0.000318   0.006773  -0.013683  -0.040249   0.418089  -0.000000
              13         14         15         16         17         18
     1  O    0.291230   0.003680   0.006561   0.000136   0.000030  -0.000003
     2  C   -0.032760  -0.014896  -0.010183  -0.005067  -0.003128   0.000048
     3  C    0.025150   0.393608   0.392719  -0.036955  -0.052724  -0.013708
     4  C   -0.001887  -0.044106  -0.033018   0.441916   0.435271  -0.021893
     5  C    0.000062   0.005548  -0.008370  -0.055957  -0.034279   0.425089
     6  C   -0.000000  -0.002581   0.001206   0.009127  -0.011302  -0.071307
     7  C    0.000000  -0.000166   0.000596  -0.000258  -0.000073   0.007509
     8  C    0.000000   0.000046  -0.000088  -0.000058   0.000122  -0.004479
     9  C   -0.000000  -0.000010   0.000009   0.000022  -0.000085   0.000227
    10  C   -0.000000   0.000000  -0.000000  -0.000003  -0.000008  -0.000010
    11  C   -0.000000  -0.000000   0.000000   0.000006   0.000001   0.000045
    12  O    0.005689   0.001486   0.002100   0.004460   0.002621   0.000044
    13  H    0.378215  -0.000575  -0.000733  -0.000025  -0.000002  -0.000000
    14  H   -0.000575   0.501600  -0.020993  -0.001626   0.005270   0.001429
    15  H   -0.000733  -0.020993   0.500398   0.004263  -0.001062   0.001557
    16  H   -0.000025  -0.001626   0.004263   0.499889  -0.013538  -0.001404
    17  H   -0.000002   0.005270  -0.001062  -0.013538   0.505431   0.005301
    18  H   -0.000000   0.001429   0.001557  -0.001404   0.005301   0.525922
    19  H   -0.000001   0.000214  -0.000410  -0.007524  -0.002539  -0.018153
    20  H   -0.000000   0.000114   0.000852   0.000167   0.001943   0.006558
    21  H    0.000005   0.000917  -0.005226  -0.000475   0.001506   0.000293
    22  H   -0.000000   0.000013  -0.000023   0.000013   0.000021   0.000049
    23  H   -0.000000   0.000005   0.000043   0.000026  -0.000019   0.001523
    24  H    0.000000   0.000001   0.000003   0.000026   0.000002   0.001205
    25  H   -0.000000  -0.000000  -0.000000  -0.000002  -0.000000  -0.000267
    26  H    0.000000   0.000001  -0.000015  -0.000037   0.000358  -0.000027
    27  H    0.000000   0.000000  -0.000000   0.000000   0.000000   0.000007
    28  H    0.000000  -0.000000   0.000000   0.000000   0.000000   0.000001
    29  H    0.000000  -0.000000  -0.000000  -0.000000   0.000000  -0.000002
    30  H   -0.000000   0.000000  -0.000000  -0.000004   0.000008  -0.000013
    31  H   -0.000000   0.000000   0.000000  -0.000000  -0.000000  -0.000000
    32  H   -0.000000  -0.000000   0.000000   0.000001   0.000000   0.000000
              19         20         21         22         23         24
     1  O    0.000004   0.000002  -0.000070   0.000000   0.000000  -0.000000
     2  C   -0.000123  -0.000084   0.000486  -0.000003   0.000000  -0.000000
     3  C    0.009226  -0.003002   0.000644  -0.000034   0.000039  -0.000126
     4  C   -0.049962   0.007288  -0.007785  -0.000575  -0.000105   0.000941
     5  C    0.433998  -0.065306  -0.043039   0.011279  -0.009192  -0.000345
     6  C   -0.034939   0.425040   0.433606  -0.070880  -0.034716  -0.013273
     7  C   -0.015598  -0.027751  -0.043448   0.449480   0.444716  -0.029663
     8  C    0.008696  -0.011156   0.010847  -0.039383  -0.068539   0.435878
     9  C   -0.000335  -0.001436  -0.000325  -0.008357   0.010715  -0.062951
    10  C    0.000234   0.000378   0.000047  -0.000302  -0.000695  -0.004906
    11  C   -0.001163   0.000190  -0.000015  -0.000034   0.000107   0.001613
    12  O   -0.000019  -0.000012  -0.000028   0.000000  -0.000000   0.000000
    13  H   -0.000001  -0.000000   0.000005  -0.000000  -0.000000   0.000000
    14  H    0.000214   0.000114   0.000917   0.000013   0.000005   0.000001
    15  H   -0.000410   0.000852  -0.005226  -0.000023   0.000043   0.000003
    16  H   -0.007524   0.000167  -0.000475   0.000013   0.000026   0.000026
    17  H   -0.002539   0.001943   0.001506   0.000021  -0.000019   0.000002
    18  H   -0.018153   0.006558   0.000293   0.000049   0.001523   0.001205
    19  H    0.527113  -0.000713   0.004166  -0.000529   0.001216  -0.010427
    20  H   -0.000713   0.525351  -0.021097  -0.001498   0.005420   0.001972
    21  H    0.004166  -0.021097   0.531491  -0.006330  -0.004363  -0.000801
    22  H   -0.000529  -0.001498  -0.006330   0.529647  -0.018035   0.005749
    23  H    0.001216   0.005420  -0.004363  -0.018035   0.532098  -0.001460
    24  H   -0.010427   0.001972  -0.000801   0.005749  -0.001460   0.535494
    25  H    0.000735  -0.000873  -0.000018  -0.003877  -0.007111  -0.021079
    26  H    0.001652  -0.009088   0.000681   0.001194  -0.000706  -0.000325
    27  H   -0.000218   0.001694  -0.000309   0.001341   0.000215   0.005949
    28  H   -0.000004  -0.000009  -0.000002  -0.000005   0.000015  -0.000552
    29  H    0.000016  -0.000045   0.000003   0.000113  -0.000020   0.001149
    30  H    0.000269  -0.000016   0.000003   0.000001   0.000005   0.000708
    31  H    0.000019   0.000001   0.000000   0.000002  -0.000002   0.000245
    32  H    0.000004  -0.000028   0.000000  -0.000016  -0.000024  -0.006777
              25         26         27         28         29         30
     1  O    0.000000   0.000000  -0.000000  -0.000000  -0.000000   0.000000
     2  C   -0.000000  -0.000000  -0.000000  -0.000000   0.000000  -0.000000
     3  C    0.000011   0.000074  -0.000011   0.000000   0.000000   0.000001
     4  C   -0.000006   0.000088   0.000050  -0.000003   0.000001   0.000024
     5  C   -0.000418  -0.003899   0.000712  -0.000015  -0.000013   0.000056
     6  C    0.011495   0.010923  -0.006182   0.000193  -0.000003  -0.000095
     7  C   -0.045660  -0.013706   0.007485  -0.000707  -0.000702  -0.000191
     8  C    0.425370  -0.057718  -0.051150   0.012257  -0.013635  -0.005696
     9  C   -0.040822   0.432835   0.419327  -0.059091  -0.039753   0.008785
    10  C    0.000313  -0.032408  -0.035802   0.435400   0.432976  -0.050885
    11  C   -0.001955  -0.011475   0.009431  -0.038911  -0.054782   0.407522
    12  O    0.000000  -0.000000  -0.000000  -0.000000  -0.000000   0.000000
    13  H   -0.000000   0.000000   0.000000   0.000000   0.000000  -0.000000
    14  H   -0.000000   0.000001   0.000000  -0.000000  -0.000000   0.000000
    15  H   -0.000000  -0.000015  -0.000000   0.000000  -0.000000  -0.000000
    16  H   -0.000002  -0.000037   0.000000   0.000000  -0.000000  -0.000004
    17  H   -0.000000   0.000358   0.000000   0.000000   0.000000   0.000008
    18  H   -0.000267  -0.000027   0.000007   0.000001  -0.000002  -0.000013
    19  H    0.000735   0.001652  -0.000218  -0.000004   0.000016   0.000269
    20  H   -0.000873  -0.009088   0.001694  -0.000009  -0.000045  -0.000016
    21  H   -0.000018   0.000681  -0.000309  -0.000002   0.000003   0.000003
    22  H   -0.003877   0.001194   0.001341  -0.000005   0.000113   0.000001
    23  H   -0.007111  -0.000706   0.000215   0.000015  -0.000020   0.000005
    24  H   -0.021079  -0.000325   0.005949  -0.000552   0.001149   0.000708
    25  H    0.526205   0.005557  -0.001141   0.000130   0.002497   0.000170
    26  H    0.005557   0.540030  -0.021466  -0.003124   0.006983   0.001993
    27  H   -0.001141  -0.021466   0.535797  -0.007634  -0.002782   0.000142
    28  H    0.000130  -0.003124  -0.007634   0.554039  -0.024690  -0.003536
    29  H    0.002497   0.006983  -0.002782  -0.024690   0.557148   0.007717
    30  H    0.000170   0.001993   0.000142  -0.003536   0.007717   0.549577
    31  H   -0.000115  -0.000213  -0.000271  -0.005866  -0.003683  -0.022964
    32  H    0.000718   0.001338  -0.000640   0.006431  -0.003455  -0.031152
              31         32
     1  O    0.000000   0.000000
     2  C    0.000000  -0.000000
     3  C   -0.000000   0.000001
     4  C    0.000000  -0.000034
     5  C    0.000004   0.000165
     6  C   -0.000014   0.000211
     7  C    0.000042   0.000318
     8  C   -0.000241   0.006773
     9  C    0.010463  -0.013683
    10  C   -0.040582  -0.040249
    11  C    0.413270   0.418089
    12  O    0.000000  -0.000000
    13  H   -0.000000  -0.000000
    14  H    0.000000  -0.000000
    15  H    0.000000   0.000000
    16  H   -0.000000   0.000001
    17  H   -0.000000   0.000000
    18  H   -0.000000   0.000000
    19  H    0.000019   0.000004
    20  H    0.000001  -0.000028
    21  H    0.000000   0.000000
    22  H    0.000002  -0.000016
    23  H   -0.000002  -0.000024
    24  H    0.000245  -0.006777
    25  H   -0.000115   0.000718
    26  H   -0.000213   0.001338
    27  H   -0.000271  -0.000640
    28  H   -0.005866   0.006431
    29  H   -0.003683  -0.003455
    30  H   -0.022964  -0.031152
    31  H    0.528989  -0.023378
    32  H   -0.023378   0.541893
 Mulliken charges:
               1
     1  O   -0.412604
     2  C    0.351714
     3  C   -0.342024
     4  C   -0.273240
     5  C   -0.296956
     6  C   -0.329759
     7  C   -0.278699
     8  C   -0.333102
     9  C   -0.295120
    10  C   -0.237991
    11  C   -0.446106
    12  O   -0.333346
    13  H    0.335633
    14  H    0.171021
    15  H    0.169814
    16  H    0.162881
    17  H    0.160872
    18  H    0.154459
    19  H    0.155094
    20  H    0.165144
    21  H    0.148637
    22  H    0.150982
    23  H    0.148845
    24  H    0.161749
    25  H    0.150143
    26  H    0.150500
    27  H    0.145456
    28  H    0.135683
    29  H    0.134961
    30  H    0.137570
    31  H    0.144296
    32  H    0.143495
 Sum of Mulliken charges =  -0.00000
 Mulliken charges with hydrogens summed into heavy atoms:
               1
     1  O   -0.076972
     2  C    0.351714
     3  C   -0.001190
     4  C    0.050513
     5  C    0.012597
     6  C   -0.015977
     7  C    0.021127
     8  C   -0.021210
     9  C    0.000836
    10  C    0.032653
    11  C   -0.020746
    12  O   -0.333346
 Electronic spatial extent (au):  <R**2>=           4520.9163
 Charge=             -0.0000 electrons
 Dipole moment (field-independent basis, Debye):
    X=             -0.5425    Y=             -1.5737    Z=              0.2053  Tot=              1.6772
 Quadrupole moment (field-independent basis, Debye-Ang):
   XX=            -74.1542   YY=            -83.2030   ZZ=            -76.7735
   XY=             -4.8590   XZ=              0.5265   YZ=              0.4440
 Traceless Quadrupole moment (field-independent basis, Debye-Ang):
   XX=              3.8893   YY=             -5.1595   ZZ=              1.2701
   XY=             -4.8590   XZ=              0.5265   YZ=              0.4440
 Octapole moment (field-independent basis, Debye-Ang**2):
  XXX=             93.4620  YYY=             -5.9175  ZZZ=             -1.5549  XYY=            -11.9715
  XXY=            -12.3665  XXZ=             -7.5726  XZZ=             16.8327  YZZ=              0.4099
  YYZ=              0.4015  XYZ=              3.3050
 Hexadecapole moment (field-independent basis, Debye-Ang**3):
 XXXX=          -4446.8489 YYYY=           -699.7217 ZZZZ=           -250.1536 XXXY=              1.6357
 XXXZ=            -67.3356 YYYX=            -19.1450 YYYZ=              1.3292 ZZZX=             -4.0523
 ZZZY=             -4.1610 XXYY=          -1059.2801 XXZZ=           -873.9118 YYZZ=           -153.9266
 XXYZ=              5.3097 YYXZ=              9.9426 ZZXY=              6.1520
 N-N= 7.025130563195D+02 E-N=-2.669864181702D+03  KE= 5.405738362410D+02
 Unable to Open any file for archive entry.
 1\1\GINC-NOTCH075\SP\RM062X\def2TZVP\C10H20O2\U6032257\03-Feb-2022\0\\
 # M062X/def2tzvp int=(grid=ultrafine) nmr=giao guess=read geom=check\\
 Ac1.xyz\\0,1\O,0,5.7243810153,-0.3585896265,1.2920539583\C,0,5.1164373
 444,-0.1102054076,0.1038611954\C,0,4.194771009,-1.239177894,-0.2926173
 149\C,0,3.5218040425,-1.0093953519,-1.6453666483\C,0,2.5081099394,-2.0
 974852291,-2.0196975649\C,0,3.1261407272,-3.4811996182,-2.2507333706\C
 ,0,2.1048185258,-4.5721771036,-2.6079611449\C,0,1.2658700366,-4.300241
 4234,-3.8654129454\C,0,2.0964046288,-4.1088580224,-5.139295651\C,0,1.2
 580426547,-3.9783535124,-6.4183329324\C,0,0.3685037516,-2.731968385,-6
 .4526311985\O,0,5.316059953,0.904800246,-0.526186013\H,0,6.2890141638,
 0.4127232513,1.4684222277\H,0,3.4493045794,-1.3537400776,0.5052946924\
 H,0,4.7829544711,-2.1634305892,-0.2763118605\H,0,3.0267552836,-0.03321
 49667,-1.6254115005\H,0,4.2931214045,-0.9367810537,-2.4211923335\H,0,1
 .7392178241,-2.1689088313,-1.2368319472\H,0,1.9854522257,-1.7780168373
 ,-2.9285191759\H,0,3.8838251982,-3.4052761683,-3.0414218254\H,0,3.6641
 038126,-3.8018552058,-1.3502800123\H,0,2.6391858359,-5.5227600828,-2.7
 363404419\H,0,1.4274761045,-4.7153975793,-1.75555307\H,0,0.6314022522,
 -3.422086402,-3.6998290227\H,0,0.5771844821,-5.1426580488,-4.014648318
 \H,0,2.729565081,-3.2171315099,-5.0398977106\H,0,2.7834824182,-4.95943
 97295,-5.2446905582\H,0,1.9325682717,-3.9603957816,-7.2833312577\H,0,0
 .6355441978,-4.8757558536,-6.5352511474\H,0,0.9650799371,-1.8217015851
 ,-6.3212352277\H,0,-0.1597891939,-2.6484617826,-7.4075820658\H,0,-0.38
 61919775,-2.7494598381,-5.6603698148\\Version=ES64L-G16RevC.01\State=1
 -A\HF=-543.5423372\RMSD=2.820e-09\Dipole=-0.1718197,-0.6007972,0.21196
 24\Quadrupole=1.1336696,-4.6384956,3.504826,-1.3734318,1.6798396,1.745
 3543\PG=C01 [X(C10H20O2)]\\@
 The archive entry for this job was punched.


 THE REASON MAN'S BEST FRIEND IS A DOG IS BECAUSE
 HE WAGS HIS TAIL INSTEAD OF HIS TONGUE.
 Job cpu time:       0 days  0 hours 36 minutes 34.4 seconds.
 Elapsed time:       0 days  0 hours  1 minutes 19.5 seconds.
 File lengths (MBytes):  RWF=    140 Int=      0 D2E=      0 Chk=     24 Scr=      1
 Normal termination of Gaussian 16 at Thu Feb  3 09:38:17 2022.
