 Entering Gaussian System, Link 0=/uufs/chpc.utah.edu/sys/installdir/gaussian16/C01/AVX2/g16/g16
 Input=Ac1_clust-45.com
 Output=Ac1_clust-45.log
 Initial command:
 /uufs/chpc.utah.edu/sys/installdir/gaussian16/C01/AVX2/g16/l1.exe "/scratch/general/lustre/u6032257/3867911/notchpeak.peaks/Gau-43289.inp" -scrdir="/scratch/general/lustre/u6032257/3867911/notchpeak.peaks/"
 Entering Link 1 = /uufs/chpc.utah.edu/sys/installdir/gaussian16/C01/AVX2/g16/l1.exe PID=     43291.
  
 Copyright (c) 1988-2019, Gaussian, Inc.  All Rights Reserved.
  
 This is part of the Gaussian(R) 16 program.  It is based on
 the Gaussian(R) 09 system (copyright 2009, Gaussian, Inc.),
 the Gaussian(R) 03 system (copyright 2003, Gaussian, Inc.),
 the Gaussian(R) 98 system (copyright 1998, Gaussian, Inc.),
 the Gaussian(R) 94 system (copyright 1995, Gaussian, Inc.),
 the Gaussian 92(TM) system (copyright 1992, Gaussian, Inc.),
 the Gaussian 90(TM) system (copyright 1990, Gaussian, Inc.),
 the Gaussian 88(TM) system (copyright 1988, Gaussian, Inc.),
 the Gaussian 86(TM) system (copyright 1986, Carnegie Mellon
 University), and the Gaussian 82(TM) system (copyright 1983,
 Carnegie Mellon University). Gaussian is a federally registered
 trademark of Gaussian, Inc.
  
 This software contains proprietary and confidential information,
 including trade secrets, belonging to Gaussian, Inc.
  
 This software is provided under written license and may be
 used, copied, transmitted, or stored only in accord with that
 written license.
  
 The following legend is applicable only to US Government
 contracts under FAR:
  
                    RESTRICTED RIGHTS LEGEND
  
 Use, reproduction and disclosure by the US Government is
 subject to restrictions as set forth in subparagraphs (a)
 and (c) of the Commercial Computer Software - Restricted
 Rights clause in FAR 52.227-19.
  
 Gaussian, Inc.
 340 Quinnipiac St., Bldg. 40, Wallingford CT 06492
  
  
 ---------------------------------------------------------------
 Warning -- This program may not be used in any manner that
 competes with the business of Gaussian, Inc. or will provide
 assistance to any competitor of Gaussian, Inc.  The licensee
 of this program is prohibited from giving any competitor of
 Gaussian, Inc. access to this program.  By using this program,
 the user acknowledges that Gaussian, Inc. is engaged in the
 business of creating and licensing software in the field of
 computational chemistry and represents and warrants to the
 licensee that it is not a competitor of Gaussian, Inc. and that
 it will not use this program in any manner prohibited above.
 ---------------------------------------------------------------
  

 Cite this work as:
 Gaussian 16, Revision C.01,
 M. J. Frisch, G. W. Trucks, H. B. Schlegel, G. E. Scuseria, 
 M. A. Robb, J. R. Cheeseman, G. Scalmani, V. Barone, 
 G. A. Petersson, H. Nakatsuji, X. Li, M. Caricato, A. V. Marenich, 
 J. Bloino, B. G. Janesko, R. Gomperts, B. Mennucci, H. P. Hratchian, 
 J. V. Ortiz, A. F. Izmaylov, J. L. Sonnenberg, D. Williams-Young, 
 F. Ding, F. Lipparini, F. Egidi, J. Goings, B. Peng, A. Petrone, 
 T. Henderson, D. Ranasinghe, V. G. Zakrzewski, J. Gao, N. Rega, 
 G. Zheng, W. Liang, M. Hada, M. Ehara, K. Toyota, R. Fukuda, 
 J. Hasegawa, M. Ishida, T. Nakajima, Y. Honda, O. Kitao, H. Nakai, 
 T. Vreven, K. Throssell, J. A. Montgomery, Jr., J. E. Peralta, 
 F. Ogliaro, M. J. Bearpark, J. J. Heyd, E. N. Brothers, K. N. Kudin, 
 V. N. Staroverov, T. A. Keith, R. Kobayashi, J. Normand, 
 K. Raghavachari, A. P. Rendell, J. C. Burant, S. S. Iyengar, 
 J. Tomasi, M. Cossi, J. M. Millam, M. Klene, C. Adamo, R. Cammi, 
 J. W. Ochterski, R. L. Martin, K. Morokuma, O. Farkas, 
 J. B. Foresman, and D. J. Fox, Gaussian, Inc., Wallingford CT, 2019.
 
 ******************************************
 Gaussian 16:  ES64L-G16RevC.01  3-Jul-2019
                 5-Feb-2022 
 ******************************************
 %NProcShared=32
 Will use up to   32 processors via shared memory.
 %mem=16GB
 %chk=Ac1_clust-45.chk
 ----------------------------------------------------------------------
 # B3LYP/6-31G(d,p) empiricaldispersion=GD3BJ int=(grid=ultrafine) opt 
 freq=noraman
 ----------------------------------------------------------------------
 1/18=20,19=15,26=4,38=1/1,3;
 2/9=110,12=2,17=6,18=5,40=1/2;
 3/5=1,6=6,7=101,11=2,25=1,30=1,71=1,74=-5,75=-5,124=41/1,2,3;
 4//1;
 5/5=2,38=5/2;
 6/7=2,8=2,9=2,10=2,28=1/1;
 7//1,2,3,16;
 1/18=20,19=15,26=4/3(2);
 2/9=110/2;
 99//99;
 2/9=110/2;
 3/5=1,6=6,7=101,11=2,25=1,30=1,71=1,74=-5,75=-5,124=41/1,2,3;
 4/5=5,16=3,69=1/1;
 5/5=2,38=5/2;
 7//1,2,3,16;
 1/18=20,19=15,26=4/3(-5);
 2/9=110/2;
 6/7=2,8=2,9=2,10=2,19=2,28=1/1;
 99/9=1/99;
 -------
 Ac1.xyz
 -------
 Symbolic Z-matrix:
 Charge =  0 Multiplicity = 1
 O                     5.5379   -0.7545    0.9099 
 C                     5.3467   -0.1955   -0.3047 
 C                     5.2908   -1.2307   -1.425 
 C                     4.1226   -2.2424   -1.3224 
 C                     2.7221   -1.6102   -1.4745 
 C                     1.5555   -2.6105   -1.3287 
 C                     1.523    -3.7639   -2.3544 
 C                     1.4059   -3.3042   -3.8203 
 C                     1.2829   -4.483    -4.8048 
 C                     1.0909   -4.0592   -6.2738 
 C                     2.3028   -3.3353   -6.8821 
 O                     5.2473    1.0096   -0.4814 
 H                     5.5545   -0.009     1.5104 
 H                     6.2441   -1.7579   -1.4142 
 H                     5.2496   -0.7024   -2.3776 
 H                     4.2589   -2.9946   -2.1007 
 H                     4.1834   -2.7879   -0.3779 
 H                     2.5931   -0.8303   -0.7222 
 H                     2.6526   -1.0959   -2.4341 
 H                     1.5783   -3.0347   -0.3233 
 H                     0.6142   -2.0611   -1.3875 
 H                     2.4059   -4.3932   -2.2346 
 H                     0.6751   -4.4086   -2.1167 
 H                     2.2781   -2.7047   -4.0816 
 H                     0.5402   -2.6483   -3.9278 
 H                     2.1621   -5.1246   -4.723 
 H                     0.4349   -5.104    -4.5108 
 H                     0.88     -4.9481   -6.8708 
 H                     0.2053   -3.4275   -6.3626 
 H                     2.4939   -2.3825   -6.388 
 H                     3.207    -3.9403   -6.8046 
 H                     2.1384   -3.1239   -7.9392 
 

 GradGradGradGradGradGradGradGradGradGradGradGradGradGradGradGradGradGrad
 Berny optimization.
 Initialization pass.
                           ----------------------------
                           !    Initial Parameters    !
                           ! (Angstroms and Degrees)  !
 --------------------------                            --------------------------
 ! Name  Definition              Value          Derivative Info.                !
 --------------------------------------------------------------------------------
 ! R1    R(1,2)                  1.3507         estimate D2E/DX2                !
 ! R2    R(1,13)                 0.9574         estimate D2E/DX2                !
 ! R3    R(2,3)                  1.5264         estimate D2E/DX2                !
 ! R4    R(2,12)                 1.222          estimate D2E/DX2                !
 ! R5    R(3,4)                  1.5488         estimate D2E/DX2                !
 ! R6    R(3,14)                 1.0894         estimate D2E/DX2                !
 ! R7    R(3,15)                 1.0901         estimate D2E/DX2                !
 ! R8    R(4,5)                  1.5441         estimate D2E/DX2                !
 ! R9    R(4,16)                 1.0909         estimate D2E/DX2                !
 ! R10   R(4,17)                 1.0924         estimate D2E/DX2                !
 ! R11   R(5,6)                  1.5436         estimate D2E/DX2                !
 ! R12   R(5,18)                 1.0913         estimate D2E/DX2                !
 ! R13   R(5,19)                 1.0909         estimate D2E/DX2                !
 ! R14   R(6,7)                  1.5438         estimate D2E/DX2                !
 ! R15   R(6,20)                 1.0915         estimate D2E/DX2                !
 ! R16   R(6,21)                 1.0915         estimate D2E/DX2                !
 ! R17   R(7,8)                  1.5407         estimate D2E/DX2                !
 ! R18   R(7,22)                 1.0908         estimate D2E/DX2                !
 ! R19   R(7,23)                 1.0914         estimate D2E/DX2                !
 ! R20   R(8,9)                  1.5408         estimate D2E/DX2                !
 ! R21   R(8,24)                 1.0901         estimate D2E/DX2                !
 ! R22   R(8,25)                 1.0914         estimate D2E/DX2                !
 ! R23   R(9,10)                 1.5409         estimate D2E/DX2                !
 ! R24   R(9,26)                 1.0915         estimate D2E/DX2                !
 ! R25   R(9,27)                 1.0914         estimate D2E/DX2                !
 ! R26   R(10,11)                1.5371         estimate D2E/DX2                !
 ! R27   R(10,28)                1.0913         estimate D2E/DX2                !
 ! R28   R(10,29)                1.0914         estimate D2E/DX2                !
 ! R29   R(11,30)                1.0902         estimate D2E/DX2                !
 ! R30   R(11,31)                1.0907         estimate D2E/DX2                !
 ! R31   R(11,32)                1.0905         estimate D2E/DX2                !
 ! A1    A(2,1,13)             104.1355         estimate D2E/DX2                !
 ! A2    A(1,2,3)              112.6137         estimate D2E/DX2                !
 ! A3    A(1,2,12)             123.345          estimate D2E/DX2                !
 ! A4    A(3,2,12)             124.0352         estimate D2E/DX2                !
 ! A5    A(2,3,4)              114.9621         estimate D2E/DX2                !
 ! A6    A(2,3,14)             106.7909         estimate D2E/DX2                !
 ! A7    A(2,3,15)             108.306          estimate D2E/DX2                !
 ! A8    A(4,3,14)             110.0753         estimate D2E/DX2                !
 ! A9    A(4,3,15)             110.2407         estimate D2E/DX2                !
 ! A10   A(14,3,15)            106.0378         estimate D2E/DX2                !
 ! A11   A(3,4,5)              114.2142         estimate D2E/DX2                !
 ! A12   A(3,4,16)             107.9928         estimate D2E/DX2                !
 ! A13   A(3,4,17)             109.9674         estimate D2E/DX2                !
 ! A14   A(5,4,16)             108.9867         estimate D2E/DX2                !
 ! A15   A(5,4,17)             109.8831         estimate D2E/DX2                !
 ! A16   A(16,4,17)            105.4009         estimate D2E/DX2                !
 ! A17   A(4,5,6)              114.258          estimate D2E/DX2                !
 ! A18   A(4,5,18)             109.3856         estimate D2E/DX2                !
 ! A19   A(4,5,19)             109.7212         estimate D2E/DX2                !
 ! A20   A(6,5,18)             107.9792         estimate D2E/DX2                !
 ! A21   A(6,5,19)             109.9028         estimate D2E/DX2                !
 ! A22   A(18,5,19)            105.1851         estimate D2E/DX2                !
 ! A23   A(5,6,7)              115.9309         estimate D2E/DX2                !
 ! A24   A(5,6,20)             108.8487         estimate D2E/DX2                !
 ! A25   A(5,6,21)             108.6926         estimate D2E/DX2                !
 ! A26   A(7,6,20)             108.7883         estimate D2E/DX2                !
 ! A27   A(7,6,21)             108.7903         estimate D2E/DX2                !
 ! A28   A(20,6,21)            105.264          estimate D2E/DX2                !
 ! A29   A(6,7,8)              114.2552         estimate D2E/DX2                !
 ! A30   A(6,7,22)             109.9378         estimate D2E/DX2                !
 ! A31   A(6,7,23)             108.2392         estimate D2E/DX2                !
 ! A32   A(8,7,22)             109.7632         estimate D2E/DX2                !
 ! A33   A(8,7,23)             108.9307         estimate D2E/DX2                !
 ! A34   A(22,7,23)            105.3145         estimate D2E/DX2                !
 ! A35   A(7,8,9)              112.689          estimate D2E/DX2                !
 ! A36   A(7,8,24)             109.3489         estimate D2E/DX2                !
 ! A37   A(7,8,25)             109.4691         estimate D2E/DX2                !
 ! A38   A(9,8,24)             109.3569         estimate D2E/DX2                !
 ! A39   A(9,8,25)             109.4828         estimate D2E/DX2                !
 ! A40   A(24,8,25)            106.2911         estimate D2E/DX2                !
 ! A41   A(8,9,10)             114.1217         estimate D2E/DX2                !
 ! A42   A(8,9,26)             109.727          estimate D2E/DX2                !
 ! A43   A(8,9,27)             108.9791         estimate D2E/DX2                !
 ! A44   A(10,9,26)            109.4803         estimate D2E/DX2                !
 ! A45   A(10,9,27)            108.4502         estimate D2E/DX2                !
 ! A46   A(26,9,27)            105.7362         estimate D2E/DX2                !
 ! A47   A(9,10,11)            114.114          estimate D2E/DX2                !
 ! A48   A(9,10,28)            108.7577         estimate D2E/DX2                !
 ! A49   A(9,10,29)            109.7459         estimate D2E/DX2                !
 ! A50   A(11,10,28)           108.6304         estimate D2E/DX2                !
 ! A51   A(11,10,29)           109.5702         estimate D2E/DX2                !
 ! A52   A(28,10,29)           105.6707         estimate D2E/DX2                !
 ! A53   A(10,11,30)           111.7429         estimate D2E/DX2                !
 ! A54   A(10,11,31)           111.3622         estimate D2E/DX2                !
 ! A55   A(10,11,32)           110.8581         estimate D2E/DX2                !
 ! A56   A(30,11,31)           107.8948         estimate D2E/DX2                !
 ! A57   A(30,11,32)           107.2384         estimate D2E/DX2                !
 ! A58   A(31,11,32)           107.5412         estimate D2E/DX2                !
 ! D1    D(13,1,2,3)           179.9119         estimate D2E/DX2                !
 ! D2    D(13,1,2,12)            0.7842         estimate D2E/DX2                !
 ! D3    D(1,2,3,4)             62.5781         estimate D2E/DX2                !
 ! D4    D(1,2,3,14)           -59.83           estimate D2E/DX2                !
 ! D5    D(1,2,3,15)          -173.6451         estimate D2E/DX2                !
 ! D6    D(12,2,3,4)          -118.3012         estimate D2E/DX2                !
 ! D7    D(12,2,3,14)          119.2906         estimate D2E/DX2                !
 ! D8    D(12,2,3,15)            5.4756         estimate D2E/DX2                !
 ! D9    D(2,3,4,5)             65.3189         estimate D2E/DX2                !
 ! D10   D(2,3,4,16)          -173.2725         estimate D2E/DX2                !
 ! D11   D(2,3,4,17)           -58.7477         estimate D2E/DX2                !
 ! D12   D(14,3,4,5)          -174.0586         estimate D2E/DX2                !
 ! D13   D(14,3,4,16)          -52.65           estimate D2E/DX2                !
 ! D14   D(14,3,4,17)           61.8748         estimate D2E/DX2                !
 ! D15   D(15,3,4,5)           -57.4265         estimate D2E/DX2                !
 ! D16   D(15,3,4,16)           63.9821         estimate D2E/DX2                !
 ! D17   D(15,3,4,17)          178.5069         estimate D2E/DX2                !
 ! D18   D(3,4,5,6)           -178.1959         estimate D2E/DX2                !
 ! D19   D(3,4,5,18)           -57.0325         estimate D2E/DX2                !
 ! D20   D(3,4,5,19)            57.8728         estimate D2E/DX2                !
 ! D21   D(16,4,5,6)            60.9458         estimate D2E/DX2                !
 ! D22   D(16,4,5,18)         -177.8909         estimate D2E/DX2                !
 ! D23   D(16,4,5,19)          -62.9856         estimate D2E/DX2                !
 ! D24   D(17,4,5,6)           -54.0842         estimate D2E/DX2                !
 ! D25   D(17,4,5,18)           67.0792         estimate D2E/DX2                !
 ! D26   D(17,4,5,19)         -178.0155         estimate D2E/DX2                !
 ! D27   D(4,5,6,7)            -60.7198         estimate D2E/DX2                !
 ! D28   D(4,5,6,20)            62.2647         estimate D2E/DX2                !
 ! D29   D(4,5,6,21)           176.4178         estimate D2E/DX2                !
 ! D30   D(18,5,6,7)           177.3423         estimate D2E/DX2                !
 ! D31   D(18,5,6,20)          -59.6732         estimate D2E/DX2                !
 ! D32   D(18,5,6,21)           54.4798         estimate D2E/DX2                !
 ! D33   D(19,5,6,7)            63.1141         estimate D2E/DX2                !
 ! D34   D(19,5,6,20)         -173.9014         estimate D2E/DX2                !
 ! D35   D(19,5,6,21)          -59.7483         estimate D2E/DX2                !
 ! D36   D(5,6,7,8)            -60.3672         estimate D2E/DX2                !
 ! D37   D(5,6,7,22)            63.5477         estimate D2E/DX2                !
 ! D38   D(5,6,7,23)           178.0895         estimate D2E/DX2                !
 ! D39   D(20,6,7,8)           176.6166         estimate D2E/DX2                !
 ! D40   D(20,6,7,22)          -59.4685         estimate D2E/DX2                !
 ! D41   D(20,6,7,23)           55.0733         estimate D2E/DX2                !
 ! D42   D(21,6,7,8)            62.4438         estimate D2E/DX2                !
 ! D43   D(21,6,7,22)         -173.6412         estimate D2E/DX2                !
 ! D44   D(21,6,7,23)          -59.0995         estimate D2E/DX2                !
 ! D45   D(6,7,8,9)           -176.2113         estimate D2E/DX2                !
 ! D46   D(6,7,8,24)            61.9473         estimate D2E/DX2                !
 ! D47   D(6,7,8,25)           -54.1233         estimate D2E/DX2                !
 ! D48   D(22,7,8,9)            59.7802         estimate D2E/DX2                !
 ! D49   D(22,7,8,24)          -62.0612         estimate D2E/DX2                !
 ! D50   D(22,7,8,25)         -178.1318         estimate D2E/DX2                !
 ! D51   D(23,7,8,9)           -55.0496         estimate D2E/DX2                !
 ! D52   D(23,7,8,24)         -176.891          estimate D2E/DX2                !
 ! D53   D(23,7,8,25)           67.0384         estimate D2E/DX2                !
 ! D54   D(7,8,9,10)           177.0153         estimate D2E/DX2                !
 ! D55   D(7,8,9,26)           -59.7044         estimate D2E/DX2                !
 ! D56   D(7,8,9,27)            55.6365         estimate D2E/DX2                !
 ! D57   D(24,8,9,10)          -61.1479         estimate D2E/DX2                !
 ! D58   D(24,8,9,26)           62.1324         estimate D2E/DX2                !
 ! D59   D(24,8,9,27)          177.4734         estimate D2E/DX2                !
 ! D60   D(25,8,9,10)           54.935          estimate D2E/DX2                !
 ! D61   D(25,8,9,26)          178.2153         estimate D2E/DX2                !
 ! D62   D(25,8,9,27)          -66.4437         estimate D2E/DX2                !
 ! D63   D(8,9,10,11)           66.1111         estimate D2E/DX2                !
 ! D64   D(8,9,10,28)         -172.4458         estimate D2E/DX2                !
 ! D65   D(8,9,10,29)          -57.2963         estimate D2E/DX2                !
 ! D66   D(26,9,10,11)         -57.3027         estimate D2E/DX2                !
 ! D67   D(26,9,10,28)          64.1403         estimate D2E/DX2                !
 ! D68   D(26,9,10,29)         179.2899         estimate D2E/DX2                !
 ! D69   D(27,9,10,11)        -172.2181         estimate D2E/DX2                !
 ! D70   D(27,9,10,28)         -50.775          estimate D2E/DX2                !
 ! D71   D(27,9,10,29)          64.3745         estimate D2E/DX2                !
 ! D72   D(9,10,11,30)         -64.5072         estimate D2E/DX2                !
 ! D73   D(9,10,11,31)          56.2366         estimate D2E/DX2                !
 ! D74   D(9,10,11,32)         175.9297         estimate D2E/DX2                !
 ! D75   D(28,10,11,30)        173.9794         estimate D2E/DX2                !
 ! D76   D(28,10,11,31)        -65.2768         estimate D2E/DX2                !
 ! D77   D(28,10,11,32)         54.4163         estimate D2E/DX2                !
 ! D78   D(29,10,11,30)         58.9952         estimate D2E/DX2                !
 ! D79   D(29,10,11,31)        179.739          estimate D2E/DX2                !
 ! D80   D(29,10,11,32)        -60.5679         estimate D2E/DX2                !
 --------------------------------------------------------------------------------
 Trust Radius=3.00D-01 FncErr=1.00D-07 GrdErr=1.00D-06 EigMax=2.50D+02 EigMin=1.00D-04
 Number of steps in this run=    179 maximum allowed number of steps=    192.
 GradGradGradGradGradGradGradGradGradGradGradGradGradGradGradGradGradGrad

                          Input orientation:                          
 ---------------------------------------------------------------------
 Center     Atomic      Atomic             Coordinates (Angstroms)
 Number     Number       Type             X           Y           Z
 ---------------------------------------------------------------------
      1          8           0        5.537900   -0.754500    0.909900
      2          6           0        5.346700   -0.195500   -0.304700
      3          6           0        5.290800   -1.230700   -1.425000
      4          6           0        4.122600   -2.242400   -1.322400
      5          6           0        2.722100   -1.610200   -1.474500
      6          6           0        1.555500   -2.610500   -1.328700
      7          6           0        1.523000   -3.763900   -2.354400
      8          6           0        1.405900   -3.304200   -3.820300
      9          6           0        1.282900   -4.483000   -4.804800
     10          6           0        1.090900   -4.059200   -6.273800
     11          6           0        2.302800   -3.335300   -6.882100
     12          8           0        5.247300    1.009600   -0.481400
     13          1           0        5.554500   -0.009000    1.510400
     14          1           0        6.244100   -1.757900   -1.414200
     15          1           0        5.249600   -0.702400   -2.377600
     16          1           0        4.258900   -2.994600   -2.100700
     17          1           0        4.183400   -2.787900   -0.377900
     18          1           0        2.593100   -0.830300   -0.722200
     19          1           0        2.652600   -1.095900   -2.434100
     20          1           0        1.578300   -3.034700   -0.323300
     21          1           0        0.614200   -2.061100   -1.387500
     22          1           0        2.405900   -4.393200   -2.234600
     23          1           0        0.675100   -4.408600   -2.116700
     24          1           0        2.278100   -2.704700   -4.081600
     25          1           0        0.540200   -2.648300   -3.927800
     26          1           0        2.162100   -5.124600   -4.723000
     27          1           0        0.434900   -5.104000   -4.510800
     28          1           0        0.880000   -4.948100   -6.870800
     29          1           0        0.205300   -3.427500   -6.362600
     30          1           0        2.493900   -2.382500   -6.388000
     31          1           0        3.207000   -3.940300   -6.804600
     32          1           0        2.138400   -3.123900   -7.939200
 ---------------------------------------------------------------------
                    Distance matrix (angstroms):
                    1          2          3          4          5
     1  O    0.000000
     2  C    1.350663   0.000000
     3  C    2.395743   1.526380   0.000000
     4  C    3.033164   2.593055   1.548791   0.000000
     5  C    3.787653   3.202863   2.597054   1.544089   0.000000
     6  C    4.931083   4.610206   3.983163   2.593365   1.543636
     7  C    5.985947   5.617422   4.634350   3.184008   2.617344
     8  C    6.778583   6.128080   5.012915   3.840232   3.178804
     9  C    8.041426   7.426172   6.169584   5.021085   4.627653
    10  C    9.072067   8.286746   7.010737   6.083447   5.629538
    11  C    8.822792   7.898472   6.567909   5.951165   5.691566
    12  O    2.265439   1.222035   2.431300   3.542278   3.771768
    13  H    0.957416   1.836451   3.190402   3.881130   4.415423
    14  H    2.628112   2.115989   1.089421   2.178056   3.525611
    15  H    3.300528   2.136186   1.090067   2.180637   2.833363
    16  H    3.964543   3.499126   2.152378   1.090932   2.161121
    17  H    2.761850   2.842387   2.178905   1.092404   2.173685
    18  H    3.367691   2.856500   2.816351   2.166480   1.091256
    19  H    4.429881   3.550104   2.827818   2.170539   1.090948
    20  H    4.732708   4.718288   4.272097   2.845945   2.159338
    21  H    5.588208   5.200911   4.749901   3.513684   2.157341
    22  H    5.739115   5.476633   4.356548   2.899156   2.902210
    23  H    6.794084   6.546557   5.646431   4.148324   3.526141
    24  H    6.272531   5.475159   4.278617   3.350983   2.862173
    25  H    7.208802   6.499656   5.553539   4.448197   3.443402
    26  H    7.888179   7.345684   5.985652   4.869776   4.818440
    27  H    8.622224   8.118524   6.935732   5.652768   5.163046
    28  H    9.991076   9.254852   7.932903   6.972805   6.607190
    29  H    9.405892   8.577760   7.420791   6.492559   5.790543
    30  H    8.073145   7.065973   5.812113   5.322837   4.979057
    31  H    8.665791   7.800676   6.373716   5.811687   5.837333
    32  H    9.771245   8.783752   7.480417   6.963917   6.665159
                    6          7          8          9         10
     6  C    0.000000
     7  C    1.543842   0.000000
     8  C    2.590689   1.540746   0.000000
     9  C    3.957757   2.564998   1.540759   0.000000
    10  C    5.173838   3.954189   2.586293   1.540919   0.000000
    11  C    5.650137   4.614310   3.190614   2.583135   1.537128
    12  O    5.239507   6.337574   6.671842   8.035976   8.747588
    13  H    5.551603   6.729706   7.515689   8.839966   9.844878
    14  H    4.766257   5.215055   5.620368   6.598170   7.447628
    15  H    4.288055   4.822952   4.860533   5.993242   6.613869
    16  H    2.837585   2.853302   3.345517   4.287665   5.346434
    17  H    2.800241   3.454976   4.453222   5.557311   6.778008
    18  H    2.147922   3.523521   4.138581   5.632625   6.595655
    19  H    2.172453   2.898374   2.890052   4.355312   5.095424
    20  H    1.091464   2.158740   3.511604   4.718970   6.057690
    21  H    1.091487   2.158782   2.844398   4.241544   5.300526
    22  H    2.172983   1.090818   2.168033   2.806265   4.260976
    23  H    2.151560   1.091363   2.157781   2.756962   4.192428
    24  H    2.847715   2.162244   1.090143   2.162358   2.837227
    25  H    2.790624   2.164728   1.091420   2.164915   2.792423
    26  H    4.267310   2.805391   2.168078   1.091483   2.165070
    27  H    4.195122   2.762226   2.158451   1.091412   2.151770
    28  H    6.052730   4.713136   3.504929   2.155691   1.091344
    29  H    5.275479   4.232631   2.814237   2.168419   1.091429
    30  H    5.150640   4.372738   2.937066   2.895711   2.189240
    31  H    5.872078   4.761434   3.543251   2.827699   2.184895
    32  H    6.655979   5.654937   4.187410   3.521860   2.178440
                   11         12         13         14         15
    11  C    0.000000
    12  O    8.277512   0.000000
    13  H    9.595409   2.258138   0.000000
    14  H    6.922425   3.085901   3.476706   0.000000
    15  H    5.992188   2.554706   3.961100   1.741049   0.000000
    16  H    5.177276   4.430879   4.861320   2.437566   2.512437
    17  H    6.792711   3.945073   3.628757   2.526124   3.079755
    18  H    6.656100   3.238517   3.798543   3.830027   3.132683
    19  H    4.992192   3.870224   5.016120   3.791743   2.627250
    20  H    6.605537   5.462867   5.322357   4.958828   4.810220
    21  H    5.887749   5.631681   6.084037   5.638122   4.930852
    22  H    4.767498   6.351182   6.569621   4.727541   4.661446
    23  H    5.148827   7.275721   7.504724   6.207534   5.893220
    24  H    2.870726   5.964362   7.019406   4.872434   3.967699
    25  H    3.508079   6.885833   7.853861   6.296465   5.326171
    26  H    2.807687   8.070814   8.748315   6.240637   5.881276
    27  H    3.498630   8.761927   9.403413   7.384587   6.863378
    28  H    2.150723   9.766879  10.793061   8.290080   7.570219
    29  H    2.162842   8.927381  10.113566   7.983817   6.982217
    30  H    1.090175   7.346800   8.796903   6.260416   5.147808
    31  H    1.090692   8.285360   9.492371   6.560736   5.852738
    32  H    1.090494   9.075784  10.519852   7.829327   6.817230
                   16         17         18         19         20
    16  H    0.000000
    17  H    1.736797   0.000000
    18  H    3.059305   2.545544   0.000000
    19  H    2.509266   3.071510   1.733403   0.000000
    20  H    3.216578   2.617334   2.459333   3.060808   0.000000
    21  H    3.829349   3.779778   2.423538   2.486374   1.734908
    22  H    2.325429   3.030483   3.875133   3.312529   2.486667
    23  H    3.852697   4.237719   4.292736   3.871076   2.433034
    24  H    2.816305   4.165871   3.859815   2.332969   3.837113
    25  H    4.157758   5.088633   4.218459   3.017171   3.770859
    26  H    3.976170   5.331577   5.884996   4.659407   4.905697
    27  H    4.988098   6.041228   6.105393   5.029487   4.808796
    28  H    6.163358   7.598465   7.595806   6.137252   6.857002
    29  H    5.897700   7.214638   6.652905   5.182543   6.205849
    30  H    4.676626   6.256202   5.875411   4.160992   6.168004
    31  H    4.911977   6.601807   6.858904   5.243972   6.743888
    32  H    6.212996   7.840164   7.586333   5.889254   7.636989
                   21         22         23         24         25
    21  H    0.000000
    22  H    3.060467   0.000000
    23  H    2.458902   1.734879   0.000000
    24  H    3.231247   2.505748   3.055113   0.000000
    25  H    2.608334   3.064709   2.529217   1.745604   0.000000
    26  H    4.786083   2.605095   3.084903   2.506146   3.065121
    27  H    4.364217   3.093730   2.504594   3.055853   2.526151
    28  H    6.202580   4.912294   4.788999   3.842807   3.750439
    29  H    5.175507   4.776568   4.383028   3.165739   2.578287
    30  H    5.351782   4.615343   5.065286   2.338774   3.152805
    31  H    6.292772   4.661736   5.348479   3.131181   4.130020
    32  H    6.810103   5.850226   6.139479   3.882824   4.344165
                   26         27         28         29         30
    26  H    0.000000
    27  H    1.740308   0.000000
    28  H    2.507584   2.406661   0.000000
    29  H    3.065535   2.508492   1.739457   0.000000
    30  H    3.225125   3.894859   3.069214   2.516021   0.000000
    31  H    2.612937   3.781568   2.536725   3.077098   1.763181
    32  H    3.787784   4.310062   2.460235   2.512910   1.755641
                   31         32
    31  H    0.000000
    32  H    1.759469   0.000000
 Stoichiometry    C10H20O2
 Framework group  C1[X(C10H20O2)]
 Deg. of freedom    90
 Full point group                 C1      NOp   1
 Largest Abelian subgroup         C1      NOp   1
 Largest concise Abelian subgroup C1      NOp   1
                         Standard orientation:                         
 ---------------------------------------------------------------------
 Center     Atomic      Atomic             Coordinates (Angstroms)
 Number     Number       Type             X           Y           Z
 ---------------------------------------------------------------------
      1          8           0        4.423766   -0.257370   -0.625859
      2          6           0        3.713896    0.679183    0.039908
      3          6           0        2.385471    1.001501   -0.639234
      4          6           0        1.393281   -0.184260   -0.730251
      5          6           0        0.878403   -0.685539    0.636436
      6          6           0       -0.076343   -1.895381    0.549518
      7          6           0       -1.380551   -1.670422   -0.245393
      8          6           0       -2.281915   -0.555878    0.319615
      9          6           0       -3.613858   -0.424534   -0.443678
     10          6           0       -4.572122    0.632101    0.139145
     11          6           0       -4.059940    2.076696    0.022632
     12          8           0        4.106689    1.217443    1.064290
     13          1           0        5.219353   -0.362696   -0.103754
     14          1           0        2.623013    1.367787   -1.637355
     15          1           0        1.925966    1.838174   -0.112852
     16          1           0        0.542818    0.133634   -1.335057
     17          1           0        1.848640   -1.010227   -1.281408
     18          1           0        1.726847   -0.970178    1.260905
     19          1           0        0.392977    0.133073    1.169731
     20          1           0        0.461381   -2.738164    0.111497
     21          1           0       -0.332055   -2.212656    1.562085
     22          1           0       -1.147919   -1.462315   -1.290600
     23          1           0       -1.940226   -2.607296   -0.255672
     24          1           0       -1.748490    0.394082    0.281622
     25          1           0       -2.484410   -0.751341    1.374123
     26          1           0       -3.416391   -0.197547   -1.492877
     27          1           0       -4.121646   -1.390620   -0.440324
     28          1           0       -5.530770    0.559360   -0.377318
     29          1           0       -4.782557    0.402068    1.185099
     30          1           0       -3.155411    2.233141    0.610709
     31          1           0       -3.835683    2.336430   -1.012673
     32          1           0       -4.807004    2.783900    0.384480
 ---------------------------------------------------------------------
 Rotational constants (GHZ):           1.6448470           0.2811527           0.2571080
 Standard basis: 6-31G(d,p) (6D, 7F)
 There are   280 symmetry adapted cartesian basis functions of A   symmetry.
 There are   280 symmetry adapted basis functions of A   symmetry.
   280 basis functions,   476 primitive gaussians,   280 cartesian basis functions
    48 alpha electrons       48 beta electrons
       nuclear repulsion energy       704.7689911605 Hartrees.
 NAtoms=   32 NActive=   32 NUniq=   32 SFac= 1.00D+00 NAtFMM=   60 NAOKFM=F Big=F
 Integral buffers will be    131072 words long.
 Raffenetti 2 integral format.
 Two-electron integral symmetry is turned on.
 Nuclear repulsion after empirical dispersion term =      704.7214287583 Hartrees.
 One-electron integrals computed using PRISM.
 NBasis=   280 RedAO= T EigKep=  3.34D-03  NBF=   280
 NBsUse=   280 1.00D-06 EigRej= -1.00D+00 NBFU=   280
 ExpMin= 1.61D-01 ExpMax= 5.48D+03 ExpMxC= 8.25D+02 IAcc=3 IRadAn=         5 AccDes= 0.00D+00
 Harris functional with IExCor=  402 and IRadAn=       5 diagonalized for initial guess.
 HarFok:  IExCor=  402 AccDes= 0.00D+00 IRadAn=         5 IDoV= 1 UseB2=F ITyADJ=14
 ICtDFT=  3500011 ScaDFX=  1.000000  1.000000  1.000000  1.000000
 FoFCou: FMM=F IPFlag=           0 FMFlag=      100000 FMFlg1=           0
         NFxFlg=           0 DoJE=T BraDBF=F KetDBF=T FulRan=T
         wScrn=  0.000000 ICntrl=       500 IOpCl=  0 I1Cent=   200000004 NGrid=           0
         NMat0=    1 NMatS0=      1 NMatT0=    0 NMatD0=    1 NMtDS0=    0 NMtDT0=    0
 Petite list used in FoFCou.
 Requested convergence on RMS density matrix=1.00D-08 within 128 cycles.
 Requested convergence on MAX density matrix=1.00D-06.
 Requested convergence on             energy=1.00D-06.
 No special actions if energy rises.
 Integral accuracy reduced to 1.0D-05 until final iterations.
 Initial convergence to 1.0D-05 achieved.  Increase integral accuracy.
 SCF Done:  E(RB3LYP) =  -543.664461254     A.U. after   13 cycles
            NFock= 13  Conv=0.86D-08     -V/T= 2.0096

 **********************************************************************

            Population analysis using the SCF Density.

 **********************************************************************

 Orbital symmetries:
       Occupied  (A) (A) (A) (A) (A) (A) (A) (A) (A) (A) (A) (A)
                 (A) (A) (A) (A) (A) (A) (A) (A) (A) (A) (A) (A)
                 (A) (A) (A) (A) (A) (A) (A) (A) (A) (A) (A) (A)
                 (A) (A) (A) (A) (A) (A) (A) (A) (A) (A) (A) (A)
       Virtual   (A) (A) (A) (A) (A) (A) (A) (A) (A) (A) (A) (A)
                 (A) (A) (A) (A) (A) (A) (A) (A) (A) (A) (A) (A)
                 (A) (A) (A) (A) (A) (A) (A) (A) (A) (A) (A) (A)
                 (A) (A) (A) (A) (A) (A) (A) (A) (A) (A) (A) (A)
                 (A) (A) (A) (A) (A) (A) (A) (A) (A) (A) (A) (A)
                 (A) (A) (A) (A) (A) (A) (A) (A) (A) (A) (A) (A)
                 (A) (A) (A) (A) (A) (A) (A) (A) (A) (A) (A) (A)
                 (A) (A) (A) (A) (A) (A) (A) (A) (A) (A) (A) (A)
                 (A) (A) (A) (A) (A) (A) (A) (A) (A) (A) (A) (A)
                 (A) (A) (A) (A) (A) (A) (A) (A) (A) (A) (A) (A)
                 (A) (A) (A) (A) (A) (A) (A) (A) (A) (A) (A) (A)
                 (A) (A) (A) (A) (A) (A) (A) (A) (A) (A) (A) (A)
                 (A) (A) (A) (A) (A) (A) (A) (A) (A) (A) (A) (A)
                 (A) (A) (A) (A) (A) (A) (A) (A) (A) (A) (A) (A)
                 (A) (A) (A) (A) (A) (A) (A) (A) (A) (A) (A) (A)
                 (A) (A) (A) (A) (A) (A) (A) (A) (A) (A) (A) (A)
                 (A) (A) (A) (A) (A) (A) (A) (A) (A) (A) (A) (A)
                 (A) (A) (A) (A) (A) (A) (A) (A) (A) (A) (A) (A)
                 (A) (A) (A) (A) (A) (A) (A) (A) (A) (A) (A) (A)
                 (A) (A) (A) (A)
 The electronic state is 1-A.
 Alpha  occ. eigenvalues --  -19.19888 -19.13590 -10.31961 -10.19917 -10.19099
 Alpha  occ. eigenvalues --  -10.18056 -10.17884 -10.17719 -10.17681 -10.17554
 Alpha  occ. eigenvalues --  -10.17529 -10.17010  -1.10715  -1.00997  -0.81331
 Alpha  occ. eigenvalues --   -0.79507  -0.76715  -0.72734  -0.68523  -0.64860
 Alpha  occ. eigenvalues --   -0.61948  -0.59552  -0.56892  -0.55729  -0.48556
 Alpha  occ. eigenvalues --   -0.48267  -0.47341  -0.45732  -0.45025  -0.44607
 Alpha  occ. eigenvalues --   -0.42847  -0.42255  -0.41159  -0.39997  -0.38500
 Alpha  occ. eigenvalues --   -0.38048  -0.37536  -0.36457  -0.35435  -0.34674
 Alpha  occ. eigenvalues --   -0.33422  -0.32719  -0.32329  -0.31742  -0.31342
 Alpha  occ. eigenvalues --   -0.31016  -0.30147  -0.26786
 Alpha virt. eigenvalues --    0.00788   0.07383   0.08600   0.10256   0.10949
 Alpha virt. eigenvalues --    0.11463   0.13061   0.13115   0.14649   0.16001
 Alpha virt. eigenvalues --    0.16111   0.16496   0.16809   0.17400   0.18265
 Alpha virt. eigenvalues --    0.18605   0.18915   0.19281   0.19965   0.20926
 Alpha virt. eigenvalues --    0.21576   0.22717   0.23613   0.23763   0.24336
 Alpha virt. eigenvalues --    0.24978   0.26413   0.27595   0.28656   0.29745
 Alpha virt. eigenvalues --    0.31238   0.35857   0.48823   0.50065   0.50529
 Alpha virt. eigenvalues --    0.50664   0.52007   0.52769   0.53060   0.54483
 Alpha virt. eigenvalues --    0.56061   0.58073   0.58428   0.61559   0.62529
 Alpha virt. eigenvalues --    0.64401   0.65296   0.65772   0.66732   0.67402
 Alpha virt. eigenvalues --    0.67976   0.69796   0.70121   0.71750   0.72368
 Alpha virt. eigenvalues --    0.74987   0.76481   0.78471   0.80031   0.81549
 Alpha virt. eigenvalues --    0.83254   0.84529   0.85833   0.86271   0.86527
 Alpha virt. eigenvalues --    0.87025   0.87397   0.88435   0.89410   0.89849
 Alpha virt. eigenvalues --    0.90869   0.91890   0.92928   0.93088   0.93977
 Alpha virt. eigenvalues --    0.94489   0.94569   0.95790   0.96683   0.97310
 Alpha virt. eigenvalues --    0.98546   0.99592   1.01128   1.03297   1.05350
 Alpha virt. eigenvalues --    1.06244   1.07265   1.10209   1.12645   1.14508
 Alpha virt. eigenvalues --    1.19743   1.26098   1.27393   1.30012   1.35711
 Alpha virt. eigenvalues --    1.37087   1.38734   1.40332   1.44435   1.47423
 Alpha virt. eigenvalues --    1.49427   1.52375   1.53826   1.55497   1.58036
 Alpha virt. eigenvalues --    1.58284   1.59749   1.63569   1.64265   1.67554
 Alpha virt. eigenvalues --    1.69611   1.69846   1.71609   1.74102   1.75473
 Alpha virt. eigenvalues --    1.76297   1.78331   1.79864   1.81292   1.82475
 Alpha virt. eigenvalues --    1.83302   1.84929   1.86517   1.87412   1.87567
 Alpha virt. eigenvalues --    1.89661   1.90576   1.91853   1.94764   1.97458
 Alpha virt. eigenvalues --    1.97548   2.00498   2.04843   2.05820   2.07644
 Alpha virt. eigenvalues --    2.08875   2.11504   2.11770   2.12126   2.14624
 Alpha virt. eigenvalues --    2.15125   2.15726   2.18186   2.19435   2.20172
 Alpha virt. eigenvalues --    2.21790   2.23813   2.24553   2.25659   2.27520
 Alpha virt. eigenvalues --    2.27603   2.28969   2.29684   2.30801   2.31841
 Alpha virt. eigenvalues --    2.33144   2.35314   2.35673   2.37868   2.40555
 Alpha virt. eigenvalues --    2.42384   2.44916   2.46191   2.48103   2.50850
 Alpha virt. eigenvalues --    2.52082   2.54070   2.55333   2.56368   2.57683
 Alpha virt. eigenvalues --    2.59931   2.61741   2.62652   2.63134   2.66279
 Alpha virt. eigenvalues --    2.67167   2.70970   2.71869   2.72578   2.74598
 Alpha virt. eigenvalues --    2.76296   2.77999   2.80156   2.80867   2.83049
 Alpha virt. eigenvalues --    2.83577   2.85924   2.86702   2.89107   2.89684
 Alpha virt. eigenvalues --    2.90508   2.91292   2.91326   2.92231   2.92702
 Alpha virt. eigenvalues --    2.93623   2.94597   2.95725   3.02401   3.11312
 Alpha virt. eigenvalues --    3.20230   3.24940   3.28050   3.31636   3.32204
 Alpha virt. eigenvalues --    3.32276   3.33738   3.35610   3.37076   3.40324
 Alpha virt. eigenvalues --    3.41405   3.44340   3.46712   3.47801   3.49968
 Alpha virt. eigenvalues --    3.52763   3.54908   3.58101   3.58776   3.60832
 Alpha virt. eigenvalues --    3.91650   4.13745   4.24186   4.28544   4.35419
 Alpha virt. eigenvalues --    4.42045   4.52840   4.59759   4.64015   4.65630
 Alpha virt. eigenvalues --    4.71279   4.74804
          Condensed to atoms (all electrons):
               1          2          3          4          5          6
     1  O    8.121931   0.245523  -0.099647   0.003537  -0.000637  -0.000009
     2  C    0.245523   4.382611   0.347828  -0.030060  -0.001318   0.000092
     3  C   -0.099647   0.347828   5.095310   0.340101  -0.043025   0.003730
     4  C    0.003537  -0.030060   0.340101   4.912454   0.376227  -0.037967
     5  C   -0.000637  -0.001318  -0.043025   0.376227   4.914797   0.371422
     6  C   -0.000009   0.000092   0.003730  -0.037967   0.371422   4.917438
     7  C    0.000000   0.000000   0.000115  -0.004444  -0.042918   0.366980
     8  C   -0.000000  -0.000000  -0.000004  -0.001661  -0.004282  -0.039942
     9  C    0.000000  -0.000000   0.000000   0.000001   0.000149   0.003545
    10  C    0.000000  -0.000000   0.000000   0.000000   0.000003  -0.000135
    11  C   -0.000000   0.000000  -0.000000   0.000000  -0.000003   0.000003
    12  O   -0.083511   0.569991  -0.072639  -0.000124   0.000794   0.000007
    13  H    0.268507  -0.009381   0.010815  -0.000289  -0.000066   0.000000
    14  H    0.001913  -0.026242   0.355314  -0.023523   0.004552  -0.000121
    15  H    0.003357  -0.032485   0.376479  -0.031514  -0.005737   0.000093
    16  H    0.000009   0.003652  -0.030312   0.380622  -0.041176  -0.004981
    17  H    0.005125  -0.008482  -0.035356   0.383960  -0.040144  -0.002519
    18  H    0.000157   0.006222  -0.005656  -0.040281   0.379986  -0.031244
    19  H    0.000018  -0.000810  -0.002378  -0.041056   0.382940  -0.036805
    20  H   -0.000002  -0.000011   0.000061  -0.006881  -0.038828   0.375336
    21  H    0.000000  -0.000005  -0.000146   0.004631  -0.033975   0.378348
    22  H    0.000000  -0.000003  -0.000109   0.003298  -0.007611  -0.037567
    23  H    0.000000   0.000000  -0.000001   0.000070   0.004984  -0.032238
    24  H   -0.000000   0.000001  -0.000052   0.000327   0.002691  -0.004726
    25  H   -0.000000  -0.000000   0.000000   0.000101  -0.001065  -0.002535
    26  H   -0.000000  -0.000000   0.000000   0.000003  -0.000017   0.000063
    27  H   -0.000000   0.000000  -0.000000  -0.000001   0.000004   0.000026
    28  H   -0.000000  -0.000000   0.000000   0.000000  -0.000000   0.000002
    29  H   -0.000000   0.000000  -0.000000  -0.000000   0.000000  -0.000000
    30  H    0.000000  -0.000000   0.000000  -0.000000  -0.000006   0.000009
    31  H    0.000000   0.000000   0.000000  -0.000000   0.000000   0.000000
    32  H    0.000000  -0.000000   0.000000  -0.000000   0.000000  -0.000000
               7          8          9         10         11         12
     1  O    0.000000  -0.000000   0.000000   0.000000  -0.000000  -0.083511
     2  C    0.000000  -0.000000  -0.000000  -0.000000   0.000000   0.569991
     3  C    0.000115  -0.000004   0.000000   0.000000  -0.000000  -0.072639
     4  C   -0.004444  -0.001661   0.000001   0.000000   0.000000  -0.000124
     5  C   -0.042918  -0.004282   0.000149   0.000003  -0.000003   0.000794
     6  C    0.366980  -0.039942   0.003545  -0.000135   0.000003   0.000007
     7  C    4.910530   0.376919  -0.033456   0.003538   0.000134  -0.000000
     8  C    0.376919   4.898006   0.379330  -0.039689  -0.005016   0.000000
     9  C   -0.033456   0.379330   4.896269   0.374279  -0.045561  -0.000000
    10  C    0.003538  -0.039689   0.374279   4.877621   0.375878   0.000000
    11  C    0.000134  -0.005016  -0.045561   0.375878   4.915075  -0.000000
    12  O   -0.000000   0.000000  -0.000000   0.000000  -0.000000   8.039851
    13  H   -0.000000   0.000000  -0.000000  -0.000000   0.000000   0.011405
    14  H    0.000001   0.000000  -0.000000  -0.000000   0.000000   0.002104
    15  H   -0.000016   0.000005   0.000000  -0.000000  -0.000000   0.001611
    16  H    0.003036   0.000365  -0.000058  -0.000001   0.000000  -0.000082
    17  H   -0.000954   0.000100   0.000000   0.000000  -0.000000   0.000008
    18  H    0.004744   0.000087  -0.000002  -0.000000   0.000000   0.000193
    19  H   -0.007432   0.003756  -0.000111   0.000010  -0.000005   0.000023
    20  H   -0.032976   0.004665  -0.000131   0.000002  -0.000000   0.000000
    21  H   -0.038241  -0.006883   0.000034  -0.000000   0.000000   0.000000
    22  H    0.381757  -0.040404  -0.003279   0.000049  -0.000013  -0.000000
    23  H    0.379585  -0.040895  -0.004627   0.000022   0.000002   0.000000
    24  H   -0.038084   0.384588  -0.038564  -0.004106   0.002878  -0.000000
    25  H   -0.040705   0.383465  -0.040328  -0.003245  -0.000688   0.000000
    26  H   -0.003549  -0.040106   0.380871  -0.038404  -0.007080  -0.000000
    27  H   -0.004722  -0.040601   0.379218  -0.033780   0.005091  -0.000000
    28  H   -0.000138   0.004586  -0.031706   0.380199  -0.039692  -0.000000
    29  H    0.000054  -0.007593  -0.038037   0.385430  -0.040013  -0.000000
    30  H   -0.000110   0.002385  -0.004646  -0.035087   0.388399   0.000000
    31  H   -0.000023  -0.000687  -0.004639  -0.035862   0.386740  -0.000000
    32  H   -0.000001   0.000149   0.004298  -0.028184   0.381145   0.000000
              13         14         15         16         17         18
     1  O    0.268507   0.001913   0.003357   0.000009   0.005125   0.000157
     2  C   -0.009381  -0.026242  -0.032485   0.003652  -0.008482   0.006222
     3  C    0.010815   0.355314   0.376479  -0.030312  -0.035356  -0.005656
     4  C   -0.000289  -0.023523  -0.031514   0.380622   0.383960  -0.040281
     5  C   -0.000066   0.004552  -0.005737  -0.041176  -0.040144   0.379986
     6  C    0.000000  -0.000121   0.000093  -0.004981  -0.002519  -0.031244
     7  C   -0.000000   0.000001  -0.000016   0.003036  -0.000954   0.004744
     8  C    0.000000   0.000000   0.000005   0.000365   0.000100   0.000087
     9  C   -0.000000  -0.000000   0.000000  -0.000058   0.000000  -0.000002
    10  C   -0.000000  -0.000000  -0.000000  -0.000001   0.000000  -0.000000
    11  C    0.000000   0.000000  -0.000000   0.000000  -0.000000   0.000000
    12  O    0.011405   0.002104   0.001611  -0.000082   0.000008   0.000193
    13  H    0.401095  -0.000491  -0.000323   0.000016  -0.000195   0.000057
    14  H   -0.000491   0.603209  -0.032687  -0.005659  -0.002719   0.000032
    15  H   -0.000323  -0.032687   0.587629  -0.003693   0.005166  -0.000303
    16  H    0.000016  -0.005659  -0.003693   0.630698  -0.038032   0.006060
    17  H   -0.000195  -0.002719   0.005166  -0.038032   0.615814  -0.004827
    18  H    0.000057   0.000032  -0.000303   0.006060  -0.004827   0.633555
    19  H    0.000000  -0.000029   0.004460  -0.006262   0.005848  -0.039073
    20  H    0.000000   0.000001   0.000006  -0.000289   0.004956  -0.004241
    21  H   -0.000000   0.000002  -0.000000  -0.000040   0.000003  -0.003642
    22  H    0.000000   0.000008   0.000005   0.001591   0.000470  -0.000015
    23  H    0.000000  -0.000000  -0.000000  -0.000079  -0.000033  -0.000149
    24  H    0.000000  -0.000002   0.000018   0.000996  -0.000021  -0.000047
    25  H   -0.000000   0.000000  -0.000001  -0.000021  -0.000002  -0.000037
    26  H    0.000000  -0.000000  -0.000000   0.000022  -0.000000  -0.000000
    27  H   -0.000000  -0.000000   0.000000   0.000002  -0.000000   0.000000
    28  H   -0.000000  -0.000000   0.000000  -0.000000  -0.000000  -0.000000
    29  H    0.000000  -0.000000  -0.000000   0.000000   0.000000  -0.000000
    30  H   -0.000000  -0.000000   0.000001  -0.000004   0.000000  -0.000000
    31  H    0.000000  -0.000000   0.000000   0.000002  -0.000000  -0.000000
    32  H    0.000000  -0.000000  -0.000000   0.000000   0.000000   0.000000
              19         20         21         22         23         24
     1  O    0.000018  -0.000002   0.000000   0.000000   0.000000  -0.000000
     2  C   -0.000810  -0.000011  -0.000005  -0.000003   0.000000   0.000001
     3  C   -0.002378   0.000061  -0.000146  -0.000109  -0.000001  -0.000052
     4  C   -0.041056  -0.006881   0.004631   0.003298   0.000070   0.000327
     5  C    0.382940  -0.038828  -0.033975  -0.007611   0.004984   0.002691
     6  C   -0.036805   0.375336   0.378348  -0.037567  -0.032238  -0.004726
     7  C   -0.007432  -0.032976  -0.038241   0.381757   0.379585  -0.038084
     8  C    0.003756   0.004665  -0.006883  -0.040404  -0.040895   0.384588
     9  C   -0.000111  -0.000131   0.000034  -0.003279  -0.004627  -0.038564
    10  C    0.000010   0.000002  -0.000000   0.000049   0.000022  -0.004106
    11  C   -0.000005  -0.000000   0.000000  -0.000013   0.000002   0.002878
    12  O    0.000023   0.000000   0.000000  -0.000000   0.000000  -0.000000
    13  H    0.000000   0.000000  -0.000000   0.000000   0.000000   0.000000
    14  H   -0.000029   0.000001   0.000002   0.000008  -0.000000  -0.000002
    15  H    0.004460   0.000006  -0.000000   0.000005  -0.000000   0.000018
    16  H   -0.006262  -0.000289  -0.000040   0.001591  -0.000079   0.000996
    17  H    0.005848   0.004956   0.000003   0.000470  -0.000033  -0.000021
    18  H   -0.039073  -0.004241  -0.003642  -0.000015  -0.000149  -0.000047
    19  H    0.633309   0.006011  -0.003734   0.000063  -0.000003   0.001701
    20  H    0.006011   0.649436  -0.038893  -0.003719  -0.003613  -0.000036
    21  H   -0.003734  -0.038893   0.644755   0.006058  -0.004509  -0.000303
    22  H    0.000063  -0.003719   0.006058   0.645687  -0.040473  -0.006654
    23  H   -0.000003  -0.003613  -0.004509  -0.040473   0.646921   0.006112
    24  H    0.001701  -0.000036  -0.000303  -0.006654   0.006112   0.638141
    25  H    0.000529   0.000017   0.005097   0.006180  -0.005458  -0.042707
    26  H    0.000007   0.000004   0.000006   0.004645  -0.000550  -0.006240
    27  H   -0.000000  -0.000006   0.000002  -0.000568   0.005857   0.006118
    28  H   -0.000000  -0.000000   0.000000   0.000004  -0.000005  -0.000015
    29  H    0.000000   0.000000  -0.000001   0.000007   0.000003  -0.000262
    30  H    0.000009  -0.000000   0.000000   0.000010  -0.000001   0.002064
    31  H   -0.000000  -0.000000  -0.000000   0.000000   0.000000   0.000404
    32  H    0.000000   0.000000  -0.000000  -0.000000   0.000000  -0.000130
              25         26         27         28         29         30
     1  O   -0.000000  -0.000000  -0.000000  -0.000000  -0.000000   0.000000
     2  C   -0.000000  -0.000000   0.000000  -0.000000   0.000000  -0.000000
     3  C    0.000000   0.000000  -0.000000   0.000000  -0.000000   0.000000
     4  C    0.000101   0.000003  -0.000001   0.000000  -0.000000  -0.000000
     5  C   -0.001065  -0.000017   0.000004  -0.000000   0.000000  -0.000006
     6  C   -0.002535   0.000063   0.000026   0.000002  -0.000000   0.000009
     7  C   -0.040705  -0.003549  -0.004722  -0.000138   0.000054  -0.000110
     8  C    0.383465  -0.040106  -0.040601   0.004586  -0.007593   0.002385
     9  C   -0.040328   0.380871   0.379218  -0.031706  -0.038037  -0.004646
    10  C   -0.003245  -0.038404  -0.033780   0.380199   0.385430  -0.035087
    11  C   -0.000688  -0.007080   0.005091  -0.039692  -0.040013   0.388399
    12  O    0.000000  -0.000000  -0.000000  -0.000000  -0.000000   0.000000
    13  H   -0.000000   0.000000  -0.000000  -0.000000   0.000000  -0.000000
    14  H    0.000000  -0.000000  -0.000000  -0.000000  -0.000000  -0.000000
    15  H   -0.000001  -0.000000   0.000000   0.000000  -0.000000   0.000001
    16  H   -0.000021   0.000022   0.000002  -0.000000   0.000000  -0.000004
    17  H   -0.000002  -0.000000  -0.000000  -0.000000   0.000000   0.000000
    18  H   -0.000037  -0.000000   0.000000  -0.000000  -0.000000  -0.000000
    19  H    0.000529   0.000007  -0.000000  -0.000000   0.000000   0.000009
    20  H    0.000017   0.000004  -0.000006  -0.000000   0.000000  -0.000000
    21  H    0.005097   0.000006   0.000002   0.000000  -0.000001   0.000000
    22  H    0.006180   0.004645  -0.000568   0.000004   0.000007   0.000010
    23  H   -0.005458  -0.000550   0.005857  -0.000005   0.000003  -0.000001
    24  H   -0.042707  -0.006240   0.006118  -0.000015  -0.000262   0.002064
    25  H    0.645300   0.006127  -0.005514   0.000031   0.005524   0.000432
    26  H    0.006127   0.649113  -0.040522  -0.003172   0.006098  -0.000144
    27  H   -0.005514  -0.040522   0.649527  -0.004403  -0.003175  -0.000023
    28  H    0.000031  -0.003172  -0.004403   0.646860  -0.039946   0.005523
    29  H    0.005524   0.006098  -0.003175  -0.039946   0.641802  -0.005266
    30  H    0.000432  -0.000144  -0.000023   0.005523  -0.005266   0.607379
    31  H    0.000080   0.005432   0.000033  -0.004403   0.005528  -0.034210
    32  H   -0.000023   0.000008  -0.000184  -0.004167  -0.002563  -0.031949
              31         32
     1  O    0.000000   0.000000
     2  C    0.000000  -0.000000
     3  C    0.000000   0.000000
     4  C   -0.000000  -0.000000
     5  C    0.000000   0.000000
     6  C    0.000000  -0.000000
     7  C   -0.000023  -0.000001
     8  C   -0.000687   0.000149
     9  C   -0.004639   0.004298
    10  C   -0.035862  -0.028184
    11  C    0.386740   0.381145
    12  O   -0.000000   0.000000
    13  H    0.000000   0.000000
    14  H   -0.000000  -0.000000
    15  H    0.000000  -0.000000
    16  H    0.000002   0.000000
    17  H   -0.000000   0.000000
    18  H   -0.000000   0.000000
    19  H   -0.000000   0.000000
    20  H   -0.000000   0.000000
    21  H   -0.000000  -0.000000
    22  H    0.000000  -0.000000
    23  H    0.000000   0.000000
    24  H    0.000404  -0.000130
    25  H    0.000080  -0.000023
    26  H    0.005432   0.000008
    27  H    0.000033  -0.000184
    28  H   -0.004403  -0.004167
    29  H    0.005528  -0.002563
    30  H   -0.034210  -0.031949
    31  H    0.613204  -0.032462
    32  H   -0.032462   0.613657
 Mulliken charges:
               1
     1  O   -0.466270
     2  C    0.552877
     3  C   -0.240429
     4  C   -0.187530
     5  C   -0.177742
     6  C   -0.186303
     7  C   -0.179627
     8  C   -0.170643
     9  C   -0.172851
    10  C   -0.178537
    11  C   -0.317276
    12  O   -0.469630
    13  H    0.318850
    14  H    0.124338
    15  H    0.127930
    16  H    0.103622
    17  H    0.111832
    18  H    0.098425
    19  H    0.099016
    20  H    0.089129
    21  H    0.091437
    22  H    0.090583
    23  H    0.089077
    24  H    0.095910
    25  H    0.089447
    26  H    0.087388
    27  H    0.087619
    28  H    0.090443
    29  H    0.092410
    30  H    0.105234
    31  H    0.100863
    32  H    0.100407
 Sum of Mulliken charges =  -0.00000
 Mulliken charges with hydrogens summed into heavy atoms:
               1
     1  O   -0.147420
     2  C    0.552877
     3  C    0.011839
     4  C    0.027924
     5  C    0.019700
     6  C   -0.005737
     7  C    0.000033
     8  C    0.014713
     9  C    0.002157
    10  C    0.004316
    11  C   -0.010772
    12  O   -0.469630
 Electronic spatial extent (au):  <R**2>=           4272.2064
 Charge=             -0.0000 electrons
 Dipole moment (field-independent basis, Debye):
    X=             -0.6740    Y=             -1.0264    Z=             -1.2737  Tot=              1.7692
 Quadrupole moment (field-independent basis, Debye-Ang):
   XX=            -75.0600   YY=            -77.6077   ZZ=            -78.7237
   XY=             -5.5253   XZ=             -4.9081   YZ=             -3.8604
 Traceless Quadrupole moment (field-independent basis, Debye-Ang):
   XX=              2.0705   YY=             -0.4772   ZZ=             -1.5933
   XY=             -5.5253   XZ=             -4.9081   YZ=             -3.8604
 Octapole moment (field-independent basis, Debye-Ang**2):
  XXX=             69.4433  YYY=              0.1528  ZZZ=             -1.7224  XYY=              6.2395
  XXY=            -28.6400  XXZ=            -16.4382  XZZ=             -0.7208  YZZ=             -0.8533
  YYZ=             -3.2138  XYZ=            -14.1854
 Hexadecapole moment (field-independent basis, Debye-Ang**3):
 XXXX=          -4151.4554 YYYY=           -775.1344 ZZZZ=           -281.1933 XXXY=           -139.8021
 XXXZ=            -62.6266 YYYX=              7.6080 YYYZ=              1.2563 ZZZX=             -6.8310
 ZZZY=             -3.3118 XXYY=           -905.0622 XXZZ=           -852.1155 YYZZ=           -177.9246
 XXYZ=            -57.9561 YYXZ=            -17.1540 ZZXY=             -5.9704
 N-N= 7.047214287583D+02 E-N=-2.672642411905D+03  KE= 5.384789187949D+02
 Calling FoFJK, ICntrl=      2127 FMM=F ISym2X=0 I1Cent= 0 IOpClX= 0 NMat=1 NMatS=1 NMatT=0.
 ***** Axes restored to original set *****
 -------------------------------------------------------------------
 Center     Atomic                   Forces (Hartrees/Bohr)
 Number     Number              X              Y              Z
 -------------------------------------------------------------------
      1        8          -0.001399523   -0.007463213   -0.008674070
      2        6          -0.004693416    0.009691015   -0.022187027
      3        6          -0.004167195   -0.000309407    0.004434378
      4        6          -0.003188243    0.003951701   -0.000546963
      5        6           0.002395265   -0.004972899    0.002825440
      6        6           0.005275046   -0.001670672   -0.004424099
      7        6          -0.001162916    0.008366285   -0.001836518
      8        6           0.003075401   -0.009743064    0.003093502
      9        6          -0.003230782    0.008543046   -0.002137601
     10        6           0.007668630   -0.000647458    0.002312670
     11        6          -0.005383080   -0.000806959    0.001403290
     12        8           0.001482109   -0.015712879    0.008610833
     13        1           0.000741014    0.010238869    0.012905726
     14        1           0.002976610   -0.004960882    0.001896313
     15        1          -0.002167535    0.004174910    0.000696005
     16        1           0.001661839   -0.001128412   -0.003248147
     17        1           0.000267687    0.000783401    0.003440744
     18        1           0.000345276    0.002659517    0.003351441
     19        1           0.000950534    0.000816608   -0.004121069
     20        1           0.001360952   -0.002251766    0.003717779
     21        1          -0.002879223    0.002820757   -0.001600970
     22        1           0.004276595   -0.001827606   -0.000551590
     23        1          -0.003654780   -0.001986402    0.000685742
     24        1           0.003077651    0.002407643   -0.001043500
     25        1          -0.003960444    0.002413918   -0.000332290
     26        1           0.004511150   -0.001672286    0.000210005
     27        1          -0.003594694   -0.001858388    0.001949772
     28        1          -0.000433061   -0.003540261   -0.001622664
     29        1          -0.003022298    0.003034254    0.000881357
     30        1           0.000858679    0.002225952    0.001701721
     31        1           0.002460961   -0.002144964    0.000953868
     32        1          -0.000448210    0.000569644   -0.002744079
 -------------------------------------------------------------------
 Cartesian Forces:  Max     0.022187027 RMS     0.004795862

 GradGradGradGradGradGradGradGradGradGradGradGradGradGradGradGradGradGrad
 Berny optimization.
 FormGI is forming the generalized inverse of G from B-inverse, IUseBI=4.
 Internal  Forces:  Max     0.016860672 RMS     0.002947113
 Search for a local minimum.
 Step number   1 out of a maximum of  179
 All quantities printed in internal units (Hartrees-Bohrs-Radians)
 Mixed Optimization -- RFO/linear search
 Second derivative matrix not updated -- first step.
 ITU=  0
     Eigenvalues ---    0.00230   0.00230   0.00230   0.00230   0.00230
     Eigenvalues ---    0.00230   0.00230   0.00275   0.00417   0.00894
     Eigenvalues ---    0.02344   0.03091   0.03223   0.03227   0.03232
     Eigenvalues ---    0.03259   0.03274   0.03409   0.03704   0.04643
     Eigenvalues ---    0.04673   0.04679   0.04684   0.04690   0.04705
     Eigenvalues ---    0.04728   0.05165   0.05348   0.05457   0.08287
     Eigenvalues ---    0.08543   0.08555   0.08572   0.08582   0.08588
     Eigenvalues ---    0.08859   0.09760   0.12185   0.12372   0.12379
     Eigenvalues ---    0.12396   0.12402   0.12405   0.12590   0.13068
     Eigenvalues ---    0.16000   0.16000   0.16000   0.16000   0.21889
     Eigenvalues ---    0.21895   0.21896   0.21898   0.21906   0.21908
     Eigenvalues ---    0.21931   0.21960   0.24998   0.25000   0.27754
     Eigenvalues ---    0.28160   0.28181   0.28199   0.28438   0.28452
     Eigenvalues ---    0.28453   0.28775   0.29760   0.34536   0.34641
     Eigenvalues ---    0.34642   0.34644   0.34648   0.34649   0.34650
     Eigenvalues ---    0.34656   0.34658   0.34668   0.34703   0.34705
     Eigenvalues ---    0.34718   0.34733   0.34756   0.34792   0.34796
     Eigenvalues ---    0.34805   0.34880   0.54880   0.56033   0.94487
 RFO step:  Lambda=-5.15971234D-03 EMin= 2.30000000D-03
 Linear search not attempted -- first point.
 Iteration  1 RMS(Cart)=  0.07321807 RMS(Int)=  0.00070206
 Iteration  2 RMS(Cart)=  0.00148411 RMS(Int)=  0.00017235
 Iteration  3 RMS(Cart)=  0.00000090 RMS(Int)=  0.00017235
 Variable       Old X    -DE/DX   Delta X   Delta X   Delta X     New X
                                 (Linear)    (Quad)   (Total)
    R1        2.55238   0.00256   0.00000   0.00463   0.00463   2.55701
    R2        1.80925   0.01608   0.00000   0.02844   0.02844   1.83769
    R3        2.88444  -0.00920   0.00000  -0.03039  -0.03039   2.85405
    R4        2.30931  -0.01686   0.00000  -0.01775  -0.01775   2.29156
    R5        2.92679  -0.00814   0.00000  -0.02878  -0.02878   2.89801
    R6        2.05871   0.00502   0.00000   0.01419   0.01419   2.07290
    R7        2.05993   0.00150   0.00000   0.00424   0.00424   2.06417
    R8        2.91791  -0.00766   0.00000  -0.02672  -0.02672   2.89118
    R9        2.06156   0.00330   0.00000   0.00938   0.00938   2.07094
   R10        2.06434   0.00260   0.00000   0.00741   0.00741   2.07176
   R11        2.91705  -0.00501   0.00000  -0.01746  -0.01746   2.89959
   R12        2.06218   0.00417   0.00000   0.01185   0.01185   2.07403
   R13        2.06159   0.00395   0.00000   0.01121   0.01121   2.07281
   R14        2.91744  -0.00445   0.00000  -0.01552  -0.01552   2.90192
   R15        2.06257   0.00433   0.00000   0.01231   0.01231   2.07488
   R16        2.06261   0.00399   0.00000   0.01135   0.01135   2.07396
   R17        2.91159  -0.00488   0.00000  -0.01686  -0.01686   2.89473
   R18        2.06135   0.00446   0.00000   0.01264   0.01264   2.07399
   R19        2.06238   0.00416   0.00000   0.01183   0.01183   2.07421
   R20        2.91161  -0.00464   0.00000  -0.01602  -0.01602   2.89559
   R21        2.06007   0.00404   0.00000   0.01143   0.01143   2.07150
   R22        2.06248   0.00462   0.00000   0.01315   0.01315   2.07564
   R23        2.91191  -0.00332   0.00000  -0.01148  -0.01148   2.90044
   R24        2.06260   0.00463   0.00000   0.01318   0.01318   2.07578
   R25        2.06247   0.00438   0.00000   0.01244   0.01244   2.07491
   R26        2.90475  -0.00257   0.00000  -0.00878  -0.00878   2.89597
   R27        2.06234   0.00385   0.00000   0.01096   0.01096   2.07330
   R28        2.06250   0.00414   0.00000   0.01176   0.01176   2.07427
   R29        2.06013   0.00287   0.00000   0.00812   0.00812   2.06825
   R30        2.06111   0.00330   0.00000   0.00936   0.00936   2.07047
   R31        2.06074   0.00284   0.00000   0.00805   0.00805   2.06878
    A1        1.81751   0.00662   0.00000   0.04006   0.04006   1.85757
    A2        1.96548  -0.00186   0.00000  -0.00702  -0.00759   1.95789
    A3        2.15278  -0.00624   0.00000  -0.02417  -0.02473   2.12805
    A4        2.16482   0.00812   0.00000   0.03206   0.03146   2.19628
    A5        2.00647  -0.00532   0.00000  -0.03231  -0.03261   1.97385
    A6        1.86385   0.00359   0.00000   0.02077   0.02069   1.88454
    A7        1.89030  -0.00118   0.00000  -0.02489  -0.02505   1.86525
    A8        1.92118  -0.00110   0.00000  -0.00835  -0.00833   1.91285
    A9        1.92406   0.00322   0.00000   0.01403   0.01333   1.93740
   A10        1.85071   0.00128   0.00000   0.03627   0.03632   1.88703
   A11        1.99341  -0.00462   0.00000  -0.02664  -0.02685   1.96657
   A12        1.88483   0.00041   0.00000   0.00102   0.00125   1.88608
   A13        1.91929   0.00086   0.00000  -0.00885  -0.00921   1.91008
   A14        1.90218   0.00252   0.00000   0.02151   0.02151   1.92369
   A15        1.91782   0.00095   0.00000  -0.00426  -0.00478   1.91305
   A16        1.83959   0.00027   0.00000   0.02169   0.02164   1.86124
   A17        1.99418  -0.00253   0.00000  -0.01449  -0.01455   1.97963
   A18        1.90914   0.00043   0.00000   0.00168   0.00176   1.91090
   A19        1.91500  -0.00026   0.00000  -0.01126  -0.01131   1.90369
   A20        1.88459   0.00121   0.00000   0.01117   0.01116   1.89575
   A21        1.91817   0.00123   0.00000   0.00364   0.00342   1.92159
   A22        1.83583   0.00016   0.00000   0.01186   0.01181   1.84763
   A23        2.02338  -0.00236   0.00000  -0.01461  -0.01467   2.00871
   A24        1.89977   0.00074   0.00000   0.00235   0.00233   1.90210
   A25        1.89704   0.00003   0.00000  -0.00511  -0.00515   1.89189
   A26        1.89871   0.00043   0.00000   0.00091   0.00088   1.89959
   A27        1.89875   0.00094   0.00000   0.00282   0.00272   1.90147
   A28        1.83720   0.00047   0.00000   0.01674   0.01673   1.85393
   A29        1.99413  -0.00065   0.00000  -0.00523  -0.00527   1.98886
   A30        1.91878   0.00051   0.00000  -0.00038  -0.00048   1.91830
   A31        1.88913   0.00021   0.00000   0.00474   0.00475   1.89388
   A32        1.91573  -0.00070   0.00000  -0.01132  -0.01136   1.90437
   A33        1.90120   0.00033   0.00000   0.00399   0.00402   1.90522
   A34        1.83808   0.00040   0.00000   0.00978   0.00980   1.84788
   A35        1.96679   0.00006   0.00000   0.00004   0.00003   1.96682
   A36        1.90850   0.00010   0.00000   0.00289   0.00288   1.91138
   A37        1.91060  -0.00013   0.00000  -0.00309  -0.00310   1.90750
   A38        1.90864   0.00007   0.00000   0.00260   0.00259   1.91123
   A39        1.91084  -0.00017   0.00000  -0.00343  -0.00344   1.90740
   A40        1.85513   0.00007   0.00000   0.00108   0.00109   1.85622
   A41        1.99180   0.00009   0.00000  -0.00147  -0.00151   1.99029
   A42        1.91510  -0.00048   0.00000  -0.01007  -0.01012   1.90497
   A43        1.90204  -0.00049   0.00000  -0.00077  -0.00078   1.90126
   A44        1.91079  -0.00028   0.00000  -0.00620  -0.00627   1.90452
   A45        1.89281   0.00072   0.00000   0.01100   0.01100   1.90381
   A46        1.84544   0.00049   0.00000   0.00864   0.00865   1.85410
   A47        1.99167  -0.00025   0.00000  -0.00320  -0.00325   1.98842
   A48        1.89818  -0.00009   0.00000   0.00179   0.00180   1.89998
   A49        1.91543  -0.00060   0.00000  -0.01091  -0.01096   1.90447
   A50        1.89596   0.00048   0.00000   0.00822   0.00822   1.90418
   A51        1.91236   0.00007   0.00000  -0.00382  -0.00391   1.90845
   A52        1.84430   0.00045   0.00000   0.00920   0.00922   1.85352
   A53        1.95028   0.00011   0.00000   0.00024   0.00022   1.95050
   A54        1.94364  -0.00111   0.00000  -0.00839  -0.00839   1.93524
   A55        1.93484   0.00032   0.00000   0.00396   0.00396   1.93880
   A56        1.88312   0.00011   0.00000  -0.00309  -0.00312   1.88000
   A57        1.87166   0.00014   0.00000   0.00390   0.00389   1.87555
   A58        1.87695   0.00050   0.00000   0.00379   0.00380   1.88074
    D1        3.14006   0.00054   0.00000   0.03263   0.03175  -3.11138
    D2        0.01369  -0.00044   0.00000  -0.02915  -0.02827  -0.01458
    D3        1.09219  -0.00121   0.00000  -0.05070  -0.05136   1.04084
    D4       -1.04423   0.00101   0.00000  -0.03432  -0.03457  -1.07880
    D5       -3.03068  -0.00168   0.00000  -0.07467  -0.07458  -3.10525
    D6       -2.06475  -0.00037   0.00000   0.01100   0.01089  -2.05386
    D7        2.08201   0.00185   0.00000   0.02737   0.02767   2.10968
    D8        0.09557  -0.00085   0.00000  -0.01297  -0.01234   0.08323
    D9        1.14003  -0.00186   0.00000  -0.05271  -0.05277   1.08726
   D10       -3.02418  -0.00137   0.00000  -0.04195  -0.04203  -3.06621
   D11       -1.02534  -0.00037   0.00000  -0.02031  -0.02054  -1.04588
   D12       -3.03790  -0.00173   0.00000  -0.05453  -0.05442  -3.09231
   D13       -0.91892  -0.00124   0.00000  -0.04377  -0.04368  -0.96260
   D14        1.07992  -0.00024   0.00000  -0.02212  -0.02219   1.05773
   D15       -1.00228   0.00108   0.00000  -0.00693  -0.00678  -1.00907
   D16        1.11670   0.00157   0.00000   0.00383   0.00395   1.12065
   D17        3.11553   0.00258   0.00000   0.02548   0.02544   3.14098
   D18       -3.11010   0.00010   0.00000   0.00743   0.00736  -3.10274
   D19       -0.99541   0.00025   0.00000   0.01320   0.01310  -0.98230
   D20        1.01007   0.00053   0.00000   0.02211   0.02193   1.03200
   D21        1.06370   0.00082   0.00000   0.00826   0.00841   1.07211
   D22       -3.10478   0.00097   0.00000   0.01404   0.01414  -3.09064
   D23       -1.09931   0.00126   0.00000   0.02294   0.02297  -1.07634
   D24       -0.94395  -0.00144   0.00000  -0.02739  -0.02733  -0.97127
   D25        1.17075  -0.00129   0.00000  -0.02162  -0.02159   1.14917
   D26       -3.10696  -0.00100   0.00000  -0.01272  -0.01276  -3.11972
   D27       -1.05976   0.00046   0.00000   0.01829   0.01831  -1.04145
   D28        1.08672  -0.00008   0.00000   0.01082   0.01082   1.09755
   D29        3.07907   0.00088   0.00000   0.02911   0.02907   3.10814
   D30        3.09521   0.00070   0.00000   0.01756   0.01763   3.11283
   D31       -1.04149   0.00017   0.00000   0.01009   0.01014  -1.03135
   D32        0.95085   0.00112   0.00000   0.02838   0.02839   0.97924
   D33        1.10155  -0.00079   0.00000  -0.00442  -0.00443   1.09711
   D34       -3.03515  -0.00132   0.00000  -0.01189  -0.01192  -3.04707
   D35       -1.04280  -0.00037   0.00000   0.00639   0.00633  -1.03648
   D36       -1.05361   0.00065   0.00000   0.02325   0.02326  -1.03035
   D37        1.10912  -0.00035   0.00000   0.00411   0.00411   1.11323
   D38        3.10825   0.00051   0.00000   0.01814   0.01815   3.12640
   D39        3.08254   0.00102   0.00000   0.02996   0.02996   3.11250
   D40       -1.03792   0.00002   0.00000   0.01081   0.01081  -1.02711
   D41        0.96121   0.00088   0.00000   0.02484   0.02485   0.98606
   D42        1.08985  -0.00025   0.00000   0.00825   0.00824   1.09809
   D43       -3.03061  -0.00126   0.00000  -0.01090  -0.01091  -3.04152
   D44       -1.03148  -0.00040   0.00000   0.00313   0.00313  -1.02835
   D45       -3.07547  -0.00001   0.00000  -0.00604  -0.00601  -3.08148
   D46        1.08118  -0.00022   0.00000  -0.01143  -0.01140   1.06978
   D47       -0.94463  -0.00028   0.00000  -0.01261  -0.01259  -0.95722
   D48        1.04336   0.00034   0.00000   0.00721   0.00718   1.05054
   D49       -1.08317   0.00014   0.00000   0.00183   0.00179  -1.08138
   D50       -3.10899   0.00007   0.00000   0.00064   0.00061  -3.10838
   D51       -0.96080   0.00006   0.00000  -0.00052  -0.00052  -0.96131
   D52       -3.08733  -0.00015   0.00000  -0.00591  -0.00591  -3.09324
   D53        1.17004  -0.00021   0.00000  -0.00710  -0.00709   1.16295
   D54        3.08950   0.00032   0.00000   0.01201   0.01200   3.10149
   D55       -1.04204  -0.00035   0.00000  -0.00495  -0.00493  -1.04697
   D56        0.97104  -0.00031   0.00000  -0.00059  -0.00059   0.97045
   D57       -1.06723   0.00054   0.00000   0.01756   0.01755  -1.04968
   D58        1.08442  -0.00013   0.00000   0.00060   0.00062   1.08503
   D59        3.09750  -0.00009   0.00000   0.00496   0.00497   3.10246
   D60        0.95880   0.00057   0.00000   0.01840   0.01838   0.97718
   D61        3.11044  -0.00010   0.00000   0.00144   0.00145   3.11189
   D62       -1.15966  -0.00006   0.00000   0.00580   0.00580  -1.15386
   D63        1.15386  -0.00064   0.00000  -0.02813  -0.02810   1.12575
   D64       -3.00975  -0.00026   0.00000  -0.01840  -0.01839  -3.02814
   D65       -1.00001  -0.00009   0.00000  -0.01235  -0.01237  -1.01238
   D66       -1.00012   0.00014   0.00000  -0.00910  -0.00909  -1.00921
   D67        1.11946   0.00052   0.00000   0.00063   0.00062   1.12008
   D68        3.12920   0.00069   0.00000   0.00668   0.00664   3.13584
   D69       -3.00577  -0.00068   0.00000  -0.02205  -0.02202  -3.02779
   D70       -0.88619  -0.00030   0.00000  -0.01232  -0.01231  -0.89850
   D71        1.12355  -0.00013   0.00000  -0.00627  -0.00629   1.11726
   D72       -1.12586   0.00071   0.00000   0.01914   0.01913  -1.10674
   D73        0.98151   0.00014   0.00000   0.00950   0.00950   0.99102
   D74        3.07055   0.00025   0.00000   0.01137   0.01136   3.08191
   D75        3.03651   0.00063   0.00000   0.01296   0.01296   3.04947
   D76       -1.13929   0.00007   0.00000   0.00333   0.00334  -1.13596
   D77        0.94974   0.00018   0.00000   0.00520   0.00519   0.95494
   D78        1.02966  -0.00020   0.00000  -0.00045  -0.00045   1.02921
   D79        3.13704  -0.00077   0.00000  -0.01008  -0.01007   3.12697
   D80       -1.05711  -0.00066   0.00000  -0.00821  -0.00822  -1.06533
         Item               Value     Threshold  Converged?
 Maximum Force            0.016861     0.000450     NO 
 RMS     Force            0.002947     0.000300     NO 
 Maximum Displacement     0.363702     0.001800     NO 
 RMS     Displacement     0.074024     0.001200     NO 
 Predicted change in Energy=-2.715624D-03
 GradGradGradGradGradGradGradGradGradGradGradGradGradGradGradGradGradGrad

                          Input orientation:                          
 ---------------------------------------------------------------------
 Center     Atomic      Atomic             Coordinates (Angstroms)
 Number     Number       Type             X           Y           Z
 ---------------------------------------------------------------------
      1          8           0        5.393528   -0.797390    0.807272
      2          6           0        5.278065   -0.241148   -0.420806
      3          6           0        5.269770   -1.278784   -1.518186
      4          6           0        4.118361   -2.283274   -1.387528
      5          6           0        2.743137   -1.620858   -1.491011
      6          6           0        1.577990   -2.602423   -1.308443
      7          6           0        1.529634   -3.752099   -2.325335
      8          6           0        1.423812   -3.289964   -3.781948
      9          6           0        1.292935   -4.458267   -4.764709
     10          6           0        1.128740   -4.028130   -6.228872
     11          6           0        2.345610   -3.292953   -6.800918
     12          8           0        5.147779    0.954769   -0.573489
     13          1           0        5.362037   -0.064235    1.445378
     14          1           0        6.228120   -1.811595   -1.487547
     15          1           0        5.211930   -0.737940   -2.465435
     16          1           0        4.235213   -3.038230   -2.173259
     17          1           0        4.201444   -2.811035   -0.430189
     18          1           0        2.658777   -0.831927   -0.732697
     19          1           0        2.661159   -1.114672   -2.460653
     20          1           0        1.622985   -3.025893   -0.296413
     21          1           0        0.638109   -2.038418   -1.363299
     22          1           0        2.417451   -4.387558   -2.213536
     23          1           0        0.670347   -4.392142   -2.087105
     24          1           0        2.304454   -2.690752   -4.040891
     25          1           0        0.555422   -2.626119   -3.889858
     26          1           0        2.177064   -5.104119   -4.676407
     27          1           0        0.432294   -5.074536   -4.472981
     28          1           0        0.926797   -4.917191   -6.839210
     29          1           0        0.241863   -3.387557   -6.318084
     30          1           0        2.530204   -2.347971   -6.280530
     31          1           0        3.249695   -3.905290   -6.710872
     32          1           0        2.203277   -3.061598   -7.861436
 ---------------------------------------------------------------------
                    Distance matrix (angstroms):
                    1          2          3          4          5
     1  O    0.000000
     2  C    1.353112   0.000000
     3  C    2.377985   1.510299   0.000000
     4  C    2.941267   2.539635   1.533563   0.000000
     5  C    3.603440   3.078116   2.549829   1.529949   0.000000
     6  C    4.721517   4.478178   3.927500   2.561561   1.534396
     7  C    5.785604   5.477659   4.556029   3.120647   2.590536
     8  C    6.559917   5.953807   4.894983   3.742627   3.126487
     9  C    7.827123   7.248093   6.038563   4.911107   4.568487
    10  C    8.839311   8.080332   6.848182   5.951551   5.554148
[...]
 Alpha virt. eigenvalues --    3.99794   4.00684   4.02695   4.04550   4.05013
 Alpha virt. eigenvalues --    4.08865   4.12533   4.15787   4.16792   4.19272
 Alpha virt. eigenvalues --    4.21580   4.23669   4.27235   4.29273   4.32197
 Alpha virt. eigenvalues --    4.35259   4.36869   4.38720   4.40185   4.43552
 Alpha virt. eigenvalues --    4.48468   4.49718   4.50414   4.52950   4.54816
 Alpha virt. eigenvalues --    4.56976   4.59302   4.60739   4.63016   4.63850
 Alpha virt. eigenvalues --    4.64026   4.65338   4.66746   4.71775   4.73795
 Alpha virt. eigenvalues --    4.76003   4.78586   4.79720   4.82128   4.89961
 Alpha virt. eigenvalues --    4.99797   5.06228   5.08071   5.17186   5.20519
 Alpha virt. eigenvalues --    5.22770   5.39433   5.40298   5.51041   5.59509
 Alpha virt. eigenvalues --    5.73555   5.85009   5.86884   6.15710   6.19213
 Alpha virt. eigenvalues --    6.33297   6.34000   6.46023   6.47569   6.64007
 Alpha virt. eigenvalues --    6.69092   6.74037   6.81176   6.88602   7.07127
 Alpha virt. eigenvalues --    7.07815   7.28111  22.41391  22.47755  22.54351
 Alpha virt. eigenvalues --   22.56512  22.57699  22.58162  22.60416  22.65222
 Alpha virt. eigenvalues --   22.66952  23.27020  43.94250  44.01429
          Condensed to atoms (all electrons):
               1          2          3          4          5          6
     1  O    7.976292   0.337826  -0.117828   0.004666   0.003296  -0.001677
     2  C    0.337826   4.524000   0.265909  -0.034826   0.016942  -0.001036
     3  C   -0.117828   0.265909   5.299446   0.188302  -0.059528   0.012517
     4  C    0.004666  -0.034826   0.188302   5.331489   0.174718  -0.043157
     5  C    0.003296   0.016942  -0.059528   0.174718   5.371055   0.190145
     6  C   -0.001677  -0.001036   0.012517  -0.043157   0.190145   5.234000
     7  C    0.000066   0.000287  -0.002904   0.033245  -0.078696   0.211561
     8  C   -0.000004   0.000100   0.000212  -0.012921   0.041700  -0.053126
     9  C   -0.000000  -0.000004   0.000025  -0.000039  -0.001782   0.010785
    10  C   -0.000000  -0.000000   0.000004  -0.000089   0.000432  -0.001077
    11  C    0.000000   0.000002  -0.000039   0.000233  -0.000445   0.000258
    12  O   -0.094108   0.675022  -0.097697   0.006045   0.000642   0.000379
    13  H    0.286851  -0.022686   0.017277  -0.002213  -0.000035  -0.000018
    14  H    0.003873  -0.019340   0.402678  -0.051076   0.009802  -0.000361
    15  H    0.004810  -0.057191   0.434078  -0.027431  -0.006069   0.000600
    16  H   -0.000198   0.007999  -0.037881   0.419390  -0.032410  -0.017475
    17  H    0.005039  -0.013667  -0.013834   0.421122  -0.060787   0.009725
    18  H   -0.000853   0.009202  -0.011218  -0.034370   0.432126  -0.047654
    19  H    0.000514  -0.004868   0.008428  -0.067618   0.427906  -0.024758
    20  H    0.000281   0.000023  -0.000048  -0.008808  -0.032841   0.442364
    21  H    0.000010  -0.000067  -0.000561   0.010984  -0.070439   0.446590
    22  H   -0.000000  -0.000163   0.000807  -0.000551  -0.013370  -0.030602
    23  H   -0.000000   0.000010   0.000022  -0.000631   0.011320  -0.048310
    24  H   -0.000002   0.000109  -0.000105  -0.002965   0.009634  -0.015587
    25  H   -0.000000  -0.000012   0.000035   0.000360  -0.005715   0.008464
    26  H   -0.000000   0.000000  -0.000003  -0.000122   0.000230  -0.000302
    27  H    0.000000   0.000000  -0.000001   0.000020  -0.000083  -0.000316
    28  H   -0.000000  -0.000000  -0.000000   0.000001  -0.000009   0.000049
    29  H   -0.000000   0.000000   0.000000  -0.000009   0.000054  -0.000088
    30  H    0.000000  -0.000001  -0.000001  -0.000004  -0.000061   0.000195
    31  H   -0.000000  -0.000000   0.000003  -0.000032   0.000030  -0.000021
    32  H    0.000000   0.000000   0.000000  -0.000001   0.000008  -0.000007
               7          8          9         10         11         12
     1  O    0.000066  -0.000004  -0.000000  -0.000000   0.000000  -0.094108
     2  C    0.000287   0.000100  -0.000004  -0.000000   0.000002   0.675022
     3  C   -0.002904   0.000212   0.000025   0.000004  -0.000039  -0.097697
     4  C    0.033245  -0.012921  -0.000039  -0.000089   0.000233   0.006045
     5  C   -0.078696   0.041700  -0.001782   0.000432  -0.000445   0.000642
     6  C    0.211561  -0.053126   0.010785  -0.001077   0.000258   0.000379
     7  C    5.334737   0.160249  -0.036931   0.008919  -0.000140  -0.000008
     8  C    0.160249   5.419213   0.183683  -0.048897   0.018563   0.000001
     9  C   -0.036931   0.183683   5.222475   0.259737  -0.061570  -0.000000
    10  C    0.008919  -0.048897   0.259737   5.107479   0.256694  -0.000000
    11  C   -0.000140   0.018563  -0.061570   0.256694   5.092006   0.000000
    12  O   -0.000008   0.000001  -0.000000  -0.000000   0.000000   7.820556
    13  H   -0.000005   0.000001  -0.000000   0.000000  -0.000000   0.006999
    14  H    0.000025   0.000018  -0.000002   0.000000   0.000000   0.002747
    15  H    0.000010   0.000016  -0.000010  -0.000002   0.000010   0.007850
    16  H    0.011873  -0.004023   0.000447  -0.000055   0.000030  -0.000375
    17  H   -0.006199   0.000572   0.000017   0.000002  -0.000003   0.000120
    18  H    0.011239  -0.001017   0.000057  -0.000005   0.000003  -0.000842
    19  H   -0.017152   0.002312   0.000442   0.000051  -0.000002  -0.000172
    20  H   -0.070431   0.012956  -0.000670   0.000029  -0.000001  -0.000014
    21  H   -0.036810  -0.007758  -0.000357  -0.000000   0.000012   0.000006
    22  H    0.439550  -0.067714  -0.001821  -0.000390   0.000164   0.000001
    23  H    0.438618  -0.043246  -0.005717   0.000113  -0.000112  -0.000000
    24  H   -0.033670   0.423557  -0.044004  -0.004360  -0.001396  -0.000005
    25  H   -0.047333   0.412616  -0.035053  -0.000508  -0.001789   0.000000
    26  H   -0.001964  -0.069067   0.444264  -0.037081  -0.010259   0.000000
    27  H   -0.005642  -0.046369   0.428600  -0.039916   0.008993  -0.000000
    28  H   -0.000662   0.014204  -0.062106   0.437116  -0.038463  -0.000000
    29  H   -0.000210  -0.013648  -0.036940   0.429780  -0.054664  -0.000000
    30  H    0.000040   0.009724  -0.016145  -0.040046   0.417963   0.000000
    31  H   -0.000095  -0.005794   0.007505  -0.049479   0.406576  -0.000000
    32  H    0.000051  -0.000785   0.011100  -0.041491   0.414770   0.000000
              13         14         15         16         17         18
     1  O    0.286851   0.003873   0.004810  -0.000198   0.005039  -0.000853
     2  C   -0.022686  -0.019340  -0.057191   0.007999  -0.013667   0.009202
     3  C    0.017277   0.402678   0.434078  -0.037881  -0.013834  -0.011218
     4  C   -0.002213  -0.051076  -0.027431   0.419390   0.421122  -0.034370
     5  C   -0.000035   0.009802  -0.006069  -0.032410  -0.060787   0.432126
     6  C   -0.000018  -0.000361   0.000600  -0.017475   0.009725  -0.047654
     7  C   -0.000005   0.000025   0.000010   0.011873  -0.006199   0.011239
     8  C    0.000001   0.000018   0.000016  -0.004023   0.000572  -0.001017
     9  C   -0.000000  -0.000002  -0.000010   0.000447   0.000017   0.000057
    10  C    0.000000   0.000000  -0.000002  -0.000055   0.000002  -0.000005
    11  C   -0.000000   0.000000   0.000010   0.000030  -0.000003   0.000003
    12  O    0.006999   0.002747   0.007850  -0.000375   0.000120  -0.000842
    13  H    0.379298  -0.000799  -0.000724   0.000072  -0.000286  -0.000061
    14  H   -0.000799   0.510143  -0.014812  -0.005869  -0.003164  -0.000172
    15  H   -0.000724  -0.014812   0.492582  -0.004731   0.004376   0.000748
    16  H    0.000072  -0.005869  -0.004731   0.533529  -0.019613   0.003983
    17  H   -0.000286  -0.003164   0.004376  -0.019613   0.497120   0.000283
    18  H   -0.000061  -0.000172   0.000748   0.003983   0.000283   0.502468
    19  H    0.000008  -0.000031   0.000383  -0.001415   0.005732  -0.016424
    20  H    0.000010   0.000007  -0.000036   0.001182   0.001420  -0.003467
    21  H   -0.000002   0.000015   0.000016  -0.000523   0.000054  -0.006281
    22  H   -0.000000   0.000012   0.000017  -0.009159   0.001439  -0.000753
    23  H   -0.000000  -0.000003  -0.000001   0.000580  -0.000243  -0.000049
    24  H    0.000000  -0.000021   0.000235   0.000927  -0.000066   0.000791
    25  H   -0.000000   0.000001  -0.000002  -0.000023   0.000022  -0.000272
    26  H    0.000000   0.000001  -0.000002   0.000267   0.000005  -0.000004
    27  H    0.000000  -0.000000   0.000000   0.000008  -0.000002   0.000003
    28  H    0.000000  -0.000000   0.000000  -0.000001  -0.000000   0.000000
    29  H   -0.000000   0.000000  -0.000000   0.000008   0.000000   0.000000
    30  H    0.000000  -0.000000   0.000019  -0.000057   0.000002  -0.000003
    31  H   -0.000000  -0.000000   0.000000   0.000057   0.000001   0.000000
    32  H   -0.000000   0.000000  -0.000000   0.000000  -0.000000  -0.000000
              19         20         21         22         23         24
     1  O    0.000514   0.000281   0.000010  -0.000000  -0.000000  -0.000002
     2  C   -0.004868   0.000023  -0.000067  -0.000163   0.000010   0.000109
     3  C    0.008428  -0.000048  -0.000561   0.000807   0.000022  -0.000105
     4  C   -0.067618  -0.008808   0.010984  -0.000551  -0.000631  -0.002965
     5  C    0.427906  -0.032841  -0.070439  -0.013370   0.011320   0.009634
     6  C   -0.024758   0.442364   0.446590  -0.030602  -0.048310  -0.015587
     7  C   -0.017152  -0.070431  -0.036810   0.439550   0.438618  -0.033670
     8  C    0.002312   0.012956  -0.007758  -0.067714  -0.043246   0.423557
     9  C    0.000442  -0.000670  -0.000357  -0.001821  -0.005717  -0.044004
    10  C    0.000051   0.000029  -0.000000  -0.000390   0.000113  -0.004360
    11  C   -0.000002  -0.000001   0.000012   0.000164  -0.000112  -0.001396
    12  O   -0.000172  -0.000014   0.000006   0.000001  -0.000000  -0.000005
    13  H    0.000008   0.000010  -0.000002  -0.000000  -0.000000   0.000000
    14  H   -0.000031   0.000007   0.000015   0.000012  -0.000003  -0.000021
    15  H    0.000383  -0.000036   0.000016   0.000017  -0.000001   0.000235
    16  H   -0.001415   0.001182  -0.000523  -0.009159   0.000580   0.000927
    17  H    0.005732   0.001420   0.000054   0.001439  -0.000243  -0.000066
    18  H   -0.016424  -0.003467  -0.006281  -0.000753  -0.000049   0.000791
    19  H    0.524217   0.005479  -0.001718   0.002149  -0.000884  -0.011257
    20  H    0.005479   0.525234  -0.016851  -0.001135  -0.006721  -0.000740
    21  H   -0.001718  -0.016851   0.526501   0.005416  -0.003570   0.001326
    22  H    0.002149  -0.001135   0.005416   0.531271  -0.020503  -0.002413
    23  H   -0.000884  -0.006721  -0.003570  -0.020503   0.523015   0.005491
    24  H   -0.011257  -0.000740   0.001326  -0.002413   0.005491   0.559285
    25  H    0.001898   0.000201   0.000854   0.006187  -0.002011  -0.028993
    26  H    0.000012   0.000006  -0.000019   0.001333   0.000857  -0.002701
    27  H   -0.000052  -0.000045   0.000128   0.000513   0.002043   0.006489
    28  H    0.000003  -0.000000  -0.000001   0.000026  -0.000049  -0.000590
    29  H   -0.000011  -0.000001  -0.000004  -0.000046   0.000137   0.001271
    30  H    0.000333   0.000003  -0.000008   0.000052  -0.000038  -0.008859
    31  H   -0.000006  -0.000001  -0.000000  -0.000035   0.000015   0.000752
    32  H   -0.000004   0.000000  -0.000000  -0.000005   0.000003   0.000478
              25         26         27         28         29         30
     1  O   -0.000000  -0.000000   0.000000  -0.000000  -0.000000   0.000000
     2  C   -0.000012   0.000000   0.000000  -0.000000   0.000000  -0.000001
     3  C    0.000035  -0.000003  -0.000001  -0.000000   0.000000  -0.000001
     4  C    0.000360  -0.000122   0.000020   0.000001  -0.000009  -0.000004
     5  C   -0.005715   0.000230  -0.000083  -0.000009   0.000054  -0.000061
     6  C    0.008464  -0.000302  -0.000316   0.000049  -0.000088   0.000195
     7  C   -0.047333  -0.001964  -0.005642  -0.000662  -0.000210   0.000040
     8  C    0.412616  -0.069067  -0.046369   0.014204  -0.013648   0.009724
     9  C   -0.035053   0.444264   0.428600  -0.062106  -0.036940  -0.016145
    10  C   -0.000508  -0.037081  -0.039916   0.437116   0.429780  -0.040046
    11  C   -0.001789  -0.010259   0.008993  -0.038463  -0.054664   0.417963
    12  O    0.000000   0.000000  -0.000000  -0.000000  -0.000000   0.000000
    13  H   -0.000000   0.000000   0.000000   0.000000  -0.000000   0.000000
    14  H    0.000001   0.000001  -0.000000  -0.000000   0.000000  -0.000000
    15  H   -0.000002  -0.000002   0.000000   0.000000  -0.000000   0.000019
    16  H   -0.000023   0.000267   0.000008  -0.000001   0.000008  -0.000057
    17  H    0.000022   0.000005  -0.000002  -0.000000   0.000000   0.000002
    18  H   -0.000272  -0.000004   0.000003   0.000000   0.000000  -0.000003
    19  H    0.001898   0.000012  -0.000052   0.000003  -0.000011   0.000333
    20  H    0.000201   0.000006  -0.000045  -0.000000  -0.000001   0.000003
    21  H    0.000854  -0.000019   0.000128  -0.000001  -0.000004  -0.000008
    22  H    0.006187   0.001333   0.000513   0.000026  -0.000046   0.000052
    23  H   -0.002011   0.000857   0.002043  -0.000049   0.000137  -0.000038
    24  H   -0.028993  -0.002701   0.006489  -0.000590   0.001271  -0.008859
    25  H    0.536823   0.006583  -0.003648   0.000170   0.002167   0.000715
    26  H    0.006583   0.538820  -0.023103  -0.002590   0.006713   0.001463
    27  H   -0.003648  -0.023103   0.544263  -0.007107  -0.002509  -0.000663
    28  H    0.000170  -0.002590  -0.007107   0.551433  -0.024641   0.006376
    29  H    0.002167   0.006713  -0.002509  -0.024641   0.557287  -0.003463
    30  H    0.000715   0.001463  -0.000663   0.006376  -0.003463   0.547069
    31  H    0.000132   0.002202   0.000167  -0.003600   0.007750  -0.031413
    32  H   -0.000103  -0.000262  -0.000284  -0.005563  -0.003672  -0.023991
              31         32
     1  O   -0.000000   0.000000
     2  C   -0.000000   0.000000
     3  C    0.000003   0.000000
     4  C   -0.000032  -0.000001
     5  C    0.000030   0.000008
     6  C   -0.000021  -0.000007
     7  C   -0.000095   0.000051
     8  C   -0.005794  -0.000785
     9  C    0.007505   0.011100
    10  C   -0.049479  -0.041491
    11  C    0.406576   0.414770
    12  O   -0.000000   0.000000
    13  H   -0.000000  -0.000000
    14  H   -0.000000   0.000000
    15  H    0.000000  -0.000000
    16  H    0.000057   0.000000
    17  H    0.000001  -0.000000
    18  H    0.000000  -0.000000
    19  H   -0.000006  -0.000004
    20  H   -0.000001   0.000000
    21  H   -0.000000  -0.000000
    22  H   -0.000035  -0.000005
    23  H    0.000015   0.000003
    24  H    0.000752   0.000478
    25  H    0.000132  -0.000103
    26  H    0.002202  -0.000262
    27  H    0.000167  -0.000284
    28  H   -0.003600  -0.005563
    29  H    0.007750  -0.003672
    30  H   -0.031413  -0.023991
    31  H    0.550947  -0.022803
    32  H   -0.022803   0.528079
 Mulliken charges:
               1
     1  O   -0.408854
     2  C    0.316431
     3  C   -0.288095
     4  C   -0.303712
     5  C   -0.327771
     6  C   -0.282061
     7  C   -0.311621
     8  C   -0.325329
     9  C   -0.265986
    10  C   -0.236961
    11  C   -0.447393
    12  O   -0.327148
    13  H    0.336316
    14  H    0.166328
    15  H    0.165260
    16  H    0.153457
    17  H    0.170813
    18  H    0.162542
    19  H    0.166508
    20  H    0.152613
    21  H    0.153059
    22  H    0.159725
    23  H    0.149864
    24  H    0.147387
    25  H    0.148235
    26  H    0.144719
    27  H    0.138512
    28  H    0.136003
    29  H    0.134739
    30  H    0.140799
    31  H    0.137141
    32  H    0.144482
 Sum of Mulliken charges =  -0.00000
 Mulliken charges with hydrogens summed into heavy atoms:
               1
     1  O   -0.072538
     2  C    0.316431
     3  C    0.043492
     4  C    0.020558
     5  C    0.001279
     6  C    0.023611
     7  C   -0.002032
     8  C   -0.029707
     9  C    0.017244
    10  C    0.033781
    11  C   -0.024972
    12  O   -0.327148
 Electronic spatial extent (au):  <R**2>=           4091.0685
 Charge=             -0.0000 electrons
 Dipole moment (field-independent basis, Debye):
    X=             -1.0155    Y=             -1.1484    Z=             -1.2846  Tot=              2.0001
 Quadrupole moment (field-independent basis, Debye-Ang):
   XX=            -78.1627   YY=            -79.3674   ZZ=            -79.6466
   XY=             -6.3675   XZ=             -4.8999   YZ=             -4.3372
 Traceless Quadrupole moment (field-independent basis, Debye-Ang):
   XX=              0.8962   YY=             -0.3085   ZZ=             -0.5877
   XY=             -6.3675   XZ=             -4.8999   YZ=             -4.3372
 Octapole moment (field-independent basis, Debye-Ang**2):
  XXX=             51.0997  YYY=             -2.3133  ZZZ=             -2.2472  XYY=              3.8130
  XXY=            -33.3543  XXZ=            -15.4114  XZZ=              0.6131  YZZ=             -0.6384
  YYZ=             -3.2616  XYZ=            -15.0101
 Hexadecapole moment (field-independent basis, Debye-Ang**3):
 XXXX=          -4086.8024 YYYY=           -817.0981 ZZZZ=           -283.3049 XXXY=           -170.0149
 XXXZ=            -52.5951 YYYX=              2.4470 YYYZ=              0.0921 ZZZX=             -8.4221
 ZZZY=             -5.8593 XXYY=           -889.4460 XXZZ=           -819.0106 YYZZ=           -185.3730
 XXYZ=            -62.7444 YYXZ=            -20.1098 ZZXY=             -5.5835
 N-N= 7.128788933118D+02 E-N=-2.690542915832D+03  KE= 5.405753533809D+02
 Unable to Open any file for archive entry.
 1\1\GINC-NOTCH076\SP\RM062X\def2TZVP\C10H20O2\U6032257\05-Feb-2022\0\\
 # M062X/def2tzvp int=(grid=ultrafine) nmr=giao guess=read geom=check\\
 Ac1.xyz\\0,1\O,0,5.2906439603,-0.7915645065,0.7947353855\C,0,5.2725040
 957,-0.22635973,-0.4410989949\C,0,5.2747887436,-1.2696488953,-1.534388
 9992\C,0,4.1269857292,-2.2848524005,-1.406434646\C,0,2.743136094,-1.63
 16440378,-1.4698539374\C,0,1.5804616789,-2.6187584475,-1.2912839819\C,
 0,1.5224971975,-3.7585772417,-2.3193675544\C,0,1.4266886753,-3.2906284
 251,-3.774526612\C,0,1.2824002002,-4.450824507,-4.764454259\C,0,1.1320
 34983,-4.0186326949,-6.2294886209\C,0,2.3580304834,-3.297013077,-6.797
 0219291\O,0,5.2578080168,0.9738257525,-0.600290352\H,0,5.2837919479,-0
 .0509645946,1.4240902155\H,0,6.2373267631,-1.7932682421,-1.4927482382\
 H,0,5.2232186947,-0.7331002858,-2.4847010986\H,0,4.2339778261,-3.01887
 42923,-2.2124204073\H,0,4.2342756418,-2.832656733,-0.463603638\H,0,2.6
 705508963,-0.8657943031,-0.6874345627\H,0,2.6399067088,-1.0967319088,-
 2.4222884738\H,0,1.6362738396,-3.0529922836,-0.2844214851\H,0,0.637841
 7513,-2.0575399834,-1.3302889186\H,0,2.4007534616,-4.4079589452,-2.207
 7106076\H,0,0.6552721999,-4.3912412936,-2.0894387726\H,0,2.3149098794,
 -2.7006512768,-4.0287037545\H,0,0.5691411407,-2.6109643252,-3.88321212
 61\H,0,2.1543624759,-5.1141129783,-4.6714948043\H,0,0.4106164989,-5.05
 40770579,-4.4783303107\H,0,0.9251387685,-4.9064135061,-6.8398839002\H,
 0,0.2499550191,-3.3711794666,-6.3251258693\H,0,2.549133689,-2.35154282
 21,-6.2800758267\H,0,3.2574780164,-3.9158428096,-6.6984294242\H,0,2.22
 60949231,-3.0687146813,-7.8593034956\\Version=ES64L-G16RevC.01\State=1
 -A\HF=-543.5422279\RMSD=2.452e-09\Dipole=-0.1634975,-0.7666557,0.06867
 16\Quadrupole=1.6959872,-6.6958781,4.9998909,-3.1030357,0.4615273,0.47
 74006\PG=C01 [X(C10H20O2)]\\@
 The archive entry for this job was punched.


 THE DIFFERENCE BETWEEN A NOOSE AND A HALO IS ONLY 12 INCHES.
 Job cpu time:       0 days  0 hours 37 minutes 40.6 seconds.
 Elapsed time:       0 days  0 hours  1 minutes 21.3 seconds.
 File lengths (MBytes):  RWF=    140 Int=      0 D2E=      0 Chk=     24 Scr=      1
 Normal termination of Gaussian 16 at Sat Feb  5 09:02:30 2022.
