 Entering Gaussian System, Link 0=/uufs/chpc.utah.edu/sys/installdir/gaussian16/C01/AVX2/g16/g16
 Input=Ac1_clust-34.com
 Output=Ac1_clust-34.log
 Initial command:
 /uufs/chpc.utah.edu/sys/installdir/gaussian16/C01/AVX2/g16/l1.exe "/scratch/general/lustre/u6032257/3857491/notchpeak.peaks/Gau-19297.inp" -scrdir="/scratch/general/lustre/u6032257/3857491/notchpeak.peaks/"
 Entering Link 1 = /uufs/chpc.utah.edu/sys/installdir/gaussian16/C01/AVX2/g16/l1.exe PID=     19299.
  
 Copyright (c) 1988-2019, Gaussian, Inc.  All Rights Reserved.
  
 This is part of the Gaussian(R) 16 program.  It is based on
 the Gaussian(R) 09 system (copyright 2009, Gaussian, Inc.),
 the Gaussian(R) 03 system (copyright 2003, Gaussian, Inc.),
 the Gaussian(R) 98 system (copyright 1998, Gaussian, Inc.),
 the Gaussian(R) 94 system (copyright 1995, Gaussian, Inc.),
 the Gaussian 92(TM) system (copyright 1992, Gaussian, Inc.),
 the Gaussian 90(TM) system (copyright 1990, Gaussian, Inc.),
 the Gaussian 88(TM) system (copyright 1988, Gaussian, Inc.),
 the Gaussian 86(TM) system (copyright 1986, Carnegie Mellon
 University), and the Gaussian 82(TM) system (copyright 1983,
 Carnegie Mellon University). Gaussian is a federally registered
 trademark of Gaussian, Inc.
  
 This software contains proprietary and confidential information,
 including trade secrets, belonging to Gaussian, Inc.
  
 This software is provided under written license and may be
 used, copied, transmitted, or stored only in accord with that
 written license.
  
 The following legend is applicable only to US Government
 contracts under FAR:
  
                    RESTRICTED RIGHTS LEGEND
  
 Use, reproduction and disclosure by the US Government is
 subject to restrictions as set forth in subparagraphs (a)
 and (c) of the Commercial Computer Software - Restricted
 Rights clause in FAR 52.227-19.
  
 Gaussian, Inc.
 340 Quinnipiac St., Bldg. 40, Wallingford CT 06492
  
  
 ---------------------------------------------------------------
 Warning -- This program may not be used in any manner that
 competes with the business of Gaussian, Inc. or will provide
 assistance to any competitor of Gaussian, Inc.  The licensee
 of this program is prohibited from giving any competitor of
 Gaussian, Inc. access to this program.  By using this program,
 the user acknowledges that Gaussian, Inc. is engaged in the
 business of creating and licensing software in the field of
 computational chemistry and represents and warrants to the
 licensee that it is not a competitor of Gaussian, Inc. and that
 it will not use this program in any manner prohibited above.
 ---------------------------------------------------------------
  

 Cite this work as:
 Gaussian 16, Revision C.01,
 M. J. Frisch, G. W. Trucks, H. B. Schlegel, G. E. Scuseria, 
 M. A. Robb, J. R. Cheeseman, G. Scalmani, V. Barone, 
 G. A. Petersson, H. Nakatsuji, X. Li, M. Caricato, A. V. Marenich, 
 J. Bloino, B. G. Janesko, R. Gomperts, B. Mennucci, H. P. Hratchian, 
 J. V. Ortiz, A. F. Izmaylov, J. L. Sonnenberg, D. Williams-Young, 
 F. Ding, F. Lipparini, F. Egidi, J. Goings, B. Peng, A. Petrone, 
 T. Henderson, D. Ranasinghe, V. G. Zakrzewski, J. Gao, N. Rega, 
 G. Zheng, W. Liang, M. Hada, M. Ehara, K. Toyota, R. Fukuda, 
 J. Hasegawa, M. Ishida, T. Nakajima, Y. Honda, O. Kitao, H. Nakai, 
 T. Vreven, K. Throssell, J. A. Montgomery, Jr., J. E. Peralta, 
 F. Ogliaro, M. J. Bearpark, J. J. Heyd, E. N. Brothers, K. N. Kudin, 
 V. N. Staroverov, T. A. Keith, R. Kobayashi, J. Normand, 
 K. Raghavachari, A. P. Rendell, J. C. Burant, S. S. Iyengar, 
 J. Tomasi, M. Cossi, J. M. Millam, M. Klene, C. Adamo, R. Cammi, 
 J. W. Ochterski, R. L. Martin, K. Morokuma, O. Farkas, 
 J. B. Foresman, and D. J. Fox, Gaussian, Inc., Wallingford CT, 2019.
 
 ******************************************
 Gaussian 16:  ES64L-G16RevC.01  3-Jul-2019
                 3-Feb-2022 
 ******************************************
 %NProcShared=32
 Will use up to   32 processors via shared memory.
 %mem=16GB
 %chk=Ac1_clust-34.chk
 ----------------------------------------------------------------------
 # B3LYP/6-31G(d,p) empiricaldispersion=GD3BJ int=(grid=ultrafine) opt 
 freq=noraman
 ----------------------------------------------------------------------
 1/18=20,19=15,26=4,38=1/1,3;
 2/9=110,12=2,17=6,18=5,40=1/2;
 3/5=1,6=6,7=101,11=2,25=1,30=1,71=1,74=-5,75=-5,124=41/1,2,3;
 4//1;
 5/5=2,38=5/2;
 6/7=2,8=2,9=2,10=2,28=1/1;
 7//1,2,3,16;
 1/18=20,19=15,26=4/3(2);
 2/9=110/2;
 99//99;
 2/9=110/2;
 3/5=1,6=6,7=101,11=2,25=1,30=1,71=1,74=-5,75=-5,124=41/1,2,3;
 4/5=5,16=3,69=1/1;
 5/5=2,38=5/2;
 7//1,2,3,16;
 1/18=20,19=15,26=4/3(-5);
 2/9=110/2;
 6/7=2,8=2,9=2,10=2,19=2,28=1/1;
 99/9=1/99;
 -------
 Ac1.xyz
 -------
 Symbolic Z-matrix:
 Charge =  0 Multiplicity = 1
 O                     6.5973    0.0528   -0.1866 
 C                     5.3292   -0.297     0.1157 
 C                     4.7177   -1.1936   -0.9593 
 C                     3.2618   -1.6299   -0.6721 
 C                     2.6902   -2.5307   -1.781 
 C                     1.2361   -2.9584   -1.5107 
 C                     0.6672   -4.0019   -2.4961 
 C                     0.5649   -3.5415   -3.9673 
 C                     1.7825   -3.9188   -4.8345 
 C                     1.6499   -3.4314   -6.2874 
 C                     2.8585   -3.8138   -7.1532 
 O                     4.7583    0.0709    1.1331 
 H                     6.8692    0.6044    0.5477 
 H                     5.3585   -2.0698   -1.0543 
 H                     4.7655   -0.6489   -1.902 
 H                     3.216    -2.1589    0.2829 
 H                     2.6262   -0.748    -0.5606 
 H                     2.7392   -1.9958   -2.7302 
 H                     3.3171   -3.4175   -1.8901 
 H                     1.1707   -3.3729   -0.503 
 H                     0.5935   -2.0761   -1.5064 
 H                     1.236    -4.931    -2.4276 
 H                    -0.3356   -4.2614   -2.1518 
 H                     0.3874   -2.4653   -4.0099 
 H                    -0.3212   -3.9981   -4.4123 
 H                     2.697    -3.5129   -4.4034 
 H                     1.9063   -5.0032   -4.8276 
 H                     0.7436   -3.845    -6.7333 
 H                     1.5272   -2.3469   -6.3011 
 H                     2.9891   -4.8958   -7.1972 
 H                     2.7357   -3.4552   -8.1757 
 H                     3.7802   -3.3819   -6.7613 
 

 GradGradGradGradGradGradGradGradGradGradGradGradGradGradGradGradGradGrad
 Berny optimization.
 Initialization pass.
                           ----------------------------
                           !    Initial Parameters    !
                           ! (Angstroms and Degrees)  !
 --------------------------                            --------------------------
 ! Name  Definition              Value          Derivative Info.                !
 --------------------------------------------------------------------------------
 ! R1    R(1,2)                  1.3497         estimate D2E/DX2                !
 ! R2    R(1,13)                 0.9578         estimate D2E/DX2                !
 ! R3    R(2,3)                  1.5276         estimate D2E/DX2                !
 ! R4    R(2,12)                 1.2233         estimate D2E/DX2                !
 ! R5    R(3,4)                  1.5468         estimate D2E/DX2                !
 ! R6    R(3,14)                 1.0897         estimate D2E/DX2                !
 ! R7    R(3,15)                 1.0898         estimate D2E/DX2                !
 ! R8    R(4,5)                  1.5388         estimate D2E/DX2                !
 ! R9    R(4,16)                 1.0927         estimate D2E/DX2                !
 ! R10   R(4,17)                 1.0928         estimate D2E/DX2                !
 ! R11   R(5,6)                  1.5396         estimate D2E/DX2                !
 ! R12   R(5,18)                 1.0906         estimate D2E/DX2                !
 ! R13   R(5,19)                 1.0915         estimate D2E/DX2                !
 ! R14   R(6,7)                  1.5439         estimate D2E/DX2                !
 ! R15   R(6,20)                 1.0916         estimate D2E/DX2                !
 ! R16   R(6,21)                 1.0915         estimate D2E/DX2                !
 ! R17   R(7,8)                  1.5449         estimate D2E/DX2                !
 ! R18   R(7,22)                 1.0915         estimate D2E/DX2                !
 ! R19   R(7,23)                 1.0916         estimate D2E/DX2                !
 ! R20   R(8,9)                  1.5417         estimate D2E/DX2                !
 ! R21   R(8,24)                 1.0916         estimate D2E/DX2                !
 ! R22   R(8,25)                 1.0916         estimate D2E/DX2                !
 ! R23   R(9,10)                 1.5382         estimate D2E/DX2                !
 ! R24   R(9,26)                 1.0895         estimate D2E/DX2                !
 ! R25   R(9,27)                 1.0915         estimate D2E/DX2                !
 ! R26   R(10,11)                1.5351         estimate D2E/DX2                !
 ! R27   R(10,28)                1.0915         estimate D2E/DX2                !
 ! R28   R(10,29)                1.0915         estimate D2E/DX2                !
 ! R29   R(11,30)                1.0907         estimate D2E/DX2                !
 ! R30   R(11,31)                1.0905         estimate D2E/DX2                !
 ! R31   R(11,32)                1.0907         estimate D2E/DX2                !
 ! A1    A(2,1,13)             104.1376         estimate D2E/DX2                !
 ! A2    A(1,2,3)              111.7523         estimate D2E/DX2                !
 ! A3    A(1,2,12)             123.1479         estimate D2E/DX2                !
 ! A4    A(3,2,12)             125.0998         estimate D2E/DX2                !
 ! A5    A(2,3,4)              114.3109         estimate D2E/DX2                !
 ! A6    A(2,3,14)             107.3319         estimate D2E/DX2                !
 ! A7    A(2,3,15)             107.3268         estimate D2E/DX2                !
 ! A8    A(4,3,14)             110.0534         estimate D2E/DX2                !
 ! A9    A(4,3,15)             110.0527         estimate D2E/DX2                !
 ! A10   A(14,3,15)            107.4992         estimate D2E/DX2                !
 ! A11   A(3,4,5)              112.3932         estimate D2E/DX2                !
 ! A12   A(3,4,16)             109.7729         estimate D2E/DX2                !
 ! A13   A(3,4,17)             109.8022         estimate D2E/DX2                !
 ! A14   A(5,4,16)             109.3206         estimate D2E/DX2                !
 ! A15   A(5,4,17)             109.263          estimate D2E/DX2                !
 ! A16   A(16,4,17)            106.09           estimate D2E/DX2                !
 ! A17   A(4,5,6)              112.7641         estimate D2E/DX2                !
 ! A18   A(4,5,18)             108.8678         estimate D2E/DX2                !
 ! A19   A(4,5,19)             109.5302         estimate D2E/DX2                !
 ! A20   A(6,5,18)             109.3582         estimate D2E/DX2                !
 ! A21   A(6,5,19)             109.5302         estimate D2E/DX2                !
 ! A22   A(18,5,19)            106.5994         estimate D2E/DX2                !
 ! A23   A(5,6,7)              115.0702         estimate D2E/DX2                !
 ! A24   A(5,6,20)             108.9138         estimate D2E/DX2                !
 ! A25   A(5,6,21)             109.4003         estimate D2E/DX2                !
 ! A26   A(7,6,20)             108.0885         estimate D2E/DX2                !
 ! A27   A(7,6,21)             109.3854         estimate D2E/DX2                !
 ! A28   A(20,6,21)            105.5472         estimate D2E/DX2                !
 ! A29   A(6,7,8)              115.5169         estimate D2E/DX2                !
 ! A30   A(6,7,22)             110.0743         estimate D2E/DX2                !
 ! A31   A(6,7,23)             107.3308         estimate D2E/DX2                !
 ! A32   A(8,7,22)             110.3602         estimate D2E/DX2                !
 ! A33   A(8,7,23)             108.0821         estimate D2E/DX2                !
 ! A34   A(22,7,23)            104.8672         estimate D2E/DX2                !
 ! A35   A(7,8,9)              114.2306         estimate D2E/DX2                !
 ! A36   A(7,8,24)             109.9828         estimate D2E/DX2                !
 ! A37   A(7,8,25)             108.4989         estimate D2E/DX2                !
 ! A38   A(9,8,24)             110.3497         estimate D2E/DX2                !
 ! A39   A(9,8,25)             108.0234         estimate D2E/DX2                !
 ! A40   A(24,8,25)            105.3359         estimate D2E/DX2                !
 ! A41   A(8,9,10)             112.6851         estimate D2E/DX2                !
 ! A42   A(8,9,26)             110.4371         estimate D2E/DX2                !
 ! A43   A(8,9,27)             109.218          estimate D2E/DX2                !
 ! A44   A(10,9,26)            109.1514         estimate D2E/DX2                !
 ! A45   A(10,9,27)            109.3029         estimate D2E/DX2                !
 ! A46   A(26,9,27)            105.81           estimate D2E/DX2                !
 ! A47   A(9,10,11)            112.701          estimate D2E/DX2                !
 ! A48   A(9,10,28)            109.7179         estimate D2E/DX2                !
 ! A49   A(9,10,29)            109.6563         estimate D2E/DX2                !
 ! A50   A(11,10,28)           109.2043         estimate D2E/DX2                !
 ! A51   A(11,10,29)           109.2038         estimate D2E/DX2                !
 ! A52   A(28,10,29)           106.1433         estimate D2E/DX2                !
 ! A53   A(10,11,30)           111.3538         estimate D2E/DX2                !
 ! A54   A(10,11,31)           110.9933         estimate D2E/DX2                !
 ! A55   A(10,11,32)           111.3473         estimate D2E/DX2                !
 ! A56   A(30,11,31)           107.5697         estimate D2E/DX2                !
 ! A57   A(30,11,32)           107.8255         estimate D2E/DX2                !
 ! A58   A(31,11,32)           107.5686         estimate D2E/DX2                !
 ! D1    D(13,1,2,3)           179.9949         estimate D2E/DX2                !
 ! D2    D(13,1,2,12)           -0.0106         estimate D2E/DX2                !
 ! D3    D(1,2,3,4)           -179.9671         estimate D2E/DX2                !
 ! D4    D(1,2,3,14)            57.6797         estimate D2E/DX2                !
 ! D5    D(1,2,3,15)           -57.6185         estimate D2E/DX2                !
 ! D6    D(12,2,3,4)             0.0386         estimate D2E/DX2                !
 ! D7    D(12,2,3,14)         -122.3147         estimate D2E/DX2                !
 ! D8    D(12,2,3,15)          122.3871         estimate D2E/DX2                !
 ! D9    D(2,3,4,5)           -179.9796         estimate D2E/DX2                !
 ! D10   D(2,3,4,16)           -58.0836         estimate D2E/DX2                !
 ! D11   D(2,3,4,17)            58.1773         estimate D2E/DX2                !
 ! D12   D(14,3,4,5)           -59.123          estimate D2E/DX2                !
 ! D13   D(14,3,4,16)           62.773          estimate D2E/DX2                !
 ! D14   D(14,3,4,17)          179.0339         estimate D2E/DX2                !
 ! D15   D(15,3,4,5)            59.1711         estimate D2E/DX2                !
 ! D16   D(15,3,4,16)         -178.933          estimate D2E/DX2                !
 ! D17   D(15,3,4,17)          -62.6721         estimate D2E/DX2                !
 ! D18   D(3,4,5,6)           -179.4148         estimate D2E/DX2                !
 ! D19   D(3,4,5,18)           -57.8615         estimate D2E/DX2                !
 ! D20   D(3,4,5,19)            58.3414         estimate D2E/DX2                !
 ! D21   D(16,4,5,6)            58.4325         estimate D2E/DX2                !
 ! D22   D(16,4,5,18)          179.9858         estimate D2E/DX2                !
 ! D23   D(16,4,5,19)          -63.8113         estimate D2E/DX2                !
 ! D24   D(17,4,5,6)           -57.2656         estimate D2E/DX2                !
 ! D25   D(17,4,5,18)           64.2878         estimate D2E/DX2                !
 ! D26   D(17,4,5,19)         -179.5093         estimate D2E/DX2                !
 ! D27   D(4,5,6,7)           -172.7477         estimate D2E/DX2                !
 ! D28   D(4,5,6,20)           -51.2386         estimate D2E/DX2                !
 ! D29   D(4,5,6,21)            63.6625         estimate D2E/DX2                !
 ! D30   D(18,5,6,7)            65.9773         estimate D2E/DX2                !
 ! D31   D(18,5,6,20)         -172.5136         estimate D2E/DX2                !
 ! D32   D(18,5,6,21)          -57.6126         estimate D2E/DX2                !
 ! D33   D(19,5,6,7)           -50.5039         estimate D2E/DX2                !
 ! D34   D(19,5,6,20)           71.0051         estimate D2E/DX2                !
 ! D35   D(19,5,6,21)         -174.0938         estimate D2E/DX2                !
 ! D36   D(5,6,7,8)            -63.0901         estimate D2E/DX2                !
 ! D37   D(5,6,7,22)            62.7058         estimate D2E/DX2                !
 ! D38   D(5,6,7,23)           176.2968         estimate D2E/DX2                !
 ! D39   D(20,6,7,8)           174.9542         estimate D2E/DX2                !
 ! D40   D(20,6,7,22)          -59.2498         estimate D2E/DX2                !
 ! D41   D(20,6,7,23)           54.3411         estimate D2E/DX2                !
 ! D42   D(21,6,7,8)            60.5076         estimate D2E/DX2                !
 ! D43   D(21,6,7,22)         -173.6964         estimate D2E/DX2                !
 ! D44   D(21,6,7,23)          -60.1055         estimate D2E/DX2                !
 ! D45   D(6,7,8,9)             93.9443         estimate D2E/DX2                !
 ! D46   D(6,7,8,24)           -30.7662         estimate D2E/DX2                !
 ! D47   D(6,7,8,25)          -145.5008         estimate D2E/DX2                !
 ! D48   D(22,7,8,9)           -31.7052         estimate D2E/DX2                !
 ! D49   D(22,7,8,24)         -156.4158         estimate D2E/DX2                !
 ! D50   D(22,7,8,25)           88.8496         estimate D2E/DX2                !
 ! D51   D(23,7,8,9)          -145.8513         estimate D2E/DX2                !
 ! D52   D(23,7,8,24)           89.4382         estimate D2E/DX2                !
 ! D53   D(23,7,8,25)          -25.2964         estimate D2E/DX2                !
 ! D54   D(7,8,9,10)          -179.4164         estimate D2E/DX2                !
 ! D55   D(7,8,9,26)           -57.0575         estimate D2E/DX2                !
 ! D56   D(7,8,9,27)            58.9063         estimate D2E/DX2                !
 ! D57   D(24,8,9,10)          -54.9011         estimate D2E/DX2                !
 ! D58   D(24,8,9,26)           67.4578         estimate D2E/DX2                !
 ! D59   D(24,8,9,27)         -176.5784         estimate D2E/DX2                !
 ! D60   D(25,8,9,10)           59.7643         estimate D2E/DX2                !
 ! D61   D(25,8,9,26)         -177.8768         estimate D2E/DX2                !
 ! D62   D(25,8,9,27)          -61.9129         estimate D2E/DX2                !
 ! D63   D(8,9,10,11)         -179.6748         estimate D2E/DX2                !
 ! D64   D(8,9,10,28)          -57.7572         estimate D2E/DX2                !
 ! D65   D(8,9,10,29)           58.4522         estimate D2E/DX2                !
 ! D66   D(26,9,10,11)          57.246          estimate D2E/DX2                !
 ! D67   D(26,9,10,28)         179.1636         estimate D2E/DX2                !
 ! D68   D(26,9,10,29)         -64.6269         estimate D2E/DX2                !
 ! D69   D(27,9,10,11)         -58.0457         estimate D2E/DX2                !
 ! D70   D(27,9,10,28)          63.872          estimate D2E/DX2                !
 ! D71   D(27,9,10,29)        -179.9186         estimate D2E/DX2                !
 ! D72   D(9,10,11,30)          60.1947         estimate D2E/DX2                !
 ! D73   D(9,10,11,31)        -179.9913         estimate D2E/DX2                !
 ! D74   D(9,10,11,32)         -60.183          estimate D2E/DX2                !
 ! D75   D(28,10,11,30)        -62.0127         estimate D2E/DX2                !
 ! D76   D(28,10,11,31)         57.8013         estimate D2E/DX2                !
 ! D77   D(28,10,11,32)        177.6096         estimate D2E/DX2                !
 ! D78   D(29,10,11,30)       -177.6769         estimate D2E/DX2                !
 ! D79   D(29,10,11,31)        -57.863          estimate D2E/DX2                !
 ! D80   D(29,10,11,32)         61.9453         estimate D2E/DX2                !
 --------------------------------------------------------------------------------
 Trust Radius=3.00D-01 FncErr=1.00D-07 GrdErr=1.00D-06 EigMax=2.50D+02 EigMin=1.00D-04
 Number of steps in this run=    179 maximum allowed number of steps=    192.
 GradGradGradGradGradGradGradGradGradGradGradGradGradGradGradGradGradGrad

                          Input orientation:                          
 ---------------------------------------------------------------------
 Center     Atomic      Atomic             Coordinates (Angstroms)
 Number     Number       Type             X           Y           Z
 ---------------------------------------------------------------------
      1          8           0        6.597300    0.052800   -0.186600
      2          6           0        5.329200   -0.297000    0.115700
      3          6           0        4.717700   -1.193600   -0.959300
      4          6           0        3.261800   -1.629900   -0.672100
      5          6           0        2.690200   -2.530700   -1.781000
      6          6           0        1.236100   -2.958400   -1.510700
      7          6           0        0.667200   -4.001900   -2.496100
      8          6           0        0.564900   -3.541500   -3.967300
      9          6           0        1.782500   -3.918800   -4.834500
     10          6           0        1.649900   -3.431400   -6.287400
     11          6           0        2.858500   -3.813800   -7.153200
     12          8           0        4.758300    0.070900    1.133100
     13          1           0        6.869200    0.604400    0.547700
     14          1           0        5.358500   -2.069800   -1.054300
     15          1           0        4.765500   -0.648900   -1.902000
     16          1           0        3.216000   -2.158900    0.282900
     17          1           0        2.626200   -0.748000   -0.560600
     18          1           0        2.739200   -1.995800   -2.730200
     19          1           0        3.317100   -3.417500   -1.890100
     20          1           0        1.170700   -3.372900   -0.503000
     21          1           0        0.593500   -2.076100   -1.506400
     22          1           0        1.236000   -4.931000   -2.427600
     23          1           0       -0.335600   -4.261400   -2.151800
     24          1           0        0.387400   -2.465300   -4.009900
     25          1           0       -0.321200   -3.998100   -4.412300
     26          1           0        2.697000   -3.512900   -4.403400
     27          1           0        1.906300   -5.003200   -4.827600
     28          1           0        0.743600   -3.845000   -6.733300
     29          1           0        1.527200   -2.346900   -6.301100
     30          1           0        2.989100   -4.895800   -7.197200
     31          1           0        2.735700   -3.455200   -8.175700
     32          1           0        3.780200   -3.381900   -6.761300
 ---------------------------------------------------------------------
                    Distance matrix (angstroms):
                    1          2          3          4          5
     1  O    0.000000
     2  C    1.349749   0.000000
     3  C    2.384004   1.527563   0.000000
     4  C    3.767327   2.582904   1.546766   0.000000
     5  C    4.947930   3.943502   2.563939   1.538774   0.000000
     6  C    6.289915   5.146037   3.942093   2.563518   1.539609
     7  C    7.545891   6.502463   5.162834   3.960468   2.601601
     8  C    7.975120   7.063726   5.639720   4.667529   3.212246
     9  C    7.781959   7.085266   5.573086   4.975235   3.474853
    10  C    8.592798   8.022556   6.542767   6.113527   4.711807
    11  C    8.801292   8.444474   6.977569   6.851038   5.525867
    12  O    2.263594   1.223266   2.445148   2.896719   4.420106
    13  H    0.957804   1.835959   3.183207   4.415127   5.719767
    14  H    2.606331   2.124283   1.089668   2.176175   2.803631
    15  H    2.605853   2.124313   1.089801   2.176265   2.804047
    16  H    4.067584   2.821390   2.174849   1.092686   2.162032
    17  H    4.068266   2.822586   2.175292   1.092780   2.161363
    18  H    5.054859   4.206325   2.773819   2.154709   1.090642
    19  H    5.069971   4.220107   2.788154   2.163815   1.091476
    20  H    6.425225   5.209326   4.187931   2.727516   2.156726
    21  H    6.505359   5.312557   4.252899   2.831073   2.162919
    22  H    7.655317   6.685553   5.314725   4.252400   2.879970
    23  H    8.398776   7.276536   6.030696   4.696338   3.505464
    24  H    7.715005   6.792900   5.447465   4.483411   3.205489
    25  H    9.062669   8.131909   6.721528   5.695205   4.259757
    26  H    6.760766   6.139443   4.617814   4.217498   2.800312
    27  H    8.313092   7.635495   6.113981   5.521296   4.001191
    28  H    9.608222   8.973563   7.494162   6.927203   5.481050
    29  H    8.297685   7.735155   6.328050   5.933681   4.670937
    30  H    9.308935   8.950058   7.456926   7.301876   5.917623
    31  H    9.541684   9.243797   7.817902   7.740317   6.461343
    32  H    7.934727   7.694747   6.271425   6.357405   5.168755
                    6          7          8          9         10
     6  C    0.000000
     7  C    1.543876   0.000000
     8  C    2.612546   1.544948   0.000000
     9  C    3.502652   2.592087   1.541733   0.000000
    10  C    4.817865   3.957919   2.563632   1.538200   0.000000
    11  C    5.933102   5.150316   3.935061   2.558353   1.535107
    12  O    5.345300   6.818790   7.526494   7.770801   8.774513
    13  H    6.975842   8.303464   8.793060   8.677669   9.499861
    14  H    4.241709   5.274476   5.799144   5.522363   6.556905
    15  H    4.235985   5.328379   5.502512   5.309434   6.056484
    16  H    2.788585   4.197127   5.196548   5.598210   6.873192
    17  H    2.778657   4.262828   4.863970   5.388137   6.399221
    18  H    2.161733   2.893514   2.940610   3.006873   3.987630
    19  H    2.164550   2.780419   3.450325   3.357944   4.702765
    20  H    1.091580   2.149791   3.520908   4.408424   5.804510
    21  H    1.091516   2.166482   2.864305   3.985664   5.080431
    22  H    2.175283   1.091537   2.179854   2.667654   4.161510
    23  H    2.139874   1.091554   2.150627   3.435200   4.662006
    24  H    2.685040   2.175090   1.091571   2.176909   2.777456
    25  H    3.453323   2.156101   1.091642   2.147113   2.778918
    26  H    3.287767   2.827897   2.176431   1.089455   2.156969
    27  H    3.953758   2.823803   2.162415   1.091466   2.160396
    28  H    5.320166   4.240792   2.788333   2.165687   1.091454
    29  H    4.838037   4.237529   2.792797   2.164940   1.091505
    30  H    6.258020   5.318893   4.259475   2.827148   2.183039
    31  H    6.849660   6.069220   4.736080   3.505301   2.178349
    32  H    5.849837   5.316681   4.262636   2.826946   2.182936
                   11         12         13         14         15
    11  C    0.000000
    12  O    9.346812   0.000000
    13  H    9.742180   2.254598   0.000000
    14  H    6.818220   3.118903   3.464096   0.000000
    15  H    6.420930   3.119294   3.463718   1.757612   0.000000
    16  H    7.626407   2.841397   4.588226   2.527123   3.074872
    17  H    7.274302   2.843425   4.589157   3.075119   2.527010
    18  H    4.783543   4.824220   5.878994   3.110442   2.570204
    19  H    5.297885   4.835879   5.893722   2.584990   3.124604
    20  H    6.875189   5.235213   7.028214   4.420370   4.722284
    21  H    6.327415   5.377930   7.126627   4.786404   4.427074
    22  H    5.119760   7.078431   8.439550   5.202636   5.574048
    23  H    5.951187   7.450316   9.103431   6.199225   6.255700
    24  H    4.219612   7.210238   8.497559   5.796881   5.187515
    25  H    4.202022   8.550412   9.873523   6.874118   6.587356
    26  H    2.770925   6.909806   7.672861   4.514708   4.328763
    27  H    2.780247   8.331287   9.217885   5.895788   5.974453
    28  H    2.156407   9.660866  10.503956   7.529919   7.052106
    29  H    2.156439   8.458906   9.173505   6.502657   5.720303
    30  H    1.090741   9.858604  10.261133   7.164883   7.016473
    31  H    1.090495  10.157660  10.472052   7.714451   7.166221
    32  H    1.090713   8.671797   8.879977   6.064857   5.661528
                   16         17         18         19         20
    16  H    0.000000
    17  H    1.746424   0.000000
    18  H    3.054949   2.505382   0.000000
    19  H    2.513210   3.061232   1.749562   0.000000
    20  H    2.504933   3.001982   3.052379   2.555987   0.000000
    21  H    3.175840   2.605812   2.471470   3.060160   1.738293
    22  H    4.353361   4.787049   3.311582   2.628795   2.477100
    23  H    4.791882   4.862937   3.862886   3.758041   2.403521
    24  H    5.150048   4.456346   2.718276   3.739436   3.706163
    25  H    6.159492   5.838314   4.025508   4.464954   4.230753
    26  H    4.905516   4.734638   2.258976   2.590425   4.190741
    27  H    5.993544   6.068960   3.759955   3.624046   4.679867
    28  H    7.627762   7.158060   4.840121   5.501113   6.262741
    29  H    6.799739   6.059507   3.787287   4.879226   5.898960
    30  H    7.968312   7.834564   5.331654   5.518901   7.101980
    31  H    8.570822   8.082739   5.637671   6.312544   7.831113
    32  H    7.171806   6.835044   4.388020   4.893293   6.780552
                   21         22         23         24         25
    21  H    0.000000
    22  H    3.067877   0.000000
    23  H    2.460753   1.730421   0.000000
    24  H    2.541941   3.050159   2.683513   0.000000
    25  H    3.602085   2.689648   2.275828   1.735948   0.000000
    26  H    3.857683   2.837131   3.850535   2.566429   3.056964
    27  H    4.617546   2.492893   3.568794   3.068652   2.478801
    28  H    5.520147   4.467763   4.725273   3.073655   2.558179
    29  H    4.892267   4.665445   4.934777   2.561788   3.116185
    30  H    6.787843   5.081701   6.075537   4.778604   4.418101
    31  H    7.139363   6.121090   6.809568   4.883473   4.878786
    32  H    6.282845   5.258671   6.241860   4.463345   4.766444
                   26         27         28         29         30
    26  H    0.000000
    27  H    1.739582   0.000000
    28  H    3.058512   2.514953   0.000000
    29  H    2.515801   3.061184   1.745030   0.000000
    30  H    3.130983   2.607488   2.522232   3.071976   0.000000
    31  H    3.772940   3.780738   2.490165   2.490567   1.759830
    32  H    2.598110   3.143137   3.071837   2.521709   1.762879
                   31         32
    31  H    0.000000
    32  H    1.759796   0.000000
 Stoichiometry    C10H20O2
 Framework group  C1[X(C10H20O2)]
 Deg. of freedom    90
 Full point group                 C1      NOp   1
 Largest Abelian subgroup         C1      NOp   1
 Largest concise Abelian subgroup C1      NOp   1
                         Standard orientation:                         
 ---------------------------------------------------------------------
 Center     Atomic      Atomic             Coordinates (Angstroms)
 Number     Number       Type             X           Y           Z
 ---------------------------------------------------------------------
      1          8           0       -4.525473    1.790379    0.146739
      2          6           0       -3.972736    0.576552   -0.060448
      3          6           0       -2.464672    0.592337    0.182334
      4          6           0       -1.769649   -0.771547   -0.039591
      5          6           0       -0.253870   -0.705710    0.217126
      6          6           0        0.448900   -2.055708   -0.015287
      7          6           0        1.936968   -2.097579    0.393924
      8          6           0        2.869591   -1.147000   -0.389324
      9          6           0        3.094884    0.219121    0.288832
     10          6           0        4.016264    1.141743   -0.527187
     11          6           0        4.247234    2.499126    0.151575
     12          8           0       -4.620121   -0.403900   -0.401015
     13          1           0       -5.456736    1.657177   -0.033249
     14          1           0       -2.304102    0.931443    1.205369
     15          1           0       -2.036732    1.342369   -0.482485
     16          1           0       -2.214908   -1.524254    0.615497
     17          1           0       -1.947632   -1.115837   -1.061332
     18          1           0        0.182814    0.047078   -0.440230
     19          1           0       -0.071190   -0.370517    1.239670
     20          1           0       -0.078510   -2.830192    0.544677
     21          1           0        0.353852   -2.337889   -1.065404
     22          1           0        2.035259   -1.926644    1.467503
     23          1           0        2.287960   -3.119601    0.239760
     24          1           0        2.494163   -1.009280   -1.405009
     25          1           0        3.841076   -1.631549   -0.503830
     26          1           0        2.143162    0.722094    0.456631
     27          1           0        3.526750    0.061915    1.278819
     28          1           0        4.978531    0.652425   -0.688062
     29          1           0        3.588872    1.304057   -1.518335
     30          1           0        4.712539    2.379455    1.130803
     31          1           0        4.902870    3.129985   -0.449539
     32          1           0        3.309234    3.037928    0.291226
 ---------------------------------------------------------------------
 Rotational constants (GHZ):           1.3216218           0.2718697           0.2315489
 Standard basis: 6-31G(d,p) (6D, 7F)
 There are   280 symmetry adapted cartesian basis functions of A   symmetry.
 There are   280 symmetry adapted basis functions of A   symmetry.
   280 basis functions,   476 primitive gaussians,   280 cartesian basis functions
    48 alpha electrons       48 beta electrons
       nuclear repulsion energy       691.5140587796 Hartrees.
 NAtoms=   32 NActive=   32 NUniq=   32 SFac= 1.00D+00 NAtFMM=   60 NAOKFM=F Big=F
 Integral buffers will be    131072 words long.
 Raffenetti 2 integral format.
 Two-electron integral symmetry is turned on.
 Nuclear repulsion after empirical dispersion term =      691.4676186870 Hartrees.
 One-electron integrals computed using PRISM.
 NBasis=   280 RedAO= T EigKep=  2.49D-03  NBF=   280
 NBsUse=   280 1.00D-06 EigRej= -1.00D+00 NBFU=   280
 ExpMin= 1.61D-01 ExpMax= 5.48D+03 ExpMxC= 8.25D+02 IAcc=3 IRadAn=         5 AccDes= 0.00D+00
 Harris functional with IExCor=  402 and IRadAn=       5 diagonalized for initial guess.
 HarFok:  IExCor=  402 AccDes= 0.00D+00 IRadAn=         5 IDoV= 1 UseB2=F ITyADJ=14
 ICtDFT=  3500011 ScaDFX=  1.000000  1.000000  1.000000  1.000000
 FoFCou: FMM=F IPFlag=           0 FMFlag=      100000 FMFlg1=           0
         NFxFlg=           0 DoJE=T BraDBF=F KetDBF=T FulRan=T
         wScrn=  0.000000 ICntrl=       500 IOpCl=  0 I1Cent=   200000004 NGrid=           0
         NMat0=    1 NMatS0=      1 NMatT0=    0 NMatD0=    1 NMtDS0=    0 NMtDT0=    0
 Petite list used in FoFCou.
 Requested convergence on RMS density matrix=1.00D-08 within 128 cycles.
 Requested convergence on MAX density matrix=1.00D-06.
 Requested convergence on             energy=1.00D-06.
 No special actions if energy rises.
 Integral accuracy reduced to 1.0D-05 until final iterations.
 Initial convergence to 1.0D-05 achieved.  Increase integral accuracy.
 SCF Done:  E(RB3LYP) =  -543.663865315     A.U. after   13 cycles
            NFock= 13  Conv=0.38D-08     -V/T= 2.0096

 **********************************************************************

            Population analysis using the SCF Density.

 **********************************************************************

 Orbital symmetries:
       Occupied  (A) (A) (A) (A) (A) (A) (A) (A) (A) (A) (A) (A)
                 (A) (A) (A) (A) (A) (A) (A) (A) (A) (A) (A) (A)
                 (A) (A) (A) (A) (A) (A) (A) (A) (A) (A) (A) (A)
                 (A) (A) (A) (A) (A) (A) (A) (A) (A) (A) (A) (A)
       Virtual   (A) (A) (A) (A) (A) (A) (A) (A) (A) (A) (A) (A)
                 (A) (A) (A) (A) (A) (A) (A) (A) (A) (A) (A) (A)
                 (A) (A) (A) (A) (A) (A) (A) (A) (A) (A) (A) (A)
                 (A) (A) (A) (A) (A) (A) (A) (A) (A) (A) (A) (A)
                 (A) (A) (A) (A) (A) (A) (A) (A) (A) (A) (A) (A)
                 (A) (A) (A) (A) (A) (A) (A) (A) (A) (A) (A) (A)
                 (A) (A) (A) (A) (A) (A) (A) (A) (A) (A) (A) (A)
                 (A) (A) (A) (A) (A) (A) (A) (A) (A) (A) (A) (A)
                 (A) (A) (A) (A) (A) (A) (A) (A) (A) (A) (A) (A)
                 (A) (A) (A) (A) (A) (A) (A) (A) (A) (A) (A) (A)
                 (A) (A) (A) (A) (A) (A) (A) (A) (A) (A) (A) (A)
                 (A) (A) (A) (A) (A) (A) (A) (A) (A) (A) (A) (A)
                 (A) (A) (A) (A) (A) (A) (A) (A) (A) (A) (A) (A)
                 (A) (A) (A) (A) (A) (A) (A) (A) (A) (A) (A) (A)
                 (A) (A) (A) (A) (A) (A) (A) (A) (A) (A) (A) (A)
                 (A) (A) (A) (A) (A) (A) (A) (A) (A) (A) (A) (A)
                 (A) (A) (A) (A) (A) (A) (A) (A) (A) (A) (A) (A)
                 (A) (A) (A) (A) (A) (A) (A) (A) (A) (A) (A) (A)
                 (A) (A) (A) (A) (A) (A) (A) (A) (A) (A) (A) (A)
                 (A) (A) (A) (A)
 The electronic state is 1-A.
 Alpha  occ. eigenvalues --  -19.19825 -19.13782 -10.32104 -10.20081 -10.18371
 Alpha  occ. eigenvalues --  -10.17962 -10.17727 -10.17615 -10.17585 -10.17490
 Alpha  occ. eigenvalues --  -10.17359 -10.16993  -1.10760  -1.01056  -0.81164
 Alpha  occ. eigenvalues --   -0.79402  -0.76727  -0.72993  -0.68975  -0.64460
 Alpha  occ. eigenvalues --   -0.60909  -0.58017  -0.57332  -0.56495  -0.48700
 Alpha  occ. eigenvalues --   -0.48671  -0.47871  -0.47008  -0.45298  -0.43695
 Alpha  occ. eigenvalues --   -0.42730  -0.41171  -0.40812  -0.39427  -0.38993
 Alpha  occ. eigenvalues --   -0.38764  -0.36732  -0.36174  -0.34956  -0.34024
 Alpha  occ. eigenvalues --   -0.33594  -0.32852  -0.32405  -0.32122  -0.31670
 Alpha  occ. eigenvalues --   -0.30364  -0.29922  -0.27240
 Alpha virt. eigenvalues --    0.01066   0.08198   0.08467   0.09839   0.10239
 Alpha virt. eigenvalues --    0.11636   0.12738   0.13157   0.14021   0.14934
 Alpha virt. eigenvalues --    0.15490   0.16795   0.17216   0.18134   0.18715
 Alpha virt. eigenvalues --    0.19151   0.19523   0.19813   0.20438   0.20612
 Alpha virt. eigenvalues --    0.21318   0.22074   0.22641   0.23222   0.25039
 Alpha virt. eigenvalues --    0.25966   0.26916   0.27979   0.28364   0.30774
 Alpha virt. eigenvalues --    0.33006   0.38104   0.49147   0.50308   0.50877
 Alpha virt. eigenvalues --    0.51802   0.52650   0.53502   0.54096   0.54736
 Alpha virt. eigenvalues --    0.55759   0.57997   0.58834   0.60348   0.62190
 Alpha virt. eigenvalues --    0.63398   0.64200   0.65429   0.66247   0.67000
 Alpha virt. eigenvalues --    0.68572   0.69543   0.71405   0.73416   0.73930
 Alpha virt. eigenvalues --    0.75115   0.77331   0.78692   0.79412   0.80587
 Alpha virt. eigenvalues --    0.82563   0.84182   0.84731   0.86024   0.86811
 Alpha virt. eigenvalues --    0.87506   0.88295   0.88737   0.89866   0.90358
 Alpha virt. eigenvalues --    0.91211   0.91528   0.92442   0.92647   0.93089
 Alpha virt. eigenvalues --    0.93688   0.93960   0.94794   0.95424   0.96540
 Alpha virt. eigenvalues --    0.96864   0.97993   0.99983   1.00356   1.03411
 Alpha virt. eigenvalues --    1.06997   1.08348   1.11269   1.12431   1.16169
 Alpha virt. eigenvalues --    1.21873   1.27256   1.29072   1.34419   1.36131
 Alpha virt. eigenvalues --    1.38308   1.38512   1.39561   1.45169   1.48149
 Alpha virt. eigenvalues --    1.51914   1.52940   1.55268   1.55827   1.57701
 Alpha virt. eigenvalues --    1.59255   1.61181   1.62537   1.67436   1.68185
 Alpha virt. eigenvalues --    1.69387   1.69621   1.70819   1.72828   1.72988
 Alpha virt. eigenvalues --    1.74951   1.77696   1.79812   1.81728   1.84533
 Alpha virt. eigenvalues --    1.84966   1.86177   1.87094   1.87414   1.88065
 Alpha virt. eigenvalues --    1.90825   1.91131   1.91767   1.93911   1.95688
 Alpha virt. eigenvalues --    1.96464   2.04113   2.05554   2.05807   2.07805
 Alpha virt. eigenvalues --    2.07825   2.10201   2.10612   2.11985   2.12874
 Alpha virt. eigenvalues --    2.14294   2.15633   2.16725   2.17842   2.20965
 Alpha virt. eigenvalues --    2.22144   2.24071   2.24266   2.26572   2.27208
 Alpha virt. eigenvalues --    2.28824   2.30579   2.31589   2.32017   2.32341
 Alpha virt. eigenvalues --    2.35305   2.37271   2.38007   2.40253   2.41295
 Alpha virt. eigenvalues --    2.42334   2.44500   2.46265   2.47046   2.48066
 Alpha virt. eigenvalues --    2.51243   2.53688   2.55901   2.58161   2.59868
 Alpha virt. eigenvalues --    2.61126   2.63015   2.65210   2.65714   2.66664
 Alpha virt. eigenvalues --    2.68606   2.70600   2.72045   2.73787   2.75630
 Alpha virt. eigenvalues --    2.76572   2.78622   2.81157   2.82041   2.82994
 Alpha virt. eigenvalues --    2.84789   2.86567   2.87064   2.88703   2.89778
 Alpha virt. eigenvalues --    2.90053   2.90774   2.91953   2.92611   2.93270
 Alpha virt. eigenvalues --    2.93970   2.95530   2.97439   3.01493   3.17401
 Alpha virt. eigenvalues --    3.19628   3.24471   3.27054   3.29572   3.31816
 Alpha virt. eigenvalues --    3.31921   3.33974   3.34458   3.36425   3.39488
 Alpha virt. eigenvalues --    3.41045   3.44069   3.46138   3.46314   3.49033
 Alpha virt. eigenvalues --    3.52609   3.55521   3.58587   3.58901   3.61215
 Alpha virt. eigenvalues --    3.94547   4.13941   4.23465   4.26883   4.33164
 Alpha virt. eigenvalues --    4.41837   4.47268   4.55477   4.60073   4.66686
 Alpha virt. eigenvalues --    4.73760   4.78081
          Condensed to atoms (all electrons):
               1          2          3          4          5          6
     1  O    8.115710   0.257746  -0.095019   0.002496  -0.000022   0.000000
     2  C    0.257746   4.386505   0.312734  -0.029600   0.004032  -0.000098
     3  C   -0.095019   0.312734   5.154572   0.340336  -0.033199   0.003038
     4  C    0.002496  -0.029600   0.340336   4.909910   0.353064  -0.033773
     5  C   -0.000022   0.004032  -0.033199   0.353064   4.924624   0.375391
     6  C    0.000000  -0.000098   0.003038  -0.033773   0.375391   4.893283
     7  C   -0.000000   0.000001  -0.000108   0.003411  -0.040567   0.373192
     8  C    0.000000  -0.000000   0.000002   0.000003  -0.002610  -0.037320
     9  C   -0.000000  -0.000000   0.000002   0.000102  -0.000930  -0.001412
    10  C   -0.000000   0.000000  -0.000000  -0.000001  -0.000061  -0.000015
    11  C   -0.000000   0.000000   0.000000  -0.000000   0.000001   0.000001
    12  O   -0.079958   0.572570  -0.088214   0.006205   0.000399   0.000001
    13  H    0.267652  -0.009428   0.011329  -0.000318   0.000002  -0.000000
    14  H    0.002373  -0.024915   0.368109  -0.035007  -0.002717   0.000017
    15  H    0.002357  -0.024816   0.367871  -0.035153  -0.002685   0.000013
    16  H    0.000056  -0.002551  -0.037311   0.387904  -0.038820  -0.003834
    17  H    0.000056  -0.002496  -0.037523   0.387916  -0.038985  -0.002995
    18  H   -0.000001   0.000012  -0.003893  -0.038495   0.381829  -0.035879
    19  H   -0.000001   0.000011  -0.003953  -0.039116   0.382400  -0.039959
    20  H   -0.000000  -0.000001   0.000123  -0.005284  -0.042520   0.380022
    21  H   -0.000000   0.000000   0.000017  -0.003573  -0.039478   0.381687
    22  H   -0.000000  -0.000000  -0.000001   0.000030  -0.007289  -0.036615
    23  H    0.000000  -0.000000   0.000001  -0.000128   0.004987  -0.032255
    24  H    0.000000  -0.000000   0.000001  -0.000076  -0.000785  -0.007392
    25  H   -0.000000   0.000000  -0.000000   0.000001   0.000041   0.003949
    26  H    0.000000   0.000000  -0.000004   0.000021   0.001250  -0.000103
    27  H    0.000000  -0.000000   0.000000  -0.000005   0.000007  -0.000025
    28  H   -0.000000   0.000000   0.000000   0.000000  -0.000000  -0.000003
    29  H    0.000000  -0.000000  -0.000000  -0.000000   0.000008  -0.000001
    30  H   -0.000000  -0.000000  -0.000000   0.000000   0.000000   0.000000
    31  H    0.000000  -0.000000  -0.000000   0.000000  -0.000000   0.000000
    32  H   -0.000000   0.000000   0.000000   0.000000  -0.000004  -0.000000
               7          8          9         10         11         12
     1  O   -0.000000   0.000000  -0.000000  -0.000000  -0.000000  -0.079958
     2  C    0.000001  -0.000000  -0.000000   0.000000   0.000000   0.572570
     3  C   -0.000108   0.000002   0.000002  -0.000000   0.000000  -0.088214
     4  C    0.003411   0.000003   0.000102  -0.000001  -0.000000   0.006205
     5  C   -0.040567  -0.002610  -0.000930  -0.000061   0.000001   0.000399
     6  C    0.373192  -0.037320  -0.001412  -0.000015   0.000001   0.000001
     7  C    4.927930   0.358862  -0.033763   0.003714  -0.000136   0.000000
     8  C    0.358862   4.909176   0.379383  -0.036242   0.003720   0.000000
     9  C   -0.033763   0.379383   4.894032   0.378521  -0.041355  -0.000000
    10  C    0.003714  -0.036242   0.378521   4.873278   0.366263  -0.000000
    11  C   -0.000136   0.003720  -0.041355   0.366263   4.921816   0.000000
    12  O    0.000000   0.000000  -0.000000  -0.000000   0.000000   8.040437
    13  H    0.000000  -0.000000   0.000000   0.000000  -0.000000   0.011471
    14  H    0.000002   0.000000  -0.000001   0.000000   0.000000   0.001172
    15  H    0.000002  -0.000001  -0.000004   0.000000  -0.000000   0.001182
    16  H   -0.000016   0.000006  -0.000004   0.000000  -0.000000   0.002926
    17  H    0.000057  -0.000009  -0.000001   0.000000   0.000000   0.002890
    18  H   -0.004080   0.004205  -0.002847   0.000143  -0.000012  -0.000002
    19  H   -0.003101  -0.001394  -0.000202   0.000010   0.000000  -0.000001
    20  H   -0.034173   0.004834  -0.000115   0.000002  -0.000000  -0.000001
    21  H   -0.036449  -0.007419  -0.000105   0.000009  -0.000000  -0.000001
    22  H    0.383108  -0.043822  -0.008596   0.000221  -0.000003  -0.000000
    23  H    0.370804  -0.032636   0.004037  -0.000167   0.000002   0.000000
    24  H   -0.043180   0.384354  -0.040337  -0.003559   0.000067  -0.000000
    25  H   -0.032583   0.379339  -0.039124  -0.004759   0.000033   0.000000
    26  H   -0.001386  -0.042671   0.384364  -0.039223  -0.003191   0.000000
    27  H   -0.005168  -0.036890   0.381570  -0.039168  -0.003280   0.000000
    28  H    0.000034  -0.003439  -0.039572   0.386694  -0.038503   0.000000
    29  H    0.000028  -0.003912  -0.039521   0.386536  -0.038666  -0.000000
    30  H    0.000001   0.000058  -0.004858  -0.034642   0.387417  -0.000000
    31  H    0.000001  -0.000151   0.004088  -0.026855   0.378461  -0.000000
    32  H    0.000001   0.000059  -0.005124  -0.034523   0.387036   0.000000
              13         14         15         16         17         18
     1  O    0.267652   0.002373   0.002357   0.000056   0.000056  -0.000001
     2  C   -0.009428  -0.024915  -0.024816  -0.002551  -0.002496   0.000012
     3  C    0.011329   0.368109   0.367871  -0.037311  -0.037523  -0.003893
     4  C   -0.000318  -0.035007  -0.035153   0.387904   0.387916  -0.038495
     5  C    0.000002  -0.002717  -0.002685  -0.038820  -0.038985   0.381829
     6  C   -0.000000   0.000017   0.000013  -0.003834  -0.002995  -0.035879
     7  C    0.000000   0.000002   0.000002  -0.000016   0.000057  -0.004080
     8  C   -0.000000   0.000000  -0.000001   0.000006  -0.000009   0.004205
     9  C    0.000000  -0.000001  -0.000004  -0.000004  -0.000001  -0.002847
    10  C    0.000000   0.000000   0.000000   0.000000   0.000000   0.000143
    11  C   -0.000000   0.000000  -0.000000  -0.000000   0.000000  -0.000012
    12  O    0.011471   0.001172   0.001182   0.002926   0.002890  -0.000002
    13  H    0.401374  -0.000365  -0.000363  -0.000004  -0.000004   0.000000
    14  H   -0.000365   0.581778  -0.028589  -0.004551   0.005151  -0.000451
    15  H   -0.000363  -0.028589   0.582344   0.005157  -0.004576   0.004631
    16  H   -0.000004  -0.004551   0.005157   0.611964  -0.035873   0.005812
    17  H   -0.000004   0.005151  -0.004576  -0.035873   0.612865  -0.005961
    18  H    0.000000  -0.000451   0.004631   0.005812  -0.005961   0.641047
    19  H    0.000000   0.004501  -0.000415  -0.005789   0.005872  -0.044292
    20  H    0.000000   0.000004   0.000008   0.005635  -0.000568   0.006208
    21  H    0.000000   0.000005   0.000002  -0.000499   0.004528  -0.007381
    22  H    0.000000  -0.000001   0.000000   0.000001   0.000007  -0.000244
    23  H   -0.000000   0.000000  -0.000000  -0.000005   0.000004  -0.000060
    24  H   -0.000000  -0.000000  -0.000000   0.000001   0.000003   0.001182
    25  H    0.000000  -0.000000   0.000000   0.000000  -0.000000  -0.000068
    26  H   -0.000000   0.000004   0.000011   0.000003   0.000004   0.002300
    27  H   -0.000000   0.000000   0.000000   0.000000   0.000000   0.000067
    28  H    0.000000  -0.000000  -0.000000  -0.000000  -0.000000  -0.000004
    29  H   -0.000000  -0.000000   0.000000   0.000000  -0.000000   0.000102
    30  H    0.000000  -0.000000  -0.000000   0.000000  -0.000000   0.000000
    31  H    0.000000   0.000000   0.000000   0.000000   0.000000   0.000000
    32  H    0.000000  -0.000000   0.000000  -0.000000  -0.000000  -0.000003
              19         20         21         22         23         24
     1  O   -0.000001  -0.000000  -0.000000  -0.000000   0.000000   0.000000
     2  C    0.000011  -0.000001   0.000000  -0.000000  -0.000000  -0.000000
     3  C   -0.003953   0.000123   0.000017  -0.000001   0.000001   0.000001
     4  C   -0.039116  -0.005284  -0.003573   0.000030  -0.000128  -0.000076
     5  C    0.382400  -0.042520  -0.039478  -0.007289   0.004987  -0.000785
     6  C   -0.039959   0.380022   0.381687  -0.036615  -0.032255  -0.007392
     7  C   -0.003101  -0.034173  -0.036449   0.383108   0.370804  -0.043180
     8  C   -0.001394   0.004834  -0.007419  -0.043822  -0.032636   0.384354
     9  C   -0.000202  -0.000115  -0.000105  -0.008596   0.004037  -0.040337
    10  C    0.000010   0.000002   0.000009   0.000221  -0.000167  -0.003559
    11  C    0.000000  -0.000000  -0.000000  -0.000003   0.000002   0.000067
    12  O   -0.000001  -0.000001  -0.000001  -0.000000   0.000000  -0.000000
    13  H    0.000000   0.000000   0.000000   0.000000  -0.000000  -0.000000
    14  H    0.004501   0.000004   0.000005  -0.000001   0.000000  -0.000000
    15  H   -0.000415   0.000008   0.000002   0.000000  -0.000000  -0.000000
    16  H   -0.005789   0.005635  -0.000499   0.000001  -0.000005   0.000001
    17  H    0.005872  -0.000568   0.004528   0.000007   0.000004   0.000003
    18  H   -0.044292   0.006208  -0.007381  -0.000244  -0.000060   0.001182
    19  H    0.646906  -0.004634   0.006214   0.005139   0.000007   0.000192
    20  H   -0.004634   0.648363  -0.039984  -0.003925  -0.004155   0.000184
    21  H    0.006214  -0.039984   0.643490   0.005892  -0.004377   0.004844
    22  H    0.005139  -0.003925   0.005892   0.644090  -0.039700   0.005479
    23  H    0.000007  -0.004155  -0.004377  -0.039700   0.653903   0.001405
    24  H    0.000192   0.000184   0.004844   0.005479   0.001405   0.644424
    25  H   -0.000011  -0.000220   0.000117   0.001260  -0.009932  -0.040601
    26  H    0.001894  -0.000059   0.000112   0.000413  -0.000036  -0.005319
    27  H    0.000097   0.000014   0.000006   0.005064   0.000141   0.005956
    28  H   -0.000000  -0.000000   0.000000   0.000007  -0.000002  -0.000598
    29  H    0.000001   0.000000  -0.000004   0.000010   0.000002   0.005126
    30  H    0.000000  -0.000000  -0.000000  -0.000001   0.000000   0.000008
    31  H    0.000000   0.000000   0.000000   0.000000  -0.000000   0.000001
    32  H   -0.000001   0.000000   0.000000   0.000000   0.000000   0.000001
              25         26         27         28         29         30
     1  O   -0.000000   0.000000   0.000000  -0.000000   0.000000  -0.000000
     2  C    0.000000   0.000000  -0.000000   0.000000  -0.000000  -0.000000
     3  C   -0.000000  -0.000004   0.000000   0.000000  -0.000000  -0.000000
     4  C    0.000001   0.000021  -0.000005   0.000000  -0.000000   0.000000
     5  C    0.000041   0.001250   0.000007  -0.000000   0.000008   0.000000
     6  C    0.003949  -0.000103  -0.000025  -0.000003  -0.000001   0.000000
     7  C   -0.032583  -0.001386  -0.005168   0.000034   0.000028   0.000001
     8  C    0.379339  -0.042671  -0.036890  -0.003439  -0.003912   0.000058
     9  C   -0.039124   0.384364   0.381570  -0.039572  -0.039521  -0.004858
    10  C   -0.004759  -0.039223  -0.039168   0.386694   0.386536  -0.034642
    11  C    0.000033  -0.003191  -0.003280  -0.038503  -0.038666   0.387417
    12  O    0.000000   0.000000   0.000000   0.000000  -0.000000  -0.000000
    13  H    0.000000  -0.000000  -0.000000   0.000000  -0.000000   0.000000
    14  H   -0.000000   0.000004   0.000000  -0.000000  -0.000000  -0.000000
    15  H    0.000000   0.000011   0.000000  -0.000000   0.000000  -0.000000
    16  H    0.000000   0.000003   0.000000  -0.000000   0.000000   0.000000
    17  H   -0.000000   0.000004   0.000000  -0.000000  -0.000000  -0.000000
    18  H   -0.000068   0.002300   0.000067  -0.000004   0.000102   0.000000
    19  H   -0.000011   0.001894   0.000097  -0.000000   0.000001   0.000000
    20  H   -0.000220  -0.000059   0.000014  -0.000000   0.000000  -0.000000
    21  H    0.000117   0.000112   0.000006   0.000000  -0.000004  -0.000000
    22  H    0.001260   0.000413   0.005064   0.000007   0.000010  -0.000001
    23  H   -0.009932  -0.000036   0.000141  -0.000002   0.000002   0.000000
    24  H   -0.040601  -0.005319   0.005956  -0.000598   0.005126   0.000008
    25  H    0.648776   0.006268  -0.006688   0.005332  -0.000599   0.000000
    26  H    0.006268   0.640741  -0.042142   0.006090  -0.006091  -0.000536
    27  H   -0.006688  -0.042142   0.647117  -0.006225   0.006139   0.004842
    28  H    0.005332   0.006090  -0.006225   0.641687  -0.041365  -0.005012
    29  H   -0.000599  -0.006091   0.006139  -0.041365   0.643427   0.005511
    30  H    0.000000  -0.000536   0.004842  -0.005012   0.005511   0.611452
    31  H    0.000002  -0.000012  -0.000027  -0.003072  -0.003149  -0.032555
    32  H    0.000007   0.005000  -0.000498   0.005503  -0.005025  -0.033838
              31         32
     1  O    0.000000  -0.000000
     2  C   -0.000000   0.000000
     3  C   -0.000000   0.000000
     4  C    0.000000   0.000000
     5  C   -0.000000  -0.000004
     6  C    0.000000  -0.000000
     7  C    0.000001   0.000001
     8  C   -0.000151   0.000059
     9  C    0.004088  -0.005124
    10  C   -0.026855  -0.034523
    11  C    0.378461   0.387036
    12  O   -0.000000   0.000000
    13  H    0.000000   0.000000
    14  H    0.000000  -0.000000
    15  H    0.000000   0.000000
    16  H    0.000000  -0.000000
    17  H    0.000000  -0.000000
    18  H    0.000000  -0.000003
    19  H    0.000000  -0.000001
    20  H    0.000000   0.000000
    21  H    0.000000   0.000000
    22  H    0.000000   0.000000
    23  H   -0.000000   0.000000
    24  H    0.000001   0.000001
    25  H    0.000002   0.000007
    26  H   -0.000012   0.005000
    27  H   -0.000027  -0.000498
    28  H   -0.003072   0.005503
    29  H   -0.003149  -0.005025
    30  H   -0.032555  -0.033838
    31  H    0.616803  -0.032592
    32  H   -0.032592   0.612886
 Mulliken charges:
               1
     1  O   -0.473445
     2  C    0.560294
     3  C   -0.258909
     4  C   -0.170868
     5  C   -0.177359
     6  C   -0.178914
     7  C   -0.186437
     8  C   -0.175486
     9  C   -0.168227
    10  C   -0.176176
    11  C   -0.319670
    12  O   -0.471075
    13  H    0.318654
    14  H    0.133481
    15  H    0.133023
    16  H    0.109795
    17  H    0.109641
    18  H    0.096135
    19  H    0.089626
    20  H    0.090243
    21  H    0.092347
    22  H    0.089477
    23  H    0.088160
    24  H    0.088620
    25  H    0.089461
    26  H    0.092298
    27  H    0.089095
    28  H    0.092448
    29  H    0.091444
    30  H    0.102153
    31  H    0.099055
    32  H    0.101115
 Sum of Mulliken charges =  -0.00000
 Mulliken charges with hydrogens summed into heavy atoms:
               1
     1  O   -0.154791
     2  C    0.560294
     3  C    0.007595
     4  C    0.048568
     5  C    0.008403
     6  C    0.003676
     7  C   -0.008800
     8  C    0.002596
     9  C    0.013166
    10  C    0.007716
    11  C   -0.017347
    12  O   -0.471075
 Electronic spatial extent (au):  <R**2>=           4614.1262
 Charge=              0.0000 electrons
 Dipole moment (field-independent basis, Debye):
    X=              0.8621    Y=              1.0780    Z=              0.3801  Tot=              1.4317
 Quadrupole moment (field-independent basis, Debye-Ang):
   XX=            -77.9982   YY=            -77.9887   ZZ=            -75.5143
   XY=             -8.1399   XZ=             -1.9300   YZ=             -1.4875
 Traceless Quadrupole moment (field-independent basis, Debye-Ang):
   XX=             -0.8311   YY=             -0.8217   ZZ=              1.6528
   XY=             -8.1399   XZ=             -1.9300   YZ=             -1.4875
 Octapole moment (field-independent basis, Debye-Ang**2):
  XXX=            -56.0637  YYY=             -0.3897  ZZZ=             -0.3907  XYY=            -11.1362
  XXY=             47.7841  XXZ=              9.2112  XZZ=            -14.2863  YZZ=              2.3866
  YYZ=             -2.4677  XYZ=              5.1497
 Hexadecapole moment (field-independent basis, Debye-Ang**3):
 XXXX=          -4423.6416 YYYY=          -1097.5859 ZZZZ=           -178.7590 XXXY=           -338.7346
 XXXZ=            -34.4623 YYYX=            -28.5908 YYYZ=             -5.3246 ZZZX=              6.3259
 ZZZY=              1.9263 XXYY=           -962.5611 XXZZ=           -815.1729 YYZZ=           -210.5459
 XXYZ=            -30.3586 YYXZ=              2.1553 ZZXY=            -10.2403
 N-N= 6.914676186870D+02 E-N=-2.646207562126D+03  KE= 5.384944085972D+02
 Calling FoFJK, ICntrl=      2127 FMM=F ISym2X=0 I1Cent= 0 IOpClX= 0 NMat=1 NMatS=1 NMatT=0.
 ***** Axes restored to original set *****
 -------------------------------------------------------------------
 Center     Atomic                   Forces (Hartrees/Bohr)
 Number     Number              X              Y              Z
 -------------------------------------------------------------------
      1        8          -0.004442791   -0.006093298   -0.007124566
      2        6          -0.022328518   -0.005234318    0.006898992
      3        6          -0.009566029    0.002800194    0.010962216
      4        6           0.005359928   -0.000097421   -0.003622622
      5        6          -0.003842865    0.004060544    0.005943946
      6        6           0.005789217   -0.005572773   -0.004952650
      7        6          -0.003390128    0.008749076    0.000861979
      8        6           0.007221369   -0.008074894    0.001599400
      9        6          -0.008393235    0.007235034   -0.003863920
     10        6           0.007874180   -0.004914205    0.002480769
     11        6          -0.004725026    0.002159118    0.000912971
     12        8           0.011939010   -0.003785083   -0.014739327
     13        1           0.007877640    0.009543056    0.010493961
     14        1           0.003746636   -0.002555632   -0.002758999
     15        1           0.002440914    0.000647506   -0.004617782
     16        1           0.001219021   -0.000030679    0.002191007
     17        1           0.000273552    0.002427742    0.000796879
     18        1           0.000664151    0.001428595   -0.004223305
     19        1           0.002354251   -0.003813030   -0.000543244
     20        1           0.000722236   -0.001730609    0.004046675
     21        1          -0.002159772    0.003691079   -0.001372618
     22        1           0.004310792   -0.002346684   -0.000982740
     23        1          -0.003271881   -0.000074068    0.002167175
     24        1           0.001035429    0.004584149    0.000370370
     25        1          -0.002455011   -0.001811826   -0.002520069
     26        1           0.003510531    0.002332649    0.001904140
     27        1          -0.000372006   -0.004487650    0.000151191
     28        1          -0.003796475   -0.001782891   -0.000729920
     29        1          -0.000600367    0.004073542    0.000942836
     30        1           0.000372821   -0.003123538    0.000506325
     31        1           0.000058167    0.000795419   -0.002885860
     32        1           0.002574260    0.001000899    0.001706790
 -------------------------------------------------------------------
 Cartesian Forces:  Max     0.022328518 RMS     0.005141087

 GradGradGradGradGradGradGradGradGradGradGradGradGradGradGradGradGradGrad
 Berny optimization.
 FormGI is forming the generalized inverse of G from B-inverse, IUseBI=4.
 Internal  Forces:  Max     0.018969699 RMS     0.002897484
 Search for a local minimum.
 Step number   1 out of a maximum of  179
 All quantities printed in internal units (Hartrees-Bohrs-Radians)
 Mixed Optimization -- RFO/linear search
 Second derivative matrix not updated -- first step.
 ITU=  0
     Eigenvalues ---    0.00230   0.00230   0.00230   0.00230   0.00242
     Eigenvalues ---    0.00253   0.00261   0.00302   0.00401   0.00873
     Eigenvalues ---    0.02357   0.03085   0.03176   0.03221   0.03400
     Eigenvalues ---    0.03428   0.03436   0.03443   0.03826   0.04665
     Eigenvalues ---    0.04672   0.04690   0.04725   0.04735   0.04749
     Eigenvalues ---    0.04759   0.05196   0.05410   0.05465   0.08254
     Eigenvalues ---    0.08296   0.08314   0.08321   0.08577   0.08708
     Eigenvalues ---    0.08807   0.09616   0.12159   0.12190   0.12203
     Eigenvalues ---    0.12203   0.12405   0.12488   0.12574   0.12964
     Eigenvalues ---    0.16000   0.16000   0.16000   0.16000   0.21876
     Eigenvalues ---    0.21881   0.21891   0.21896   0.21909   0.21911
     Eigenvalues ---    0.21923   0.22005   0.25000   0.25000   0.27928
     Eigenvalues ---    0.28085   0.28178   0.28366   0.28554   0.28628
     Eigenvalues ---    0.28679   0.28957   0.29650   0.34493   0.34504
     Eigenvalues ---    0.34624   0.34631   0.34632   0.34634   0.34636
     Eigenvalues ---    0.34638   0.34639   0.34643   0.34644   0.34645
     Eigenvalues ---    0.34727   0.34730   0.34739   0.34755   0.34836
     Eigenvalues ---    0.34851   0.34876   0.55075   0.55948   0.93951
 RFO step:  Lambda=-4.34357448D-03 EMin= 2.30000000D-03
 Linear search not attempted -- first point.
 Iteration  1 RMS(Cart)=  0.07338369 RMS(Int)=  0.00046653
 Iteration  2 RMS(Cart)=  0.00093439 RMS(Int)=  0.00007363
 Iteration  3 RMS(Cart)=  0.00000029 RMS(Int)=  0.00007363
 Variable       Old X    -DE/DX   Delta X   Delta X   Delta X     New X
                                 (Linear)    (Quad)   (Total)
    R1        2.55066   0.00337   0.00000   0.00607   0.00607   2.55672
    R2        1.80999   0.01578   0.00000   0.02798   0.02798   1.83797
    R3        2.88668  -0.00920   0.00000  -0.03058  -0.03058   2.85609
    R4        2.31164  -0.01897   0.00000  -0.02010  -0.02010   2.29154
    R5        2.92296  -0.01088   0.00000  -0.03835  -0.03835   2.88461
    R6        2.05917   0.00450   0.00000   0.01275   0.01275   2.07192
    R7        2.05943   0.00443   0.00000   0.01255   0.01255   2.07197
    R8        2.90786  -0.00378   0.00000  -0.01301  -0.01301   2.89485
    R9        2.06488   0.00188   0.00000   0.00538   0.00538   2.07025
   R10        2.06505   0.00188   0.00000   0.00539   0.00539   2.07044
   R11        2.90944  -0.00420   0.00000  -0.01448  -0.01448   2.89496
   R12        2.06101   0.00441   0.00000   0.01253   0.01253   2.07354
   R13        2.06259   0.00450   0.00000   0.01284   0.01284   2.07543
   R14        2.91750  -0.00457   0.00000  -0.01598  -0.01598   2.90153
   R15        2.06279   0.00435   0.00000   0.01240   0.01240   2.07519
   R16        2.06267   0.00425   0.00000   0.01212   0.01212   2.07478
   R17        2.91953  -0.00130   0.00000  -0.00457  -0.00457   2.91496
   R18        2.06271   0.00418   0.00000   0.01192   0.01192   2.07463
   R19        2.06274   0.00371   0.00000   0.01057   0.01057   2.07331
   R20        2.91345  -0.00420   0.00000  -0.01459  -0.01459   2.89886
   R21        2.06277   0.00434   0.00000   0.01237   0.01237   2.07514
   R22        2.06290   0.00378   0.00000   0.01078   0.01078   2.07368
   R23        2.90678  -0.00349   0.00000  -0.01199  -0.01199   2.89478
   R24        2.05877   0.00457   0.00000   0.01294   0.01294   2.07171
   R25        2.06257   0.00442   0.00000   0.01259   0.01259   2.07516
   R26        2.90093  -0.00170   0.00000  -0.00578  -0.00578   2.89515
   R27        2.06255   0.00413   0.00000   0.01176   0.01176   2.07431
   R28        2.06265   0.00410   0.00000   0.01170   0.01170   2.07434
   R29        2.06120   0.00312   0.00000   0.00888   0.00888   2.07008
   R30        2.06074   0.00296   0.00000   0.00841   0.00841   2.06915
   R31        2.06115   0.00318   0.00000   0.00906   0.00906   2.07020
    A1        1.81754   0.00685   0.00000   0.04169   0.04169   1.85924
    A2        1.95045   0.00080   0.00000   0.00314   0.00314   1.95359
    A3        2.14934  -0.00477   0.00000  -0.01875  -0.01875   2.13059
    A4        2.18340   0.00397   0.00000   0.01561   0.01561   2.19901
    A5        1.99510  -0.00651   0.00000  -0.02631  -0.02619   1.96891
    A6        1.87330   0.00189   0.00000   0.00740   0.00751   1.88081
    A7        1.87321   0.00186   0.00000   0.00734   0.00746   1.88066
    A8        1.92079   0.00269   0.00000   0.01613   0.01614   1.93693
    A9        1.92078   0.00275   0.00000   0.01671   0.01672   1.93750
   A10        1.87622  -0.00261   0.00000  -0.02207  -0.02216   1.85405
   A11        1.96163  -0.00167   0.00000  -0.00805  -0.00802   1.95362
   A12        1.91590  -0.00045   0.00000  -0.00903  -0.00900   1.90690
   A13        1.91641  -0.00058   0.00000  -0.01046  -0.01042   1.90599
   A14        1.90800   0.00148   0.00000   0.01346   0.01338   1.92139
   A15        1.90700   0.00157   0.00000   0.01379   0.01370   1.92070
   A16        1.85162  -0.00026   0.00000   0.00101   0.00080   1.85242
   A17        1.96811  -0.00160   0.00000  -0.00684  -0.00684   1.96127
   A18        1.90010   0.00063   0.00000   0.00567   0.00568   1.90578
   A19        1.91166   0.00071   0.00000   0.00248   0.00246   1.91412
   A20        1.90866   0.00066   0.00000   0.00503   0.00505   1.91371
   A21        1.91166   0.00016   0.00000  -0.00279  -0.00280   1.90887
   A22        1.86051  -0.00050   0.00000  -0.00331  -0.00331   1.85720
   A23        2.00835   0.00000   0.00000  -0.00232  -0.00239   2.00597
   A24        1.90090  -0.00046   0.00000   0.00043   0.00042   1.90133
   A25        1.90940  -0.00025   0.00000  -0.00892  -0.00901   1.90038
   A26        1.88650   0.00076   0.00000   0.01147   0.01148   1.89798
   A27        1.90914  -0.00054   0.00000  -0.00971  -0.00980   1.89934
   A28        1.84215   0.00056   0.00000   0.01060   0.01064   1.85279
   A29        2.01615  -0.00084   0.00000  -0.00815  -0.00848   2.00767
   A30        1.92116  -0.00013   0.00000  -0.01599  -0.01645   1.90471
   A31        1.87328  -0.00018   0.00000   0.00790   0.00792   1.88119
   A32        1.92615  -0.00081   0.00000  -0.01942  -0.01983   1.90632
   A33        1.88639   0.00146   0.00000   0.02251   0.02257   1.90896
   A34        1.83028   0.00073   0.00000   0.01778   0.01799   1.84827
   A35        1.99370   0.00177   0.00000   0.00609   0.00597   1.99967
   A36        1.91956  -0.00093   0.00000  -0.01259  -0.01265   1.90691
   A37        1.89366   0.00048   0.00000   0.01512   0.01507   1.90874
   A38        1.92597  -0.00128   0.00000  -0.01816  -0.01823   1.90773
   A39        1.88536  -0.00089   0.00000   0.00145   0.00131   1.88668
   A40        1.83846   0.00082   0.00000   0.00947   0.00954   1.84800
   A41        1.96673   0.00183   0.00000   0.00745   0.00745   1.97418
   A42        1.92749  -0.00067   0.00000  -0.00352  -0.00353   1.92396
   A43        1.90621  -0.00101   0.00000  -0.00765  -0.00765   1.89857
   A44        1.90505  -0.00055   0.00000  -0.00104  -0.00103   1.90402
   A45        1.90769  -0.00034   0.00000  -0.00090  -0.00088   1.90681
   A46        1.84673   0.00067   0.00000   0.00555   0.00553   1.85227
   A47        1.96700   0.00109   0.00000   0.00491   0.00492   1.97193
   A48        1.91494  -0.00096   0.00000  -0.00838  -0.00840   1.90654
   A49        1.91386  -0.00094   0.00000  -0.00846  -0.00848   1.90538
   A50        1.90597   0.00025   0.00000   0.00541   0.00542   1.91139
   A51        1.90597   0.00021   0.00000   0.00491   0.00492   1.91089
   A52        1.85255   0.00031   0.00000   0.00150   0.00142   1.85397
   A53        1.94349  -0.00065   0.00000  -0.00524  -0.00526   1.93823
   A54        1.93720   0.00100   0.00000   0.00858   0.00858   1.94578
   A55        1.94338  -0.00064   0.00000  -0.00512  -0.00514   1.93824
   A56        1.87744   0.00008   0.00000   0.00281   0.00282   1.88026
   A57        1.88191   0.00015   0.00000  -0.00371  -0.00376   1.87815
   A58        1.87743   0.00008   0.00000   0.00287   0.00287   1.88030
    D1        3.14150   0.00000   0.00000   0.00008   0.00008   3.14159
    D2       -0.00018   0.00001   0.00000   0.00037   0.00037   0.00018
    D3       -3.14102  -0.00002   0.00000  -0.00023  -0.00023  -3.14125
    D4        1.00670  -0.00057   0.00000  -0.00902  -0.00903   0.99767
    D5       -1.00563   0.00059   0.00000   0.00926   0.00927  -0.99636
    D6        0.00067  -0.00002   0.00000  -0.00052  -0.00052   0.00015
    D7       -2.13479  -0.00058   0.00000  -0.00932  -0.00932  -2.14412
    D8        2.13606   0.00059   0.00000   0.00897   0.00897   2.14503
    D9       -3.14124   0.00001   0.00000  -0.00018  -0.00017  -3.14141
   D10       -1.01375   0.00045   0.00000   0.00514   0.00514  -1.00861
   D11        1.01539  -0.00046   0.00000  -0.00490  -0.00490   1.01048
   D12       -1.03189  -0.00006   0.00000   0.00316   0.00310  -1.02879
   D13        1.09560   0.00039   0.00000   0.00848   0.00842   1.10401
   D14        3.12473  -0.00052   0.00000  -0.00157  -0.00163   3.12310
   D15        1.03273   0.00007   0.00000  -0.00386  -0.00380   1.02893
   D16       -3.12297   0.00051   0.00000   0.00146   0.00151  -3.12146
   D17       -1.09383  -0.00040   0.00000  -0.00859  -0.00853  -1.10236
   D18       -3.13138  -0.00014   0.00000   0.00002   0.00003  -3.13135
   D19       -1.00987   0.00008   0.00000   0.00589   0.00588  -1.00399
   D20        1.01825   0.00024   0.00000   0.00649   0.00650   1.02475
   D21        1.01984   0.00050   0.00000   0.00743   0.00749   1.02733
   D22        3.14135   0.00072   0.00000   0.01329   0.01335  -3.12849
   D23       -1.11372   0.00088   0.00000   0.01390   0.01397  -1.09975
   D24       -0.99947  -0.00089   0.00000  -0.00896  -0.00903  -1.00850
   D25        1.12203  -0.00067   0.00000  -0.00310  -0.00317   1.11886
   D26       -3.13303  -0.00051   0.00000  -0.00249  -0.00255  -3.13558
   D27       -3.01502  -0.00058   0.00000  -0.02993  -0.02992  -3.04494
   D28       -0.89428   0.00006   0.00000  -0.01628  -0.01629  -0.91057
   D29        1.11112   0.00034   0.00000  -0.00826  -0.00829   1.10283
   D30        1.15152  -0.00077   0.00000  -0.03614  -0.03612   1.11540
   D31       -3.01093  -0.00013   0.00000  -0.02249  -0.02249  -3.03342
   D32       -1.00553   0.00015   0.00000  -0.01446  -0.01448  -1.02001
   D33       -0.88146  -0.00064   0.00000  -0.03343  -0.03341  -0.91487
   D34        1.23927  -0.00000   0.00000  -0.01978  -0.01978   1.21950
   D35       -3.03851   0.00028   0.00000  -0.01176  -0.01177  -3.05028
   D36       -1.10113   0.00131   0.00000   0.04089   0.04080  -1.06033
   D37        1.09442  -0.00057   0.00000  -0.00570  -0.00563   1.08880
   D38        3.07696   0.00012   0.00000   0.01144   0.01142   3.08838
   D39        3.05353   0.00134   0.00000   0.03324   0.03316   3.08669
   D40       -1.03410  -0.00055   0.00000  -0.01334  -0.01327  -1.04737
   D41        0.94843   0.00014   0.00000   0.00380   0.00378   0.95221
   D42        1.05606   0.00055   0.00000   0.01964   0.01959   1.07565
   D43       -3.03157  -0.00134   0.00000  -0.02695  -0.02684  -3.05841
   D44       -1.04904  -0.00065   0.00000  -0.00980  -0.00979  -1.05883
   D45        1.63964  -0.00130   0.00000  -0.06612  -0.06607   1.57357
   D46       -0.53697  -0.00018   0.00000  -0.03648  -0.03643  -0.57340
   D47       -2.53947  -0.00093   0.00000  -0.04940  -0.04927  -2.58874
   D48       -0.55336   0.00024   0.00000  -0.02119  -0.02134  -0.57470
   D49       -2.72997   0.00136   0.00000   0.00845   0.00830  -2.72167
   D50        1.55072   0.00061   0.00000  -0.00447  -0.00454   1.54618
   D51       -2.54558  -0.00100   0.00000  -0.04459  -0.04457  -2.59015
   D52        1.56099   0.00011   0.00000  -0.01495  -0.01493   1.54606
   D53       -0.44151  -0.00063   0.00000  -0.02787  -0.02777  -0.46927
   D54       -3.13141   0.00066   0.00000   0.01376   0.01373  -3.11767
   D55       -0.99584   0.00075   0.00000   0.01509   0.01507  -0.98077
   D56        1.02811   0.00059   0.00000   0.01533   0.01532   1.04343
   D57       -0.95821  -0.00026   0.00000  -0.01296  -0.01294  -0.97115
   D58        1.17736  -0.00017   0.00000  -0.01162  -0.01161   1.16575
   D59       -3.08187  -0.00033   0.00000  -0.01139  -0.01136  -3.09323
   D60        1.04308  -0.00046   0.00000  -0.01048  -0.01049   1.03260
   D61       -3.10454  -0.00037   0.00000  -0.00915  -0.00915  -3.11369
   D62       -1.08058  -0.00053   0.00000  -0.00891  -0.00890  -1.08949
   D63       -3.13592   0.00012   0.00000   0.00568   0.00568  -3.13024
   D64       -1.00805   0.00050   0.00000   0.00996   0.00994  -0.99812
   D65        1.02018  -0.00023   0.00000   0.00209   0.00211   1.02230
   D66        0.99913   0.00012   0.00000   0.00584   0.00584   1.00497
   D67        3.12699   0.00050   0.00000   0.01012   0.01010   3.13709
   D68       -1.12795  -0.00022   0.00000   0.00225   0.00227  -1.12568
   D69       -1.01309  -0.00019   0.00000   0.00028   0.00029  -1.01280
   D70        1.11478   0.00019   0.00000   0.00457   0.00455   1.11932
   D71       -3.14017  -0.00053   0.00000  -0.00330  -0.00328   3.13974
   D72        1.05060  -0.00034   0.00000  -0.00577  -0.00575   1.04484
   D73       -3.14144  -0.00000   0.00000   0.00005   0.00005  -3.14139
   D74       -1.05039   0.00035   0.00000   0.00601   0.00600  -1.04440
   D75       -1.08232  -0.00003   0.00000  -0.00225  -0.00223  -1.08456
   D76        1.00882   0.00031   0.00000   0.00357   0.00357   1.01239
   D77        3.09987   0.00066   0.00000   0.00953   0.00952   3.10939
   D78       -3.10105  -0.00066   0.00000  -0.00975  -0.00974  -3.11079
   D79       -1.00990  -0.00032   0.00000  -0.00394  -0.00394  -1.01384
   D80        1.08115   0.00003   0.00000   0.00203   0.00201   1.08316
         Item               Value     Threshold  Converged?
 Maximum Force            0.018970     0.000450     NO 
 RMS     Force            0.002897     0.000300     NO 
 Maximum Displacement     0.245603     0.001800     NO 
 RMS     Displacement     0.073472     0.001200     NO 
 Predicted change in Energy=-2.253238D-03
 GradGradGradGradGradGradGradGradGradGradGradGradGradGradGradGradGradGrad

                          Input orientation:                          
 ---------------------------------------------------------------------
 Center     Atomic      Atomic             Coordinates (Angstroms)
 Number     Number       Type             X           Y           Z
 ---------------------------------------------------------------------
      1          8           0        6.553748    0.019097   -0.290652
      2          6           0        5.283001   -0.335480    0.009308
      3          6           0        4.686611   -1.242076   -1.042677
      4          6           0        3.251794   -1.654348   -0.724175
      5          6           0        2.667475   -2.572392   -1.802344
      6          6           0        1.222304   -2.980834   -1.499818
      7          6           0        0.622620   -4.006855   -2.472021
      8          6           0        0.549636   -3.547337   -3.942707
      9          6           0        1.789247   -3.887907   -4.779706
     10          6           0        1.695296   -3.387540   -6.224484
     11          6           0        2.927910   -3.743044   -7.062015
     12          8           0        4.726646    0.051945    1.014715
     13          1           0        6.857615    0.596168    0.430893
     14          1           0        5.336247   -2.120526   -1.134469
     15          1           0        4.740955   -0.718888   -2.004709
     16          1           0        3.227499   -2.155052    0.249938
     17          1           0        2.633298   -0.755976   -0.620276
     18          1           0        2.711243   -2.062354   -2.772885
     19          1           0        3.288415   -3.473320   -1.897021
     20          1           0        1.172988   -3.388809   -0.481464
     21          1           0        0.591628   -2.082116   -1.499771
     22          1           0        1.199814   -4.938841   -2.412724
     23          1           0       -0.385703   -4.254760   -2.117673
     24          1           0        0.376128   -2.463506   -3.975329
     25          1           0       -0.323327   -4.005844   -4.424239
     26          1           0        2.688603   -3.469296   -4.313013
     27          1           0        1.925797   -4.977511   -4.782038
     28          1           0        0.797893   -3.809040   -6.695552
     29          1           0        1.556923   -2.298608   -6.220544
     30          1           0        3.072156   -4.827928   -7.109046
     31          1           0        2.835108   -3.374158   -8.088767
     32          1           0        3.835630   -3.306365   -6.631333
 ---------------------------------------------------------------------
                    Distance matrix (angstroms):
                    1          2          3          4          5
     1  O    0.000000
     2  C    1.352960   0.000000
     3  C    2.375353   1.511380   0.000000
     4  C    3.727098   2.530456   1.526470   0.000000
     5  C    4.909598   3.889323   2.534511   1.531889   0.000000
     6  C    6.235862   5.075886   3.903035   2.545588   1.531949
     7  C    7.492993   6.430796   5.118892   3.937234   2.586036
     8  C    7.880757   6.952639   5.553285   4.609124   3.164951
     9  C    7.623435   6.910912   5.418535   4.855426   3.371431
    10  C    8.391668   7.813249   6.356265   5.973278   4.600535
[...]
 Alpha virt. eigenvalues --    4.08934   4.11123   4.13312   4.16526   4.18778
 Alpha virt. eigenvalues --    4.24386   4.25183   4.29766   4.30291   4.35520
 Alpha virt. eigenvalues --    4.36637   4.39258   4.41964   4.45182   4.45603
 Alpha virt. eigenvalues --    4.50332   4.51693   4.53087   4.53313   4.54458
 Alpha virt. eigenvalues --    4.56667   4.57632   4.58216   4.60106   4.60694
 Alpha virt. eigenvalues --    4.63616   4.65054   4.66646   4.68936   4.72974
 Alpha virt. eigenvalues --    4.75873   4.79478   4.82614   4.92076   4.99997
 Alpha virt. eigenvalues --    5.04444   5.10897   5.11636   5.16877   5.22270
 Alpha virt. eigenvalues --    5.22417   5.38577   5.41645   5.50077   5.59911
 Alpha virt. eigenvalues --    5.75226   5.84476   5.86305   6.15406   6.19265
 Alpha virt. eigenvalues --    6.32004   6.33957   6.43823   6.48629   6.64847
 Alpha virt. eigenvalues --    6.68394   6.73897   6.80920   6.88620   7.07298
 Alpha virt. eigenvalues --    7.09422   7.27319  22.40624  22.44853  22.51277
 Alpha virt. eigenvalues --   22.56857  22.58162  22.59652  22.61872  22.64393
 Alpha virt. eigenvalues --   22.67817  23.26836  43.93620  44.00484
          Condensed to atoms (all electrons):
               1          2          3          4          5          6
     1  O    7.934257   0.398816  -0.144824   0.012625  -0.000415   0.000009
     2  C    0.398816   4.430165   0.217197   0.000542  -0.002779   0.000228
     3  C   -0.144824   0.217197   5.538278   0.100465  -0.002874   0.006745
     4  C    0.012625   0.000542   0.100465   5.297503   0.163022  -0.042576
     5  C   -0.000415  -0.002779  -0.002874   0.163022   5.376230   0.197411
     6  C    0.000009   0.000228   0.006745  -0.042576   0.197411   5.206553
     7  C   -0.000000   0.000026  -0.000694   0.010162  -0.040522   0.248452
     8  C    0.000000  -0.000014   0.000260  -0.002012   0.015263  -0.028855
     9  C    0.000000   0.000013  -0.000216   0.001849   0.001289  -0.003849
    10  C    0.000000  -0.000000   0.000003  -0.000093   0.000668  -0.000850
    11  C   -0.000000   0.000000  -0.000001   0.000001  -0.000061   0.000042
    12  O   -0.088198   0.672854  -0.123258   0.019496   0.000974   0.000096
    13  H    0.290896  -0.032769   0.025051  -0.002260   0.000089  -0.000004
    14  H    0.004157  -0.015224   0.398295  -0.038911  -0.002057  -0.000202
    15  H    0.004206  -0.015032   0.399377  -0.038824  -0.002904  -0.000348
    16  H    0.000107  -0.003638  -0.036754   0.441098  -0.054048  -0.004572
    17  H    0.000111  -0.004285  -0.038365   0.429968  -0.043827  -0.002603
    18  H   -0.000018  -0.000005  -0.006832  -0.027392   0.412857  -0.036582
    19  H   -0.000014  -0.000167  -0.007647  -0.030749   0.414189  -0.044340
    20  H   -0.000000  -0.000056   0.000011  -0.003717  -0.049785   0.440613
    21  H   -0.000000  -0.000069  -0.000352  -0.003976  -0.063987   0.442950
    22  H    0.000000  -0.000002   0.000006  -0.000660  -0.011986  -0.039688
    23  H    0.000000  -0.000001   0.000041  -0.000848   0.012169  -0.058867
    24  H    0.000000  -0.000003   0.000038  -0.000374  -0.010178   0.009282
    25  H   -0.000000   0.000000  -0.000003   0.000088   0.000209   0.004370
    26  H    0.000000   0.000024  -0.000003   0.001687  -0.000435  -0.001821
    27  H    0.000000  -0.000000   0.000002  -0.000081  -0.001482   0.001978
    28  H   -0.000000   0.000000   0.000000   0.000002  -0.000032  -0.000008
    29  H    0.000000  -0.000000  -0.000004   0.000005   0.000116  -0.000035
    30  H   -0.000000   0.000000  -0.000000   0.000001   0.000019  -0.000004
    31  H    0.000000  -0.000000   0.000000  -0.000000   0.000000  -0.000001
    32  H    0.000000   0.000000   0.000002  -0.000007  -0.000036   0.000012
               7          8          9         10         11         12
     1  O   -0.000000   0.000000   0.000000   0.000000  -0.000000  -0.088198
     2  C    0.000026  -0.000014   0.000013  -0.000000   0.000000   0.672854
     3  C   -0.000694   0.000260  -0.000216   0.000003  -0.000001  -0.123258
     4  C    0.010162  -0.002012   0.001849  -0.000093   0.000001   0.019496
     5  C   -0.040522   0.015263   0.001289   0.000668  -0.000061   0.000974
     6  C    0.248452  -0.028855  -0.003849  -0.000850   0.000042   0.000096
     7  C    5.168704   0.187528  -0.021921   0.008888  -0.000685   0.000001
     8  C    0.187528   5.314854   0.193839  -0.043181   0.011532  -0.000000
     9  C   -0.021921   0.193839   5.312359   0.234404  -0.053333  -0.000000
    10  C    0.008888  -0.043181   0.234404   5.129860   0.266431   0.000000
    11  C   -0.000685   0.011532  -0.053333   0.266431   5.035947  -0.000000
    12  O    0.000001  -0.000000  -0.000000   0.000000  -0.000000   7.835166
    13  H    0.000000  -0.000000   0.000000  -0.000000   0.000000   0.005800
    14  H   -0.000053   0.000035  -0.000001   0.000001   0.000000   0.001931
    15  H    0.000067  -0.000069   0.000023  -0.000002   0.000001   0.001919
    16  H   -0.000290   0.000010  -0.000075   0.000002  -0.000000   0.003194
    17  H    0.000177   0.000062   0.000004   0.000000   0.000000   0.003012
    18  H   -0.014844   0.016845  -0.015647   0.001489  -0.000234   0.000001
    19  H    0.007720  -0.006325   0.001222  -0.000027   0.000045   0.000008
    20  H   -0.051603   0.011537  -0.001026   0.000072  -0.000003  -0.000025
    21  H   -0.032530  -0.016344   0.002523  -0.000102   0.000010  -0.000020
    22  H    0.440869  -0.065545  -0.003137  -0.000202   0.000054  -0.000000
    23  H    0.444792  -0.045363   0.005650  -0.000461   0.000020  -0.000000
    24  H   -0.052780   0.428170  -0.055427  -0.002322  -0.000105   0.000000
    25  H   -0.034639   0.425341  -0.040979  -0.006229  -0.000115  -0.000000
    26  H    0.000882  -0.051481   0.434061  -0.050212  -0.001699   0.000000
    27  H   -0.006182  -0.039035   0.416122  -0.030145  -0.005486   0.000000
    28  H   -0.000282  -0.003920  -0.052012   0.429234  -0.037757  -0.000000
    29  H   -0.000178  -0.004029  -0.048595   0.429537  -0.040674  -0.000000
    30  H   -0.000032  -0.000187  -0.004899  -0.041244   0.413358   0.000000
    31  H    0.000038  -0.000881   0.013141  -0.052386   0.423274   0.000000
    32  H   -0.000036  -0.000217  -0.008743  -0.040276   0.415355   0.000000
              13         14         15         16         17         18
     1  O    0.290896   0.004157   0.004206   0.000107   0.000111  -0.000018
     2  C   -0.032769  -0.015224  -0.015032  -0.003638  -0.004285  -0.000005
     3  C    0.025051   0.398295   0.399377  -0.036754  -0.038365  -0.006832
     4  C   -0.002260  -0.038911  -0.038824   0.441098   0.429968  -0.027392
     5  C    0.000089  -0.002057  -0.002904  -0.054048  -0.043827   0.412857
     6  C   -0.000004  -0.000202  -0.000348  -0.004572  -0.002603  -0.036582
     7  C    0.000000  -0.000053   0.000067  -0.000290   0.000177  -0.014844
     8  C   -0.000000   0.000035  -0.000069   0.000010   0.000062   0.016845
     9  C    0.000000  -0.000001   0.000023  -0.000075   0.000004  -0.015647
    10  C   -0.000000   0.000001  -0.000002   0.000002   0.000000   0.001489
    11  C    0.000000   0.000000   0.000001  -0.000000   0.000000  -0.000234
    12  O    0.005800   0.001931   0.001919   0.003194   0.003012   0.000001
    13  H    0.378955  -0.000620  -0.000609  -0.000007  -0.000009   0.000002
    14  H   -0.000620   0.499924  -0.020836  -0.002532   0.005134   0.000960
    15  H   -0.000609  -0.020836   0.499652   0.004954  -0.002285  -0.000115
    16  H   -0.000007  -0.002532   0.004954   0.511643  -0.020444   0.006106
    17  H   -0.000009   0.005134  -0.002285  -0.020444   0.515617  -0.004611
    18  H    0.000002   0.000960  -0.000115   0.006106  -0.004611   0.561325
    19  H    0.000001   0.000191   0.001199  -0.003823   0.005716  -0.035619
    20  H    0.000000   0.000164  -0.000071   0.001067   0.000827   0.005911
    21  H    0.000000  -0.000067   0.000167   0.001117   0.000932  -0.002531
    22  H   -0.000000  -0.000010   0.000003   0.000157  -0.000032   0.001596
    23  H   -0.000000  -0.000000  -0.000000  -0.000040   0.000013  -0.000596
    24  H   -0.000000  -0.000003   0.000006   0.000005   0.000048  -0.000709
    25  H    0.000000   0.000000   0.000000   0.000001  -0.000006   0.000251
    26  H   -0.000000   0.000045   0.000070  -0.000017  -0.000044  -0.004244
    27  H   -0.000000  -0.000001   0.000000   0.000001   0.000003   0.000491
    28  H    0.000000  -0.000000   0.000000  -0.000000  -0.000000   0.000009
    29  H   -0.000000  -0.000000   0.000002   0.000000   0.000001   0.000106
    30  H    0.000000   0.000000  -0.000000  -0.000000  -0.000000   0.000005
    31  H   -0.000000   0.000000  -0.000000   0.000000   0.000000   0.000005
    32  H   -0.000000   0.000000   0.000003   0.000000  -0.000000   0.000038
              19         20         21         22         23         24
     1  O   -0.000014  -0.000000  -0.000000   0.000000   0.000000   0.000000
     2  C   -0.000167  -0.000056  -0.000069  -0.000002  -0.000001  -0.000003
     3  C   -0.007647   0.000011  -0.000352   0.000006   0.000041   0.000038
     4  C   -0.030749  -0.003717  -0.003976  -0.000660  -0.000848  -0.000374
     5  C    0.414189  -0.049785  -0.063987  -0.011986   0.012169  -0.010178
     6  C   -0.044340   0.440613   0.442950  -0.039688  -0.058867   0.009282
     7  C    0.007720  -0.051603  -0.032530   0.440869   0.444792  -0.052780
     8  C   -0.006325   0.011537  -0.016344  -0.065545  -0.045363   0.428170
     9  C    0.001222  -0.001026   0.002523  -0.003137   0.005650  -0.055427
    10  C   -0.000027   0.000072  -0.000102  -0.000202  -0.000461  -0.002322
    11  C    0.000045  -0.000003   0.000010   0.000054   0.000020  -0.000105
    12  O    0.000008  -0.000025  -0.000020  -0.000000  -0.000000   0.000000
    13  H    0.000001   0.000000   0.000000  -0.000000  -0.000000  -0.000000
    14  H    0.000191   0.000164  -0.000067  -0.000010  -0.000000  -0.000003
    15  H    0.001199  -0.000071   0.000167   0.000003  -0.000000   0.000006
    16  H   -0.003823   0.001067   0.001117   0.000157  -0.000040   0.000005
    17  H    0.005716   0.000827   0.000932  -0.000032   0.000013   0.000048
    18  H   -0.035619   0.005911  -0.002531   0.001596  -0.000596  -0.000709
    19  H    0.543189  -0.001963   0.006345   0.001599   0.000173   0.001067
    20  H   -0.001963   0.535150  -0.021266  -0.002164  -0.006866  -0.000009
    21  H    0.006345  -0.021266   0.527937   0.006069  -0.003164   0.003131
    22  H    0.001599  -0.002164   0.006069   0.532001  -0.020292   0.006554
    23  H    0.000173  -0.006866  -0.003164  -0.020292   0.536758   0.002695
    24  H    0.001067  -0.000009   0.003131   0.006554   0.002695   0.537302
    25  H   -0.000199  -0.000186  -0.000162   0.001283  -0.011027  -0.023498
    26  H   -0.005447   0.000039  -0.000119   0.001054  -0.000301  -0.001876
    27  H    0.000624  -0.000045   0.000006   0.001857   0.000476   0.006603
    28  H   -0.000015   0.000001  -0.000005   0.000060  -0.000008   0.000273
    29  H    0.000037  -0.000005   0.000023  -0.000023  -0.000006   0.001804
    30  H    0.000001  -0.000000   0.000000  -0.000017  -0.000001  -0.000055
    31  H   -0.000000   0.000000  -0.000000   0.000001  -0.000001   0.000009
    32  H   -0.000002   0.000000  -0.000001   0.000003   0.000001   0.000104
              25         26         27         28         29         30
     1  O   -0.000000   0.000000   0.000000  -0.000000   0.000000  -0.000000
     2  C    0.000000   0.000024  -0.000000   0.000000  -0.000000   0.000000
     3  C   -0.000003  -0.000003   0.000002   0.000000  -0.000004  -0.000000
     4  C    0.000088   0.001687  -0.000081   0.000002   0.000005   0.000001
     5  C    0.000209  -0.000435  -0.001482  -0.000032   0.000116   0.000019
     6  C    0.004370  -0.001821   0.001978  -0.000008  -0.000035  -0.000004
     7  C   -0.034639   0.000882  -0.006182  -0.000282  -0.000178  -0.000032
     8  C    0.425341  -0.051481  -0.039035  -0.003920  -0.004029  -0.000187
     9  C   -0.040979   0.434061   0.416122  -0.052012  -0.048595  -0.004899
    10  C   -0.006229  -0.050212  -0.030145   0.429234   0.429537  -0.041244
    11  C   -0.000115  -0.001699  -0.005486  -0.037757  -0.040674   0.413358
    12  O   -0.000000   0.000000   0.000000  -0.000000  -0.000000   0.000000
    13  H    0.000000  -0.000000  -0.000000   0.000000  -0.000000   0.000000
    14  H    0.000000   0.000045  -0.000001  -0.000000  -0.000000   0.000000
    15  H    0.000000   0.000070   0.000000   0.000000   0.000002  -0.000000
    16  H    0.000001  -0.000017   0.000001  -0.000000   0.000000  -0.000000
    17  H   -0.000006  -0.000044   0.000003  -0.000000   0.000001  -0.000000
    18  H    0.000251  -0.004244   0.000491   0.000009   0.000106   0.000005
    19  H   -0.000199  -0.005447   0.000624  -0.000015   0.000037   0.000001
    20  H   -0.000186   0.000039  -0.000045   0.000001  -0.000005  -0.000000
    21  H   -0.000162  -0.000119   0.000006  -0.000005   0.000023   0.000000
    22  H    0.001283   0.001054   0.001857   0.000060  -0.000023  -0.000017
    23  H   -0.011027  -0.000301   0.000476  -0.000008  -0.000006  -0.000001
    24  H   -0.023498  -0.001876   0.006603   0.000273   0.001804  -0.000055
    25  H    0.536000   0.005899  -0.004856   0.001892   0.000748   0.000146
    26  H    0.005899   0.561781  -0.032787   0.008204  -0.006657  -0.000309
    27  H   -0.004856  -0.032787   0.545400  -0.005282   0.007041   0.002166
    28  H    0.001892   0.008204  -0.005282   0.564558  -0.033065  -0.005603
    29  H    0.000748  -0.006657   0.007041  -0.033065   0.566791   0.007538
    30  H    0.000146  -0.000309   0.002166  -0.005603   0.007538   0.549389
    31  H    0.000002  -0.000063  -0.000056  -0.004115  -0.004208  -0.024689
    32  H   -0.000050   0.002835   0.000587   0.007268  -0.005172  -0.031335
              31         32
     1  O    0.000000   0.000000
     2  C   -0.000000   0.000000
     3  C    0.000000   0.000002
     4  C   -0.000000  -0.000007
     5  C    0.000000  -0.000036
     6  C   -0.000001   0.000012
     7  C    0.000038  -0.000036
     8  C   -0.000881  -0.000217
     9  C    0.013141  -0.008743
    10  C   -0.052386  -0.040276
    11  C    0.423274   0.415355
    12  O    0.000000   0.000000
    13  H   -0.000000  -0.000000
    14  H    0.000000   0.000000
    15  H   -0.000000   0.000003
    16  H    0.000000   0.000000
    17  H    0.000000  -0.000000
    18  H    0.000005   0.000038
    19  H   -0.000000  -0.000002
    20  H    0.000000   0.000000
    21  H   -0.000000  -0.000001
    22  H    0.000001   0.000003
    23  H   -0.000001   0.000001
    24  H    0.000009   0.000104
    25  H    0.000002  -0.000050
    26  H   -0.000063   0.002835
    27  H   -0.000056   0.000587
    28  H   -0.004115   0.007268
    29  H   -0.004208  -0.005172
    30  H   -0.024689  -0.031335
    31  H    0.532842  -0.024831
    32  H   -0.024831   0.549109
 Mulliken charges:
               1
     1  O   -0.411716
     2  C    0.354176
     3  C   -0.323944
     4  C   -0.286031
     5  C   -0.307096
     6  C   -0.293536
     7  C   -0.261031
     8  C   -0.297816
     9  C   -0.306638
    10  C   -0.232856
    11  C   -0.425914
    12  O   -0.332951
    13  H    0.335483
    14  H    0.169683
    15  H    0.169445
    16  H    0.156779
    17  H    0.154887
    18  H    0.141982
    19  H    0.153011
    20  H    0.143397
    21  H    0.153486
    22  H    0.150593
    23  H    0.145054
    24  H    0.150249
    25  H    0.145722
    26  H    0.140936
    27  H    0.142080
    28  H    0.130603
    29  H    0.128902
    30  H    0.135753
    31  H    0.141921
    32  H    0.135389
 Sum of Mulliken charges =  -0.00000
 Mulliken charges with hydrogens summed into heavy atoms:
               1
     1  O   -0.076233
     2  C    0.354176
     3  C    0.015184
     4  C    0.025635
     5  C   -0.012103
     6  C    0.003347
     7  C    0.034615
     8  C   -0.001846
     9  C   -0.023621
    10  C    0.026649
    11  C   -0.012853
    12  O   -0.332951
 Electronic spatial extent (au):  <R**2>=           4539.3151
 Charge=              0.0000 electrons
 Dipole moment (field-independent basis, Debye):
    X=              1.1051    Y=              1.0066    Z=              0.4274  Tot=              1.5547
 Quadrupole moment (field-independent basis, Debye-Ang):
   XX=            -80.3167   YY=            -79.5429   ZZ=            -77.1897
   XY=             -7.9587   XZ=             -2.0949   YZ=             -1.7748
 Traceless Quadrupole moment (field-independent basis, Debye-Ang):
   XX=             -1.3003   YY=             -0.5264   ZZ=              1.8267
   XY=             -7.9587   XZ=             -2.0949   YZ=             -1.7748
 Octapole moment (field-independent basis, Debye-Ang**2):
  XXX=            -47.7645  YYY=             -2.1889  ZZZ=             -0.1091  XYY=             -9.5742
  XXY=             46.4187  XXZ=              9.5049  XZZ=            -13.8282  YZZ=              2.1617
  YYZ=             -2.9063  XYZ=              5.3282
 Hexadecapole moment (field-independent basis, Debye-Ang**3):
 XXXX=          -4433.6447 YYYY=          -1123.4273 ZZZZ=           -190.8688 XXXY=           -337.1681
 XXXZ=            -32.8858 YYYX=            -29.6334 YYYZ=             -7.7725 ZZZX=              6.8626
 ZZZY=              1.1283 XXYY=           -969.0494 XXZZ=           -823.9356 YYZZ=           -217.6594
 XXYZ=            -35.2830 YYXZ=             -0.4628 ZZXY=             -9.3584
 N-N= 6.950422651843D+02 E-N=-2.654916167341D+03  KE= 5.405748912378D+02
 Unable to Open any file for archive entry.
 1\1\GINC-NOTCH075\SP\RM062X\def2TZVP\C10H20O2\U6032257\03-Feb-2022\0\\
 # M062X/def2tzvp int=(grid=ultrafine) nmr=giao guess=read geom=check\\
 Ac1.xyz\\0,1\O,0,6.5442974593,0.0605436114,-0.219268419\C,0,5.26996547
 08,-0.3055821777,0.0718323581\C,0,4.6969503311,-1.2120995965,-0.991729
 8064\C,0,3.2626005547,-1.6459094525,-0.7002105307\C,0,2.6962369972,-2.
 5639551056,-1.785652034\C,0,1.2508811887,-2.9848036087,-1.5038699633\C
 ,0,0.650405669,-4.00035057,-2.4872090814\C,0,0.5707686052,-3.530412053
 2,-3.9536435814\C,0,1.7794285541,-3.9104443307,-4.8176427172\C,0,1.675
 7658254,-3.3982528127,-6.2567717409\C,0,2.870624695,-3.8007933963,-7.1
 234492281\O,0,4.6996334304,0.0708600672,1.0718285667\H,0,6.8293175814,
 0.6360299059,0.5103803423\H,0,5.3646005952,-2.0779513526,-1.0862863763
 \H,0,4.7675631321,-0.684951814,-1.9516994544\H,0,3.2296815329,-2.14950
 61605,0.2725924545\H,0,2.6322071676,-0.7553514329,-0.596076785\H,0,2.7
 520185155,-2.0511587954,-2.7541744333\H,0,3.3277124188,-3.4590500504,-
 1.8768147395\H,0,1.199068194,-3.405758544,-0.4908652563\H,0,0.61793153
 54,-2.0865834443,-1.4896584703\H,0,1.2209586436,-4.9381550272,-2.43781
 3156\H,0,-0.3581205843,-4.2454665355,-2.1337386844\H,0,0.428661875,-2.
 4406390587,-3.9799531987\H,0,-0.3252434398,-3.9570428134,-4.4221959855
 \H,0,2.7045190509,-3.5312722579,-4.3677045877\H,0,1.8781654036,-5.0050
 582073,-4.8284138769\H,0,0.7485663813,-3.7750613737,-6.7090883777\H,0,
 1.5828229275,-2.3038998553,-6.243645956\H,0,2.9667623217,-4.890844013,
 -7.1801916152\H,0,2.7734630404,-3.4211770689,-8.1454752323\H,0,3.80698
 49264,-3.4094026757,-6.709990434\\Version=ES64L-G16RevC.01\State=1-A\H
 F=-543.5410866\RMSD=2.811e-09\Dipole=0.1607763,-0.2527441,-0.5333112\Q
 uadrupole=3.9009392,1.329126,-5.2300652,2.2531821,2.3028171,-2.8454715
 \PG=C01 [X(C10H20O2)]\\@
 The archive entry for this job was punched.


 A true friend is someone who is there for
 you when he'd rather be anywhere else.
                               -- Len Wein
 Job cpu time:       0 days  0 hours 35 minutes  7.6 seconds.
 Elapsed time:       0 days  0 hours  1 minutes 16.5 seconds.
 File lengths (MBytes):  RWF=    140 Int=      0 D2E=      0 Chk=     24 Scr=      1
 Normal termination of Gaussian 16 at Thu Feb  3 10:10:16 2022.
