 Entering Gaussian System, Link 0=/uufs/chpc.utah.edu/sys/installdir/gaussian16/C01/AVX2/g16/g16
 Input=Ac1_clust-41.com
 Output=Ac1_clust-41.log
 Initial command:
 /uufs/chpc.utah.edu/sys/installdir/gaussian16/C01/AVX2/g16/l1.exe "/scratch/general/lustre/u6032257/3867907/notchpeak.peaks/Gau-279730.inp" -scrdir="/scratch/general/lustre/u6032257/3867907/notchpeak.peaks/"
 Entering Link 1 = /uufs/chpc.utah.edu/sys/installdir/gaussian16/C01/AVX2/g16/l1.exe PID=    279732.
  
 Copyright (c) 1988-2019, Gaussian, Inc.  All Rights Reserved.
  
 This is part of the Gaussian(R) 16 program.  It is based on
 the Gaussian(R) 09 system (copyright 2009, Gaussian, Inc.),
 the Gaussian(R) 03 system (copyright 2003, Gaussian, Inc.),
 the Gaussian(R) 98 system (copyright 1998, Gaussian, Inc.),
 the Gaussian(R) 94 system (copyright 1995, Gaussian, Inc.),
 the Gaussian 92(TM) system (copyright 1992, Gaussian, Inc.),
 the Gaussian 90(TM) system (copyright 1990, Gaussian, Inc.),
 the Gaussian 88(TM) system (copyright 1988, Gaussian, Inc.),
 the Gaussian 86(TM) system (copyright 1986, Carnegie Mellon
 University), and the Gaussian 82(TM) system (copyright 1983,
 Carnegie Mellon University). Gaussian is a federally registered
 trademark of Gaussian, Inc.
  
 This software contains proprietary and confidential information,
 including trade secrets, belonging to Gaussian, Inc.
  
 This software is provided under written license and may be
 used, copied, transmitted, or stored only in accord with that
 written license.
  
 The following legend is applicable only to US Government
 contracts under FAR:
  
                    RESTRICTED RIGHTS LEGEND
  
 Use, reproduction and disclosure by the US Government is
 subject to restrictions as set forth in subparagraphs (a)
 and (c) of the Commercial Computer Software - Restricted
 Rights clause in FAR 52.227-19.
  
 Gaussian, Inc.
 340 Quinnipiac St., Bldg. 40, Wallingford CT 06492
  
  
 ---------------------------------------------------------------
 Warning -- This program may not be used in any manner that
 competes with the business of Gaussian, Inc. or will provide
 assistance to any competitor of Gaussian, Inc.  The licensee
 of this program is prohibited from giving any competitor of
 Gaussian, Inc. access to this program.  By using this program,
 the user acknowledges that Gaussian, Inc. is engaged in the
 business of creating and licensing software in the field of
 computational chemistry and represents and warrants to the
 licensee that it is not a competitor of Gaussian, Inc. and that
 it will not use this program in any manner prohibited above.
 ---------------------------------------------------------------
  

 Cite this work as:
 Gaussian 16, Revision C.01,
 M. J. Frisch, G. W. Trucks, H. B. Schlegel, G. E. Scuseria, 
 M. A. Robb, J. R. Cheeseman, G. Scalmani, V. Barone, 
 G. A. Petersson, H. Nakatsuji, X. Li, M. Caricato, A. V. Marenich, 
 J. Bloino, B. G. Janesko, R. Gomperts, B. Mennucci, H. P. Hratchian, 
 J. V. Ortiz, A. F. Izmaylov, J. L. Sonnenberg, D. Williams-Young, 
 F. Ding, F. Lipparini, F. Egidi, J. Goings, B. Peng, A. Petrone, 
 T. Henderson, D. Ranasinghe, V. G. Zakrzewski, J. Gao, N. Rega, 
 G. Zheng, W. Liang, M. Hada, M. Ehara, K. Toyota, R. Fukuda, 
 J. Hasegawa, M. Ishida, T. Nakajima, Y. Honda, O. Kitao, H. Nakai, 
 T. Vreven, K. Throssell, J. A. Montgomery, Jr., J. E. Peralta, 
 F. Ogliaro, M. J. Bearpark, J. J. Heyd, E. N. Brothers, K. N. Kudin, 
 V. N. Staroverov, T. A. Keith, R. Kobayashi, J. Normand, 
 K. Raghavachari, A. P. Rendell, J. C. Burant, S. S. Iyengar, 
 J. Tomasi, M. Cossi, J. M. Millam, M. Klene, C. Adamo, R. Cammi, 
 J. W. Ochterski, R. L. Martin, K. Morokuma, O. Farkas, 
 J. B. Foresman, and D. J. Fox, Gaussian, Inc., Wallingford CT, 2019.
 
 ******************************************
 Gaussian 16:  ES64L-G16RevC.01  3-Jul-2019
                 5-Feb-2022 
 ******************************************
 %NProcShared=32
 Will use up to   32 processors via shared memory.
 %mem=16GB
 %chk=Ac1_clust-41.chk
 ----------------------------------------------------------------------
 # B3LYP/6-31G(d,p) empiricaldispersion=GD3BJ int=(grid=ultrafine) opt 
 freq=noraman
 ----------------------------------------------------------------------
 1/18=20,19=15,26=4,38=1/1,3;
 2/9=110,12=2,17=6,18=5,40=1/2;
 3/5=1,6=6,7=101,11=2,25=1,30=1,71=1,74=-5,75=-5,124=41/1,2,3;
 4//1;
 5/5=2,38=5/2;
 6/7=2,8=2,9=2,10=2,28=1/1;
 7//1,2,3,16;
 1/18=20,19=15,26=4/3(2);
 2/9=110/2;
 99//99;
 2/9=110/2;
 3/5=1,6=6,7=101,11=2,25=1,30=1,71=1,74=-5,75=-5,124=41/1,2,3;
 4/5=5,16=3,69=1/1;
 5/5=2,38=5/2;
 7//1,2,3,16;
 1/18=20,19=15,26=4/3(-5);
 2/9=110/2;
 6/7=2,8=2,9=2,10=2,19=2,28=1/1;
 99/9=1/99;
 -------
 Ac1.xyz
 -------
 Symbolic Z-matrix:
 Charge =  0 Multiplicity = 1
 O                     6.0813   -0.6251    1.112 
 C                     5.2719    0.2085    0.4236 
 C                     4.8014   -0.3918   -0.8966 
 C                     3.8432   -1.5913   -0.7188 
 C                     3.3515   -2.1507   -2.0652 
 C                     2.3945   -3.3469   -1.8991 
 C                     1.9518   -3.9898   -3.2284 
 C                     1.0804   -3.0739   -4.1129 
 C                     0.4893   -3.7727   -5.3533 
 C                     1.5405   -4.2167   -6.3877 
 C                     0.9091   -4.8268   -7.647 
 O                     4.9638    1.3235    0.8175 
 H                     6.304    -0.1353    1.9042 
 H                     5.6852   -0.677    -1.4667 
 H                     4.3084    0.4032   -1.4567 
 H                     4.344    -2.3868   -0.1617 
 H                     2.9805   -1.2917   -0.1189 
 H                     2.8537   -1.3555   -2.622 
 H                     4.2094   -2.4539   -2.6682 
 H                     2.8839   -4.1114   -1.2929 
 H                     1.5139   -3.0395   -1.332 
 H                     2.8347   -4.3137   -3.7811 
 H                     1.393    -4.8998   -3.0032 
 H                     1.6559   -2.2042   -4.4329 
 H                     0.2577   -2.6805   -3.5132 
 H                    -0.1052   -4.6326   -5.0393 
 H                    -0.2126   -3.0884   -5.8334 
 H                     2.1587   -3.3636   -6.673 
 H                     2.2173   -4.9475   -5.9431 
 H                     1.6759   -5.133    -8.3593 
 H                     0.3135   -5.708    -7.4053 
 H                     0.2581   -4.1118   -8.1516 
 

 GradGradGradGradGradGradGradGradGradGradGradGradGradGradGradGradGradGrad
 Berny optimization.
 Initialization pass.
                           ----------------------------
                           !    Initial Parameters    !
                           ! (Angstroms and Degrees)  !
 --------------------------                            --------------------------
 ! Name  Definition              Value          Derivative Info.                !
 --------------------------------------------------------------------------------
 ! R1    R(1,2)                  1.3505         estimate D2E/DX2                !
 ! R2    R(1,13)                 0.9576         estimate D2E/DX2                !
 ! R3    R(2,3)                  1.5247         estimate D2E/DX2                !
 ! R4    R(2,12)                 1.222          estimate D2E/DX2                !
 ! R5    R(3,4)                  1.5455         estimate D2E/DX2                !
 ! R6    R(3,14)                 1.0897         estimate D2E/DX2                !
 ! R7    R(3,15)                 1.0903         estimate D2E/DX2                !
 ! R8    R(4,5)                  1.5387         estimate D2E/DX2                !
 ! R9    R(4,16)                 1.0927         estimate D2E/DX2                !
 ! R10   R(4,17)                 1.0927         estimate D2E/DX2                !
 ! R11   R(5,6)                  1.5409         estimate D2E/DX2                !
 ! R12   R(5,18)                 1.091          estimate D2E/DX2                !
 ! R13   R(5,19)                 1.0916         estimate D2E/DX2                !
 ! R14   R(6,7)                  1.5415         estimate D2E/DX2                !
 ! R15   R(6,20)                 1.0915         estimate D2E/DX2                !
 ! R16   R(6,21)                 1.0916         estimate D2E/DX2                !
 ! R17   R(7,8)                  1.5429         estimate D2E/DX2                !
 ! R18   R(7,22)                 1.0908         estimate D2E/DX2                !
 ! R19   R(7,23)                 1.0914         estimate D2E/DX2                !
 ! R20   R(8,9)                  1.5415         estimate D2E/DX2                !
 ! R21   R(8,24)                 1.0909         estimate D2E/DX2                !
 ! R22   R(8,25)                 1.0914         estimate D2E/DX2                !
 ! R23   R(9,10)                 1.5402         estimate D2E/DX2                !
 ! R24   R(9,26)                 1.0915         estimate D2E/DX2                !
 ! R25   R(9,27)                 1.0915         estimate D2E/DX2                !
 ! R26   R(10,11)                1.5352         estimate D2E/DX2                !
 ! R27   R(10,28)                1.0915         estimate D2E/DX2                !
 ! R28   R(10,29)                1.0908         estimate D2E/DX2                !
 ! R29   R(11,30)                1.0905         estimate D2E/DX2                !
 ! R30   R(11,31)                1.0907         estimate D2E/DX2                !
 ! R31   R(11,32)                1.0907         estimate D2E/DX2                !
 ! A1    A(2,1,13)             104.2021         estimate D2E/DX2                !
 ! A2    A(1,2,3)              112.5376         estimate D2E/DX2                !
 ! A3    A(1,2,12)             123.3664         estimate D2E/DX2                !
 ! A4    A(3,2,12)             124.0937         estimate D2E/DX2                !
 ! A5    A(2,3,4)              113.4086         estimate D2E/DX2                !
 ! A6    A(2,3,14)             107.8045         estimate D2E/DX2                !
 ! A7    A(2,3,15)             107.2932         estimate D2E/DX2                !
 ! A8    A(4,3,14)             111.0942         estimate D2E/DX2                !
 ! A9    A(4,3,15)             110.1616         estimate D2E/DX2                !
 ! A10   A(14,3,15)            106.7864         estimate D2E/DX2                !
 ! A11   A(3,4,5)              112.3107         estimate D2E/DX2                !
 ! A12   A(3,4,16)             109.8484         estimate D2E/DX2                !
 ! A13   A(3,4,17)             109.8688         estimate D2E/DX2                !
 ! A14   A(5,4,16)             109.1423         estimate D2E/DX2                !
 ! A15   A(5,4,17)             109.1355         estimate D2E/DX2                !
 ! A16   A(16,4,17)            106.3535         estimate D2E/DX2                !
 ! A17   A(4,5,6)              112.7295         estimate D2E/DX2                !
 ! A18   A(4,5,18)             109.1122         estimate D2E/DX2                !
 ! A19   A(4,5,19)             109.4642         estimate D2E/DX2                !
 ! A20   A(6,5,18)             109.7232         estimate D2E/DX2                !
 ! A21   A(6,5,19)             109.3924         estimate D2E/DX2                !
 ! A22   A(18,5,19)            106.209          estimate D2E/DX2                !
 ! A23   A(5,6,7)              114.1524         estimate D2E/DX2                !
 ! A24   A(5,6,20)             108.9728         estimate D2E/DX2                !
 ! A25   A(5,6,21)             109.7804         estimate D2E/DX2                !
 ! A26   A(7,6,20)             108.3949         estimate D2E/DX2                !
 ! A27   A(7,6,21)             109.4974         estimate D2E/DX2                !
 ! A28   A(20,6,21)            105.6888         estimate D2E/DX2                !
 ! A29   A(6,7,8)              114.1399         estimate D2E/DX2                !
 ! A30   A(6,7,22)             109.1666         estimate D2E/DX2                !
 ! A31   A(6,7,23)             108.4725         estimate D2E/DX2                !
 ! A32   A(8,7,22)             110.0552         estimate D2E/DX2                !
 ! A33   A(8,7,23)             108.9103         estimate D2E/DX2                !
 ! A34   A(22,7,23)            105.7469         estimate D2E/DX2                !
 ! A35   A(7,8,9)              114.1264         estimate D2E/DX2                !
 ! A36   A(7,8,24)             110.089          estimate D2E/DX2                !
 ! A37   A(7,8,25)             108.9471         estimate D2E/DX2                !
 ! A38   A(9,8,24)             109.127          estimate D2E/DX2                !
 ! A39   A(9,8,25)             108.4504         estimate D2E/DX2                !
 ! A40   A(24,8,25)            105.7524         estimate D2E/DX2                !
 ! A41   A(8,9,10)             114.1662         estimate D2E/DX2                !
 ! A42   A(8,9,26)             109.5414         estimate D2E/DX2                !
 ! A43   A(8,9,27)             108.4396         estimate D2E/DX2                !
 ! A44   A(10,9,26)            109.7447         estimate D2E/DX2                !
 ! A45   A(10,9,27)            108.918          estimate D2E/DX2                !
 ! A46   A(26,9,27)            105.6749         estimate D2E/DX2                !
 ! A47   A(9,10,11)            112.63           estimate D2E/DX2                !
 ! A48   A(9,10,28)            109.6821         estimate D2E/DX2                !
 ! A49   A(9,10,29)            110.0524         estimate D2E/DX2                !
 ! A50   A(11,10,28)           109.2173         estimate D2E/DX2                !
 ! A51   A(11,10,29)           108.862          estimate D2E/DX2                !
 ! A52   A(28,10,29)           106.1866         estimate D2E/DX2                !
 ! A53   A(10,11,30)           110.9902         estimate D2E/DX2                !
 ! A54   A(10,11,31)           111.3393         estimate D2E/DX2                !
 ! A55   A(10,11,32)           111.3745         estimate D2E/DX2                !
 ! A56   A(30,11,31)           107.5701         estimate D2E/DX2                !
 ! A57   A(30,11,32)           107.5525         estimate D2E/DX2                !
 ! A58   A(31,11,32)           107.8309         estimate D2E/DX2                !
 ! D1    D(13,1,2,3)           179.7977         estimate D2E/DX2                !
 ! D2    D(13,1,2,12)            0.3303         estimate D2E/DX2                !
 ! D3    D(1,2,3,4)             67.936          estimate D2E/DX2                !
 ! D4    D(1,2,3,14)           -55.4955         estimate D2E/DX2                !
 ! D5    D(1,2,3,15)          -170.1837         estimate D2E/DX2                !
 ! D6    D(12,2,3,4)          -112.6011         estimate D2E/DX2                !
 ! D7    D(12,2,3,14)          123.9673         estimate D2E/DX2                !
 ! D8    D(12,2,3,15)            9.2791         estimate D2E/DX2                !
 ! D9    D(2,3,4,5)            178.3007         estimate D2E/DX2                !
 ! D10   D(2,3,4,16)           -60.0336         estimate D2E/DX2                !
 ! D11   D(2,3,4,17)            56.6294         estimate D2E/DX2                !
 ! D12   D(14,3,4,5)           -60.09           estimate D2E/DX2                !
 ! D13   D(14,3,4,16)           61.5756         estimate D2E/DX2                !
 ! D14   D(14,3,4,17)          178.2386         estimate D2E/DX2                !
 ! D15   D(15,3,4,5)            58.0345         estimate D2E/DX2                !
 ! D16   D(15,3,4,16)          179.7001         estimate D2E/DX2                !
 ! D17   D(15,3,4,17)          -63.6369         estimate D2E/DX2                !
 ! D18   D(3,4,5,6)           -179.9659         estimate D2E/DX2                !
 ! D19   D(3,4,5,18)           -57.7983         estimate D2E/DX2                !
 ! D20   D(3,4,5,19)            58.0378         estimate D2E/DX2                !
 ! D21   D(16,4,5,6)            57.9663         estimate D2E/DX2                !
 ! D22   D(16,4,5,18)         -179.8661         estimate D2E/DX2                !
 ! D23   D(16,4,5,19)          -64.03           estimate D2E/DX2                !
 ! D24   D(17,4,5,6)           -57.877          estimate D2E/DX2                !
 ! D25   D(17,4,5,18)           64.2907         estimate D2E/DX2                !
 ! D26   D(17,4,5,19)         -179.8733         estimate D2E/DX2                !
 ! D27   D(4,5,6,7)           -176.3284         estimate D2E/DX2                !
 ! D28   D(4,5,6,20)           -55.0048         estimate D2E/DX2                !
 ! D29   D(4,5,6,21)            60.3054         estimate D2E/DX2                !
 ! D30   D(18,5,6,7)            61.8487         estimate D2E/DX2                !
 ! D31   D(18,5,6,20)         -176.8277         estimate D2E/DX2                !
 ! D32   D(18,5,6,21)          -61.5175         estimate D2E/DX2                !
 ! D33   D(19,5,6,7)           -54.2916         estimate D2E/DX2                !
 ! D34   D(19,5,6,20)           67.032          estimate D2E/DX2                !
 ! D35   D(19,5,6,21)         -177.6578         estimate D2E/DX2                !
 ! D36   D(5,6,7,8)            -65.961          estimate D2E/DX2                !
 ! D37   D(5,6,7,22)            57.6542         estimate D2E/DX2                !
 ! D38   D(5,6,7,23)           172.428          estimate D2E/DX2                !
 ! D39   D(20,6,7,8)           172.3963         estimate D2E/DX2                !
 ! D40   D(20,6,7,22)          -63.9885         estimate D2E/DX2                !
 ! D41   D(20,6,7,23)           50.7853         estimate D2E/DX2                !
 ! D42   D(21,6,7,8)            57.5581         estimate D2E/DX2                !
 ! D43   D(21,6,7,22)         -178.8267         estimate D2E/DX2                !
 ! D44   D(21,6,7,23)          -64.0529         estimate D2E/DX2                !
 ! D45   D(6,7,8,9)           -172.5906         estimate D2E/DX2                !
 ! D46   D(6,7,8,24)            64.3105         estimate D2E/DX2                !
 ! D47   D(6,7,8,25)           -51.232          estimate D2E/DX2                !
 ! D48   D(22,7,8,9)            64.2748         estimate D2E/DX2                !
 ! D49   D(22,7,8,24)          -58.824          estimate D2E/DX2                !
 ! D50   D(22,7,8,25)         -174.3666         estimate D2E/DX2                !
 ! D51   D(23,7,8,9)           -51.2214         estimate D2E/DX2                !
 ! D52   D(23,7,8,24)         -174.3202         estimate D2E/DX2                !
 ! D53   D(23,7,8,25)           70.1373         estimate D2E/DX2                !
 ! D54   D(7,8,9,10)           -65.9813         estimate D2E/DX2                !
 ! D55   D(7,8,9,26)            57.5349         estimate D2E/DX2                !
 ! D56   D(7,8,9,27)           172.4043         estimate D2E/DX2                !
 ! D57   D(24,8,9,10)           57.6381         estimate D2E/DX2                !
 ! D58   D(24,8,9,26)         -178.8457         estimate D2E/DX2                !
 ! D59   D(24,8,9,27)          -63.9763         estimate D2E/DX2                !
 ! D60   D(25,8,9,10)          172.3857         estimate D2E/DX2                !
 ! D61   D(25,8,9,26)          -64.0981         estimate D2E/DX2                !
 ! D62   D(25,8,9,27)           50.7712         estimate D2E/DX2                !
 ! D63   D(8,9,10,11)         -176.345          estimate D2E/DX2                !
 ! D64   D(8,9,10,28)          -54.4847         estimate D2E/DX2                !
 ! D65   D(8,9,10,29)           61.9854         estimate D2E/DX2                !
 ! D66   D(26,9,10,11)          60.2486         estimate D2E/DX2                !
 ! D67   D(26,9,10,28)        -177.8912         estimate D2E/DX2                !
 ! D68   D(26,9,10,29)         -61.421          estimate D2E/DX2                !
 ! D69   D(27,9,10,11)         -54.9946         estimate D2E/DX2                !
 ! D70   D(27,9,10,28)          66.8656         estimate D2E/DX2                !
 ! D71   D(27,9,10,29)        -176.6642         estimate D2E/DX2                !
 ! D72   D(9,10,11,30)        -179.8971         estimate D2E/DX2                !
 ! D73   D(9,10,11,31)         -60.0943         estimate D2E/DX2                !
 ! D74   D(9,10,11,32)          60.2989         estimate D2E/DX2                !
 ! D75   D(28,10,11,30)         57.98           estimate D2E/DX2                !
 ! D76   D(28,10,11,31)        177.7827         estimate D2E/DX2                !
 ! D77   D(28,10,11,32)        -61.824          estimate D2E/DX2                !
 ! D78   D(29,10,11,30)        -57.5546         estimate D2E/DX2                !
 ! D79   D(29,10,11,31)         62.2482         estimate D2E/DX2                !
 ! D80   D(29,10,11,32)       -177.3586         estimate D2E/DX2                !
 --------------------------------------------------------------------------------
 Trust Radius=3.00D-01 FncErr=1.00D-07 GrdErr=1.00D-06 EigMax=2.50D+02 EigMin=1.00D-04
 Number of steps in this run=    179 maximum allowed number of steps=    192.
 GradGradGradGradGradGradGradGradGradGradGradGradGradGradGradGradGradGrad

                          Input orientation:                          
 ---------------------------------------------------------------------
 Center     Atomic      Atomic             Coordinates (Angstroms)
 Number     Number       Type             X           Y           Z
 ---------------------------------------------------------------------
      1          8           0        6.081300   -0.625100    1.112000
      2          6           0        5.271900    0.208500    0.423600
      3          6           0        4.801400   -0.391800   -0.896600
      4          6           0        3.843200   -1.591300   -0.718800
      5          6           0        3.351500   -2.150700   -2.065200
      6          6           0        2.394500   -3.346900   -1.899100
      7          6           0        1.951800   -3.989800   -3.228400
      8          6           0        1.080400   -3.073900   -4.112900
      9          6           0        0.489300   -3.772700   -5.353300
     10          6           0        1.540500   -4.216700   -6.387700
     11          6           0        0.909100   -4.826800   -7.647000
     12          8           0        4.963800    1.323500    0.817500
     13          1           0        6.304000   -0.135300    1.904200
     14          1           0        5.685200   -0.677000   -1.466700
     15          1           0        4.308400    0.403200   -1.456700
     16          1           0        4.344000   -2.386800   -0.161700
     17          1           0        2.980500   -1.291700   -0.118900
     18          1           0        2.853700   -1.355500   -2.622000
     19          1           0        4.209400   -2.453900   -2.668200
     20          1           0        2.883900   -4.111400   -1.292900
     21          1           0        1.513900   -3.039500   -1.332000
     22          1           0        2.834700   -4.313700   -3.781100
     23          1           0        1.393000   -4.899800   -3.003200
     24          1           0        1.655900   -2.204200   -4.432900
     25          1           0        0.257700   -2.680500   -3.513200
     26          1           0       -0.105200   -4.632600   -5.039300
     27          1           0       -0.212600   -3.088400   -5.833400
     28          1           0        2.158700   -3.363600   -6.673000
     29          1           0        2.217300   -4.947500   -5.943100
     30          1           0        1.675900   -5.133000   -8.359300
     31          1           0        0.313500   -5.708000   -7.405300
     32          1           0        0.258100   -4.111800   -8.151600
 ---------------------------------------------------------------------
                    Distance matrix (angstroms):
                    1          2          3          4          5
     1  O    0.000000
     2  C    1.350523   0.000000
     3  C    2.393125   1.524683   0.000000
     4  C    3.048682   2.566231   1.545497   0.000000
     5  C    4.458011   3.930380   2.561555   1.538665   0.000000
     6  C    5.483376   5.129838   3.940912   2.563976   1.540887
     7  C    6.871175   6.479652   5.148118   3.953263   2.587370
     8  C    7.635784   6.994473   5.602150   4.620723   3.194256
     9  C    9.109224   8.490924   7.063064   6.122560   4.651309
    10  C    9.474384   8.938655   7.444159   6.658196   5.121727
    11  C   11.005727  10.465317   8.965887   8.190077   6.654571
    12  O    2.265519   1.222010   2.430384   3.480233   4.793698
    13  H    0.957643   1.837282   3.188743   3.880155   5.341838
    14  H    2.609460   2.127948   1.089704   2.188210   2.824208
    15  H    3.286152   2.121737   1.090315   2.176910   2.794340
    16  H    2.782824   2.817651   2.174699   1.092695   2.159655
    17  H    3.402122   2.792028   2.174929   1.092653   2.159538
    18  H    4.989353   4.191595   2.774754   2.157981   1.090951
    19  H    4.597655   4.216220   2.782317   2.162947   1.091573
    20  H    5.306713   5.225940   4.203485   2.756946   2.158574
    21  H    5.715208   5.268225   4.243530   2.810505   2.168945
    22  H    6.934595   6.638504   5.250671   4.219741   2.808908
    23  H    7.562281   7.272108   6.031336   4.708305   3.503301
    24  H    7.267987   6.517835   5.067976   4.353673   2.912718
    25  H    7.715663   6.999065   5.721010   4.674488   3.456731
    26  H    9.600590   9.066021   7.695523   6.595915   5.191712
    27  H    9.691213   8.949823   7.535505   6.697011   5.270808
    28  H    9.137417   8.533091   7.013006   6.436698   4.911794
    29  H    9.131707   8.743557   7.273179   6.418796   4.913920
    30  H   11.376917  10.890462   9.377613   8.695865   7.163619
    31  H   11.473787  10.994652   9.527140   8.609023   7.099331
    32  H   11.483946  10.832231   9.333542   8.628579   7.103471
                    6          7          8          9         10
     6  C    0.000000
     7  C    1.541539   0.000000
     8  C    2.588880   1.542903   0.000000
     9  C    3.967693   2.588675   1.541529   0.000000
    10  C    4.651172   3.194030   2.586967   1.540176   0.000000
    11  C    6.118404   4.616472   3.948654   2.558988   1.535163
    12  O    5.982797   7.326159   7.663339   9.169034   9.712245
    13  H    6.329586   7.755153   8.492753   9.985626  10.397325
    14  H    4.259582   5.293062   5.826808   7.189325   7.343314
    15  H    4.233436   5.290646   5.437426   6.870746   7.302021
    16  H    2.782247   4.206766   5.170607   6.613028   7.069033
    17  H    2.781430   4.243461   4.768506   6.305583   7.065910
    18  H    2.167746   2.849681   2.884489   4.346636   4.908305
    19  H    2.163984   2.787395   3.501742   4.773692   4.905626
    20  H    1.091536   2.151687   3.504485   4.726063   5.269990
    21  H    1.091583   2.165908   2.814695   4.214053   5.191012
    22  H    2.161111   1.090826   2.173652   2.874960   2.911825
    23  H    2.152565   1.091363   2.159413   2.758623   3.455897
    24  H    2.876010   2.174108   1.090861   2.160621   2.807974
    25  H    2.759587   2.159943   1.091439   2.152326   3.502604
    26  H    4.214544   2.814924   2.166428   1.091538   2.167829
    27  H    4.726786   3.504736   2.152250   1.091525   2.157236
    28  H    4.779749   3.507165   2.792986   2.166995   1.091488
    29  H    4.352845   2.890895   2.855267   2.171176   1.090778
    30  H    6.740973   5.263949   4.756724   3.506347   2.178335
    31  H    6.342207   4.804449   4.285617   2.826127   2.182891
    32  H    6.651544   5.207821   4.250237   2.828237   2.183322
                   11         12         13         14         15
    11  C    0.000000
    12  O   11.221165   0.000000
    13  H   11.930655   2.259458   0.000000
    14  H    8.844664   3.120895   3.469772   0.000000
    15  H    8.787944   2.539387   3.945637   1.750003   0.000000
    16  H    8.589636   3.887070   3.630261   2.534809   3.076100
    17  H    8.570876   3.413150   4.059045   3.083800   2.534899
    18  H    6.409526   4.843524   5.820648   3.132487   2.562636
    19  H    6.427370   5.194995   5.538059   2.603644   3.104924
    20  H    6.692251   6.190146   6.142304   4.435380   4.736839
    21  H    6.590861   5.963047   6.469345   4.795758   4.435872
    22  H    4.349298   7.580120   7.862424   5.167919   5.461115
    23  H    4.669515   8.128827   8.420271   6.214166   6.246041
    24  H    4.214995   7.138177   8.126747   5.231247   4.763618
    25  H    4.703108   7.545486   8.507879   6.136769   5.490589
    26  H    2.804749   9.770977  10.464977   7.870132   7.594351
    27  H    2.751253   9.512857  10.538374   7.724439   7.196264
    28  H    2.156648   9.270657  10.058518   6.838098   6.783788
    29  H    2.151565   9.621560  10.071668   7.092366   7.289065
    30  H    1.090464  11.692320  12.318106   9.134460   9.231763
    31  H    1.090721  11.776320  12.393864   9.456907   9.417634
    32  H    1.090709  11.494819  12.388889   9.270337   9.033927
                   16         17         18         19         20
    16  H    0.000000
    17  H    1.749345   0.000000
    18  H    3.055757   2.507122   0.000000
    19  H    2.511008   3.059385   1.745434   0.000000
    20  H    2.527004   3.055866   3.059805   2.528973   0.000000
    21  H    3.131307   2.584053   2.508988   3.064976   1.739942
    22  H    4.369323   4.750311   3.177235   2.566555   2.496895
    23  H    4.806006   4.884437   3.852404   3.745232   2.401975
    24  H    5.049988   4.604109   2.331175   3.113981   3.873628
    25  H    5.293077   4.567678   3.047799   4.047383   3.724800
    26  H    6.973520   6.700261   5.033668   5.383737   4.820983
    27  H    7.309106   6.788190   4.766364   5.474958   5.590258
    28  H    6.937341   6.922742   4.574505   4.590354   5.480018
    29  H    6.671179   6.918718   4.933272   4.572906   4.771559
    30  H    9.047708   9.184866   6.969457   6.781211   7.241335
    31  H    8.930008   8.927946   6.948153   6.943149   6.820375
    32  H    9.138310   8.938048   6.701552   6.959100   7.344154
                   21         22         23         24         25
    21  H    0.000000
    22  H    3.060423   0.000000
    23  H    2.503646   1.739868   0.000000
    24  H    3.214572   2.502879   3.062584   0.000000
    25  H    2.542549   3.062685   2.544464   1.740021   0.000000
    26  H    4.347819   3.213686   2.541988   3.060445   2.504271
    27  H    4.821389   3.872897   3.724131   2.496899   2.402268
    28  H    5.389535   3.118133   4.051375   2.571977   3.750302
    29  H    5.039591   2.336050   3.053647   3.181441   3.857944
    30  H    7.334298   4.793119   5.368633   4.898458   5.613442
    31  H    6.741426   4.629832   4.604019   4.786838   4.931259
    32  H    7.016680   5.077490   5.330569   4.406984   4.854212
                   26         27         28         29         30
    26  H    0.000000
    27  H    1.739737   0.000000
    28  H    3.066689   2.530559   0.000000
    29  H    2.511976   3.061487   1.744972   0.000000
    30  H    3.800673   3.758589   2.491481   2.483052   0.000000
    31  H    2.632442   3.099993   3.072009   2.518103   1.759794
    32  H    3.176418   2.577394   2.521575   3.068278   1.759587
                   31         32
    31  H    0.000000
    32  H    1.762920   0.000000
 Stoichiometry    C10H20O2
 Framework group  C1[X(C10H20O2)]
 Deg. of freedom    90
 Full point group                 C1      NOp   1
 Largest Abelian subgroup         C1      NOp   1
 Largest concise Abelian subgroup C1      NOp   1
                         Standard orientation:                         
 ---------------------------------------------------------------------
 Center     Atomic      Atomic             Coordinates (Angstroms)
 Number     Number       Type             X           Y           Z
 ---------------------------------------------------------------------
      1          8           0       -4.962525    0.327437   -0.968536
      2          6           0       -4.468481   -0.476158   -0.002064
      3          6           0       -2.982131   -0.763154   -0.183872
      4          6           0       -2.086370    0.477769    0.031262
      5          6           0       -0.590152    0.150921   -0.117034
      6          6           0        0.312118    1.381638    0.096462
      7          6           0        1.812397    1.111134   -0.132297
      8          6           0        2.441513    0.140751    0.889035
      9          6           0        3.973047    0.009530    0.772855
     10          6           0        4.452542   -0.639930   -0.538795
     11          6           0        5.974739   -0.834835   -0.579437
     12          8           0       -5.146952   -0.927699    0.908483
     13          1           0       -5.888132    0.424570   -0.742932
     14          1           0       -2.842698   -1.179334   -1.181273
     15          1           0       -2.714393   -1.547313    0.524787
     16          1           0       -2.355344    1.258126   -0.684753
     17          1           0       -2.264723    0.896828    1.024474
     18          1           0       -0.322677   -0.629887    0.596387
     19          1           0       -0.405511   -0.266197   -1.108725
     20          1           0       -0.002595    2.174762   -0.584244
     21          1           0        0.162775    1.779192    1.102047
     22          1           0        1.957887    0.733905   -1.145427
     23          1           0        2.345527    2.062526   -0.091082
     24          1           0        1.989861   -0.847675    0.794156
     25          1           0        2.199520    0.481560    1.897265
     26          1           0        4.433452    0.992565    0.887416
     27          1           0        4.333475   -0.584810    1.614447
     28          1           0        3.962934   -1.606464   -0.670864
     29          1           0        4.152491   -0.028165   -1.390564
     30          1           0        6.284809   -1.294009   -1.518654
     31          1           0        6.499326    0.117202   -0.489411
     32          1           0        6.314504   -1.481294    0.230685
 ---------------------------------------------------------------------
 Rotational constants (GHZ):           2.7760597           0.1995794           0.1969346
 Standard basis: 6-31G(d,p) (6D, 7F)
 There are   280 symmetry adapted cartesian basis functions of A   symmetry.
 There are   280 symmetry adapted basis functions of A   symmetry.
   280 basis functions,   476 primitive gaussians,   280 cartesian basis functions
    48 alpha electrons       48 beta electrons
       nuclear repulsion energy       679.6995257021 Hartrees.
 NAtoms=   32 NActive=   32 NUniq=   32 SFac= 1.00D+00 NAtFMM=   60 NAOKFM=F Big=F
 Integral buffers will be    131072 words long.
 Raffenetti 2 integral format.
 Two-electron integral symmetry is turned on.
 Nuclear repulsion after empirical dispersion term =      679.6535328810 Hartrees.
 One-electron integrals computed using PRISM.
 NBasis=   280 RedAO= T EigKep=  2.61D-03  NBF=   280
 NBsUse=   280 1.00D-06 EigRej= -1.00D+00 NBFU=   280
 ExpMin= 1.61D-01 ExpMax= 5.48D+03 ExpMxC= 8.25D+02 IAcc=3 IRadAn=         5 AccDes= 0.00D+00
 Harris functional with IExCor=  402 and IRadAn=       5 diagonalized for initial guess.
 HarFok:  IExCor=  402 AccDes= 0.00D+00 IRadAn=         5 IDoV= 1 UseB2=F ITyADJ=14
 ICtDFT=  3500011 ScaDFX=  1.000000  1.000000  1.000000  1.000000
 FoFCou: FMM=F IPFlag=           0 FMFlag=      100000 FMFlg1=           0
         NFxFlg=           0 DoJE=T BraDBF=F KetDBF=T FulRan=T
         wScrn=  0.000000 ICntrl=       500 IOpCl=  0 I1Cent=   200000004 NGrid=           0
         NMat0=    1 NMatS0=      1 NMatT0=    0 NMatD0=    1 NMtDS0=    0 NMtDT0=    0
 Petite list used in FoFCou.
 Requested convergence on RMS density matrix=1.00D-08 within 128 cycles.
 Requested convergence on MAX density matrix=1.00D-06.
 Requested convergence on             energy=1.00D-06.
 No special actions if energy rises.
 Integral accuracy reduced to 1.0D-05 until final iterations.
 Initial convergence to 1.0D-05 achieved.  Increase integral accuracy.
 SCF Done:  E(RB3LYP) =  -543.664812393     A.U. after   13 cycles
            NFock= 13  Conv=0.70D-08     -V/T= 2.0096

 **********************************************************************

            Population analysis using the SCF Density.

 **********************************************************************

 Orbital symmetries:
       Occupied  (A) (A) (A) (A) (A) (A) (A) (A) (A) (A) (A) (A)
                 (A) (A) (A) (A) (A) (A) (A) (A) (A) (A) (A) (A)
                 (A) (A) (A) (A) (A) (A) (A) (A) (A) (A) (A) (A)
                 (A) (A) (A) (A) (A) (A) (A) (A) (A) (A) (A) (A)
       Virtual   (A) (A) (A) (A) (A) (A) (A) (A) (A) (A) (A) (A)
                 (A) (A) (A) (A) (A) (A) (A) (A) (A) (A) (A) (A)
                 (A) (A) (A) (A) (A) (A) (A) (A) (A) (A) (A) (A)
                 (A) (A) (A) (A) (A) (A) (A) (A) (A) (A) (A) (A)
                 (A) (A) (A) (A) (A) (A) (A) (A) (A) (A) (A) (A)
                 (A) (A) (A) (A) (A) (A) (A) (A) (A) (A) (A) (A)
                 (A) (A) (A) (A) (A) (A) (A) (A) (A) (A) (A) (A)
                 (A) (A) (A) (A) (A) (A) (A) (A) (A) (A) (A) (A)
                 (A) (A) (A) (A) (A) (A) (A) (A) (A) (A) (A) (A)
                 (A) (A) (A) (A) (A) (A) (A) (A) (A) (A) (A) (A)
                 (A) (A) (A) (A) (A) (A) (A) (A) (A) (A) (A) (A)
                 (A) (A) (A) (A) (A) (A) (A) (A) (A) (A) (A) (A)
                 (A) (A) (A) (A) (A) (A) (A) (A) (A) (A) (A) (A)
                 (A) (A) (A) (A) (A) (A) (A) (A) (A) (A) (A) (A)
                 (A) (A) (A) (A) (A) (A) (A) (A) (A) (A) (A) (A)
                 (A) (A) (A) (A) (A) (A) (A) (A) (A) (A) (A) (A)
                 (A) (A) (A) (A) (A) (A) (A) (A) (A) (A) (A) (A)
                 (A) (A) (A) (A) (A) (A) (A) (A) (A) (A) (A) (A)
                 (A) (A) (A) (A) (A) (A) (A) (A) (A) (A) (A) (A)
                 (A) (A) (A) (A)
 The electronic state is 1-A.
 Alpha  occ. eigenvalues --  -19.19827 -19.13536 -10.31896 -10.19825 -10.19157
 Alpha  occ. eigenvalues --  -10.18292 -10.17997 -10.17747 -10.17688 -10.17616
 Alpha  occ. eigenvalues --  -10.17552 -10.17021  -1.10655  -1.00951  -0.81464
 Alpha  occ. eigenvalues --   -0.79671  -0.76824  -0.73000  -0.68943  -0.63794
 Alpha  occ. eigenvalues --   -0.61240  -0.59475  -0.58436  -0.55862  -0.49019
 Alpha  occ. eigenvalues --   -0.47810  -0.47347  -0.46279  -0.44849  -0.44293
 Alpha  occ. eigenvalues --   -0.43495  -0.41528  -0.40999  -0.40002  -0.39016
 Alpha  occ. eigenvalues --   -0.38611  -0.36907  -0.36239  -0.35228  -0.34592
 Alpha  occ. eigenvalues --   -0.33700  -0.33149  -0.32746  -0.31735  -0.31183
 Alpha  occ. eigenvalues --   -0.30855  -0.30681  -0.26699
 Alpha virt. eigenvalues --    0.00935   0.07856   0.08981   0.09819   0.11168
 Alpha virt. eigenvalues --    0.11506   0.11987   0.13163   0.13657   0.15272
 Alpha virt. eigenvalues --    0.15570   0.16624   0.17018   0.17104   0.18272
 Alpha virt. eigenvalues --    0.18423   0.19210   0.19519   0.20196   0.20738
 Alpha virt. eigenvalues --    0.21383   0.22063   0.23070   0.24445   0.25722
 Alpha virt. eigenvalues --    0.25814   0.26448   0.26603   0.28112   0.29842
 Alpha virt. eigenvalues --    0.33203   0.35765   0.47968   0.49397   0.50237
 Alpha virt. eigenvalues --    0.51533   0.53237   0.53672   0.54247   0.54733
 Alpha virt. eigenvalues --    0.55299   0.56806   0.58396   0.59105   0.60572
 Alpha virt. eigenvalues --    0.63334   0.63734   0.65347   0.66283   0.67565
 Alpha virt. eigenvalues --    0.68703   0.69658   0.70928   0.72606   0.73726
 Alpha virt. eigenvalues --    0.75381   0.77452   0.78533   0.79645   0.80147
 Alpha virt. eigenvalues --    0.83268   0.84388   0.85310   0.85724   0.86939
 Alpha virt. eigenvalues --    0.87273   0.88882   0.89416   0.89756   0.90342
 Alpha virt. eigenvalues --    0.90967   0.91197   0.91785   0.92250   0.92888
 Alpha virt. eigenvalues --    0.93906   0.94304   0.95014   0.95497   0.95902
 Alpha virt. eigenvalues --    0.97417   1.00075   1.00956   1.03238   1.04624
 Alpha virt. eigenvalues --    1.07032   1.09327   1.10844   1.12562   1.17789
 Alpha virt. eigenvalues --    1.22707   1.27816   1.30961   1.31459   1.34895
 Alpha virt. eigenvalues --    1.37441   1.38939   1.40219   1.42633   1.44073
 Alpha virt. eigenvalues --    1.47536   1.50344   1.53817   1.56428   1.58812
 Alpha virt. eigenvalues --    1.60620   1.62023   1.64020   1.65668   1.68151
 Alpha virt. eigenvalues --    1.69071   1.69569   1.70909   1.71264   1.73713
 Alpha virt. eigenvalues --    1.75850   1.77178   1.79066   1.81364   1.81953
 Alpha virt. eigenvalues --    1.83537   1.84861   1.86744   1.87923   1.88959
 Alpha virt. eigenvalues --    1.89394   1.90191   1.91327   1.92278   1.96280
 Alpha virt. eigenvalues --    2.00872   2.02611   2.04496   2.05653   2.07748
 Alpha virt. eigenvalues --    2.08014   2.11395   2.11740   2.12509   2.13563
 Alpha virt. eigenvalues --    2.15264   2.15465   2.17631   2.18324   2.19024
 Alpha virt. eigenvalues --    2.21379   2.23932   2.23986   2.25522   2.27100
 Alpha virt. eigenvalues --    2.28250   2.29882   2.30885   2.30997   2.33049
 Alpha virt. eigenvalues --    2.33743   2.34507   2.36811   2.38993   2.40859
 Alpha virt. eigenvalues --    2.42043   2.44231   2.46314   2.46763   2.49810
 Alpha virt. eigenvalues --    2.52090   2.55079   2.56497   2.57096   2.59067
 Alpha virt. eigenvalues --    2.60448   2.61749   2.62199   2.65453   2.69069
 Alpha virt. eigenvalues --    2.70547   2.71598   2.73102   2.75097   2.75320
 Alpha virt. eigenvalues --    2.76606   2.79145   2.80345   2.81451   2.83619
 Alpha virt. eigenvalues --    2.84884   2.85738   2.87535   2.88227   2.89867
 Alpha virt. eigenvalues --    2.90811   2.91418   2.91700   2.92165   2.92881
 Alpha virt. eigenvalues --    2.93036   2.93893   2.99133   3.02564   3.11490
 Alpha virt. eigenvalues --    3.19642   3.24255   3.27111   3.29008   3.31235
 Alpha virt. eigenvalues --    3.31998   3.34126   3.35223   3.35618   3.40064
 Alpha virt. eigenvalues --    3.40420   3.44605   3.45590   3.48162   3.49110
 Alpha virt. eigenvalues --    3.53168   3.56235   3.57873   3.59349   3.60457
 Alpha virt. eigenvalues --    3.92365   4.10982   4.24288   4.29165   4.34859
 Alpha virt. eigenvalues --    4.41041   4.49121   4.54070   4.61553   4.65716
 Alpha virt. eigenvalues --    4.71970   4.78331
          Condensed to atoms (all electrons):
               1          2          3          4          5          6
     1  O    8.120764   0.246939  -0.099256   0.002333   0.000017   0.000001
     2  C    0.246939   4.394068   0.336045  -0.023961   0.002538  -0.000091
     3  C   -0.099256   0.336045   5.098571   0.343467  -0.034018   0.003257
     4  C    0.002333  -0.023961   0.343467   4.905806   0.369170  -0.034220
     5  C    0.000017   0.002538  -0.034018   0.369170   4.902723   0.376839
     6  C    0.000001  -0.000091   0.003257  -0.034220   0.376839   4.910328
     7  C    0.000000   0.000001  -0.000122   0.003456  -0.037755   0.364577
     8  C   -0.000000   0.000000   0.000001   0.000157  -0.005045  -0.038323
     9  C    0.000000  -0.000000  -0.000000  -0.000002   0.000170   0.003614
    10  C   -0.000000   0.000000  -0.000000   0.000000  -0.000022   0.000183
    11  C    0.000000   0.000000  -0.000000  -0.000000   0.000000  -0.000002
    12  O   -0.083574   0.575712  -0.072613  -0.000810  -0.000050   0.000000
    13  H    0.268400  -0.009652   0.010755  -0.000161   0.000010  -0.000000
    14  H    0.002456  -0.024814   0.357130  -0.028489  -0.005849   0.000083
    15  H    0.003389  -0.031925   0.375748  -0.031658  -0.004132   0.000060
    16  H    0.004481  -0.004484  -0.038112   0.384882  -0.036359  -0.003742
    17  H   -0.000062  -0.000615  -0.042626   0.386633  -0.039639  -0.002947
    18  H   -0.000002   0.000004  -0.003407  -0.038842   0.384293  -0.038146
    19  H    0.000004   0.000055  -0.003272  -0.040367   0.383575  -0.039774
    20  H   -0.000001   0.000004   0.000073  -0.004447  -0.040943   0.377444
    21  H    0.000000   0.000001   0.000034  -0.004007  -0.039371   0.381094
    22  H   -0.000000   0.000000  -0.000001   0.000051  -0.007856  -0.037139
    23  H    0.000000  -0.000000   0.000001  -0.000136   0.004556  -0.031508
    24  H    0.000000  -0.000000   0.000005  -0.000075   0.002310  -0.003850
    25  H    0.000000  -0.000000   0.000000  -0.000031  -0.000975  -0.004007
    26  H    0.000000   0.000000   0.000000   0.000000   0.000003   0.000014
    27  H   -0.000000  -0.000000   0.000000  -0.000000   0.000002  -0.000147
    28  H    0.000000  -0.000000  -0.000000   0.000000  -0.000001  -0.000025
    29  H    0.000000  -0.000000   0.000000  -0.000000   0.000006  -0.000077
    30  H    0.000000  -0.000000   0.000000  -0.000000  -0.000000  -0.000000
    31  H    0.000000   0.000000  -0.000000   0.000000  -0.000000  -0.000000
    32  H    0.000000  -0.000000   0.000000   0.000000   0.000000   0.000000
               7          8          9         10         11         12
     1  O    0.000000  -0.000000   0.000000  -0.000000   0.000000  -0.083574
     2  C    0.000001   0.000000  -0.000000   0.000000   0.000000   0.575712
     3  C   -0.000122   0.000001  -0.000000  -0.000000  -0.000000  -0.072613
     4  C    0.003456   0.000157  -0.000002   0.000000  -0.000000  -0.000810
     5  C   -0.037755  -0.005045   0.000170  -0.000022   0.000000  -0.000050
     6  C    0.364577  -0.038323   0.003614   0.000183  -0.000002   0.000000
     7  C    4.908479   0.381925  -0.038161  -0.005088   0.000139  -0.000000
     8  C    0.381925   4.906305   0.368295  -0.039276   0.003938   0.000000
     9  C   -0.038161   0.368295   4.896188   0.387347  -0.042147   0.000000
    10  C   -0.005088  -0.039276   0.387347   4.866342   0.370120  -0.000000
    11  C    0.000139   0.003938  -0.042147   0.370120   4.917420  -0.000000
    12  O   -0.000000   0.000000   0.000000  -0.000000  -0.000000   8.032012
    13  H    0.000000   0.000000   0.000000   0.000000   0.000000   0.011464
    14  H   -0.000001   0.000000  -0.000000   0.000000  -0.000000   0.002258
    15  H    0.000001  -0.000002   0.000000   0.000000   0.000000   0.002112
    16  H    0.000023   0.000002   0.000000   0.000000   0.000000   0.000006
    17  H    0.000061  -0.000017  -0.000000  -0.000000   0.000000   0.001019
    18  H   -0.003989   0.002780  -0.000089   0.000006  -0.000000  -0.000001
    19  H   -0.003158  -0.000854  -0.000024  -0.000002   0.000000  -0.000000
    20  H   -0.031993   0.004584  -0.000145   0.000002  -0.000000   0.000000
    21  H   -0.037307  -0.007416   0.000014   0.000003   0.000000  -0.000000
    22  H    0.382223  -0.039491  -0.003775   0.002510  -0.000104  -0.000000
    23  H    0.377119  -0.041850  -0.004017  -0.000912  -0.000030   0.000000
    24  H   -0.039839   0.382002  -0.036975  -0.007709   0.000060   0.000000
    25  H   -0.042313   0.376943  -0.031797   0.004712  -0.000164   0.000000
    26  H   -0.007679  -0.037629   0.380982  -0.040462  -0.003117   0.000000
    27  H    0.004640  -0.032061   0.377666  -0.041301  -0.004162   0.000000
    28  H   -0.000868  -0.003364  -0.040841   0.386274  -0.038494   0.000000
    29  H    0.002701  -0.004129  -0.039135   0.387588  -0.037885   0.000000
    30  H    0.000002  -0.000160   0.004173  -0.027637   0.379196   0.000000
    31  H   -0.000019   0.000081  -0.004699  -0.034741   0.387463   0.000000
    32  H    0.000003   0.000011  -0.004922  -0.034713   0.387192   0.000000
              13         14         15         16         17         18
     1  O    0.268400   0.002456   0.003389   0.004481  -0.000062  -0.000002
     2  C   -0.009652  -0.024814  -0.031925  -0.004484  -0.000615   0.000004
     3  C    0.010755   0.357130   0.375748  -0.038112  -0.042626  -0.003407
     4  C   -0.000161  -0.028489  -0.031658   0.384882   0.386633  -0.038842
     5  C    0.000010  -0.005849  -0.004132  -0.036359  -0.039639   0.384293
     6  C   -0.000000   0.000083   0.000060  -0.003742  -0.002947  -0.038146
     7  C    0.000000  -0.000001   0.000001   0.000023   0.000061  -0.003989
     8  C    0.000000   0.000000  -0.000002   0.000002  -0.000017   0.002780
     9  C    0.000000  -0.000000   0.000000   0.000000  -0.000000  -0.000089
    10  C    0.000000   0.000000   0.000000   0.000000  -0.000000   0.000006
    11  C    0.000000  -0.000000   0.000000   0.000000   0.000000  -0.000000
    12  O    0.011464   0.002258   0.002112   0.000006   0.001019  -0.000001
    13  H    0.401812  -0.000508  -0.000342  -0.000151  -0.000080   0.000000
    14  H   -0.000508   0.603591  -0.033407  -0.005187   0.005655  -0.000554
    15  H   -0.000342  -0.033407   0.586944   0.005243  -0.004904   0.004722
    16  H   -0.000151  -0.005187   0.005243   0.614248  -0.038974   0.005764
    17  H   -0.000080   0.005655  -0.004904  -0.038974   0.625288  -0.005896
    18  H    0.000000  -0.000554   0.004722   0.005764  -0.005896   0.633690
    19  H   -0.000000   0.004487  -0.000480  -0.005786   0.005895  -0.041719
    20  H    0.000000   0.000002   0.000007   0.005272  -0.000564   0.006068
    21  H    0.000000   0.000004   0.000002  -0.000501   0.004585  -0.006047
    22  H    0.000000  -0.000001   0.000000   0.000003   0.000008  -0.000165
    23  H   -0.000000   0.000000   0.000000  -0.000006   0.000004  -0.000033
    24  H   -0.000000   0.000001  -0.000003  -0.000002   0.000010   0.001800
    25  H   -0.000000  -0.000000   0.000000   0.000001   0.000001   0.000589
    26  H   -0.000000  -0.000000  -0.000000  -0.000000   0.000000  -0.000001
    27  H   -0.000000   0.000000  -0.000000   0.000000   0.000000   0.000007
    28  H   -0.000000  -0.000000  -0.000000  -0.000000   0.000000  -0.000005
    29  H   -0.000000   0.000000  -0.000000   0.000000  -0.000000   0.000002
    30  H   -0.000000   0.000000  -0.000000  -0.000000   0.000000   0.000000
    31  H    0.000000  -0.000000  -0.000000  -0.000000  -0.000000  -0.000000
    32  H   -0.000000   0.000000  -0.000000  -0.000000  -0.000000   0.000000
              19         20         21         22         23         24
     1  O    0.000004  -0.000001   0.000000  -0.000000   0.000000   0.000000
     2  C    0.000055   0.000004   0.000001   0.000000  -0.000000  -0.000000
     3  C   -0.003272   0.000073   0.000034  -0.000001   0.000001   0.000005
     4  C   -0.040367  -0.004447  -0.004007   0.000051  -0.000136  -0.000075
     5  C    0.383575  -0.040943  -0.039371  -0.007856   0.004556   0.002310
     6  C   -0.039774   0.377444   0.381094  -0.037139  -0.031508  -0.003850
     7  C   -0.003158  -0.031993  -0.037307   0.382223   0.377119  -0.039839
     8  C   -0.000854   0.004584  -0.007416  -0.039491  -0.041850   0.382002
     9  C   -0.000024  -0.000145   0.000014  -0.003775  -0.004017  -0.036975
    10  C   -0.000002   0.000002   0.000003   0.002510  -0.000912  -0.007709
    11  C    0.000000  -0.000000   0.000000  -0.000104  -0.000030   0.000060
    12  O   -0.000000   0.000000  -0.000000  -0.000000   0.000000   0.000000
    13  H   -0.000000   0.000000   0.000000   0.000000  -0.000000  -0.000000
    14  H    0.004487   0.000002   0.000004  -0.000001   0.000000   0.000001
    15  H   -0.000480   0.000007   0.000002   0.000000   0.000000  -0.000003
    16  H   -0.005786   0.005272  -0.000501   0.000003  -0.000006  -0.000002
    17  H    0.005895  -0.000564   0.004585   0.000008   0.000004   0.000010
    18  H   -0.041719   0.006068  -0.006047  -0.000165  -0.000033   0.001800
    19  H    0.641932  -0.005391   0.006047   0.005587   0.000049   0.000507
    20  H   -0.005391   0.649353  -0.040496  -0.003053  -0.004601  -0.000068
    21  H    0.006047  -0.040496   0.642883   0.005982  -0.003129  -0.000179
    22  H    0.005587  -0.003053   0.005982   0.640695  -0.040686  -0.006367
    23  H    0.000049  -0.004601  -0.003129  -0.040686   0.649155   0.006137
    24  H    0.000507  -0.000068  -0.000179  -0.006367   0.006137   0.642709
    25  H    0.000093   0.000074   0.005972   0.006145  -0.004789  -0.041056
    26  H    0.000001  -0.000009   0.000003  -0.000179   0.005991   0.006050
    27  H   -0.000000   0.000003  -0.000009  -0.000061   0.000066  -0.003141
    28  H    0.000007  -0.000000   0.000001   0.000484   0.000093   0.005720
    29  H   -0.000005   0.000007  -0.000001   0.001830   0.000555  -0.000198
    30  H    0.000000   0.000000   0.000000   0.000006   0.000000  -0.000001
    31  H    0.000000   0.000000   0.000000   0.000009   0.000001   0.000009
    32  H   -0.000000   0.000000  -0.000000  -0.000000   0.000000  -0.000000
              25         26         27         28         29         30
     1  O    0.000000   0.000000  -0.000000   0.000000   0.000000   0.000000
     2  C   -0.000000   0.000000  -0.000000  -0.000000  -0.000000  -0.000000
     3  C    0.000000   0.000000   0.000000  -0.000000   0.000000   0.000000
     4  C   -0.000031   0.000000  -0.000000   0.000000  -0.000000  -0.000000
     5  C   -0.000975   0.000003   0.000002  -0.000001   0.000006  -0.000000
     6  C   -0.004007   0.000014  -0.000147  -0.000025  -0.000077  -0.000000
     7  C   -0.042313  -0.007679   0.004640  -0.000868   0.002701   0.000002
     8  C    0.376943  -0.037629  -0.032061  -0.003364  -0.004129  -0.000160
     9  C   -0.031797   0.380982   0.377666  -0.040841  -0.039135   0.004173
    10  C    0.004712  -0.040462  -0.041301   0.386274   0.387588  -0.027637
    11  C   -0.000164  -0.003117  -0.004162  -0.038494  -0.037885   0.379196
    12  O    0.000000   0.000000   0.000000   0.000000   0.000000   0.000000
    13  H   -0.000000  -0.000000  -0.000000  -0.000000  -0.000000  -0.000000
    14  H   -0.000000  -0.000000   0.000000  -0.000000   0.000000   0.000000
    15  H    0.000000  -0.000000  -0.000000  -0.000000  -0.000000  -0.000000
    16  H    0.000001  -0.000000   0.000000  -0.000000   0.000000  -0.000000
    17  H    0.000001   0.000000   0.000000   0.000000  -0.000000   0.000000
    18  H    0.000589  -0.000001   0.000007  -0.000005   0.000002   0.000000
    19  H    0.000093   0.000001  -0.000000   0.000007  -0.000005   0.000000
    20  H    0.000074  -0.000009   0.000003  -0.000000   0.000007   0.000000
    21  H    0.005972   0.000003  -0.000009   0.000001  -0.000001   0.000000
    22  H    0.006145  -0.000179  -0.000061   0.000484   0.001830   0.000006
    23  H   -0.004789   0.005991   0.000066   0.000093   0.000555   0.000000
    24  H   -0.041056   0.006050  -0.003141   0.005720  -0.000198  -0.000001
    25  H    0.651692  -0.003135  -0.004644   0.000044  -0.000043   0.000003
    26  H   -0.003135   0.647479  -0.041010   0.006152  -0.006194  -0.000044
    27  H   -0.004644  -0.041010   0.651871  -0.005498   0.006154   0.000010
    28  H    0.000044   0.006152  -0.005498   0.643163  -0.041573  -0.003112
    29  H   -0.000043  -0.006194   0.006154  -0.041573   0.636869  -0.003044
    30  H    0.000003  -0.000044   0.000010  -0.003112  -0.003044   0.617004
    31  H    0.000003   0.004609  -0.000489   0.005501  -0.005049  -0.032550
    32  H   -0.000006  -0.000455   0.005192  -0.005036   0.005420  -0.032622
              31         32
     1  O    0.000000   0.000000
     2  C    0.000000  -0.000000
     3  C   -0.000000   0.000000
     4  C    0.000000   0.000000
     5  C   -0.000000   0.000000
     6  C   -0.000000   0.000000
     7  C   -0.000019   0.000003
     8  C    0.000081   0.000011
     9  C   -0.004699  -0.004922
    10  C   -0.034741  -0.034713
    11  C    0.387463   0.387192
    12  O    0.000000   0.000000
    13  H    0.000000  -0.000000
    14  H   -0.000000   0.000000
    15  H   -0.000000  -0.000000
    16  H   -0.000000  -0.000000
    17  H   -0.000000  -0.000000
    18  H   -0.000000   0.000000
    19  H    0.000000  -0.000000
    20  H    0.000000   0.000000
    21  H    0.000000  -0.000000
    22  H    0.000009  -0.000000
    23  H    0.000001   0.000000
    24  H    0.000009  -0.000000
    25  H    0.000003  -0.000006
    26  H    0.004609  -0.000455
    27  H   -0.000489   0.005192
    28  H    0.005501  -0.005036
    29  H   -0.005049   0.005420
    30  H   -0.032550  -0.032622
    31  H    0.611025  -0.033682
    32  H   -0.033682   0.611192
 Mulliken charges:
               1
     1  O   -0.465887
     2  C    0.540175
     3  C   -0.231661
     4  C   -0.188751
     5  C   -0.174197
     6  C   -0.183498
     7  C   -0.177059
     8  C   -0.177407
     9  C   -0.171721
    10  C   -0.173225
    11  C   -0.319425
    12  O   -0.467534
    13  H    0.318453
    14  H    0.123143
    15  H    0.128624
    16  H    0.113381
    17  H    0.107165
    18  H    0.099170
    19  H    0.092594
    20  H    0.088817
    21  H    0.091838
    22  H    0.093346
    23  H    0.087968
    24  H    0.092145
    25  H    0.086688
    26  H    0.088630
    27  H    0.086913
    28  H    0.091381
    29  H    0.096202
    30  H    0.098777
    31  H    0.102528
    32  H    0.102425
 Sum of Mulliken charges =  -0.00000
 Mulliken charges with hydrogens summed into heavy atoms:
               1
     1  O   -0.147433
     2  C    0.540175
     3  C    0.020107
     4  C    0.031795
     5  C    0.017567
     6  C   -0.002842
     7  C    0.004255
     8  C    0.001426
     9  C    0.003822
    10  C    0.014357
    11  C   -0.015695
    12  O   -0.467534
 Electronic spatial extent (au):  <R**2>=           5467.1902
 Charge=             -0.0000 electrons
 Dipole moment (field-independent basis, Debye):
    X=              1.0893    Y=              0.8666    Z=             -1.2294  Tot=              1.8572
 Quadrupole moment (field-independent basis, Debye-Ang):
   XX=            -80.9105   YY=            -76.5304   ZZ=            -78.4440
   XY=             -5.9469   XZ=              7.7666   YZ=              2.2347
 Traceless Quadrupole moment (field-independent basis, Debye-Ang):
   XX=             -2.2822   YY=              2.0979   ZZ=              0.1843
   XY=             -5.9469   XZ=              7.7666   YZ=              2.2347
 Octapole moment (field-independent basis, Debye-Ang**2):
  XXX=            -56.4463  YYY=             -1.4753  ZZZ=             -1.4972  XYY=             -9.2117
  XXY=             41.3072  XXZ=            -47.8122  XZZ=             -1.6945  YZZ=              0.2645
  YYZ=             -2.0537  XYZ=            -11.2472
 Hexadecapole moment (field-independent basis, Debye-Ang**3):
 XXXX=          -6243.7327 YYYY=           -398.1612 ZZZZ=           -291.6550 XXXY=           -230.3076
 XXXZ=            303.3301 YYYX=              7.0549 YYYZ=             -4.1852 ZZZX=              4.7749
 ZZZY=             -0.1555 XXYY=          -1150.8136 XXZZ=          -1174.6015 YYZZ=           -114.1827
 XXYZ=             47.9139 YYXZ=             13.5515 ZZXY=             -6.6454
 N-N= 6.796535328810D+02 E-N=-2.622486810032D+03  KE= 5.385029076947D+02
 Calling FoFJK, ICntrl=      2127 FMM=F ISym2X=0 I1Cent= 0 IOpClX= 0 NMat=1 NMatS=1 NMatT=0.
 ***** Axes restored to original set *****
 -------------------------------------------------------------------
 Center     Atomic                   Forces (Hartrees/Bohr)
 Number     Number              X              Y              Z
 -------------------------------------------------------------------
      1        8          -0.004114112   -0.004242492   -0.009033509
      2        6          -0.012654127    0.014706430   -0.012536333
      3        6          -0.002678146    0.000963922    0.007628364
      4        6           0.003454929   -0.001274945   -0.006008600
      5        6          -0.004018313   -0.002135427    0.006997881
      6        6           0.004213842    0.001373126   -0.007189007
      7        6          -0.003146473    0.008012316    0.001568572
      8        6           0.000907090   -0.008393638   -0.000622135
      9        6           0.009251839    0.003492908    0.000618166
     10        6          -0.008849054   -0.002348400   -0.000752006
     11        6           0.003627954    0.001683798    0.003201975
     12        8           0.006882224   -0.016492016   -0.000009928
     13        1           0.005470108    0.005189407    0.014460119
     14        1           0.002962891   -0.004945566   -0.001560864
     15        1          -0.001465101    0.001975429    0.001298196
     16        1           0.002095304   -0.000723655    0.001510979
     17        1          -0.001497296    0.002506196    0.001523083
     18        1          -0.001778606    0.002996424   -0.001865949
     19        1           0.003579807   -0.001740805   -0.002162051
     20        1           0.002830292   -0.002372709    0.002312501
     21        1          -0.003663718    0.002473166    0.001489304
     22        1           0.003677055   -0.000290278   -0.002183837
     23        1          -0.003140149   -0.003120523    0.000596056
     24        1           0.002921374    0.002741537   -0.001741982
     25        1          -0.002953760    0.000901459    0.003447577
     26        1          -0.001304412   -0.004385300    0.001455584
     27        1          -0.002114228    0.002719793   -0.002713680
     28        1           0.001800258    0.004017413   -0.000107272
     29        1           0.002136693   -0.002258441    0.002254795
     30        1           0.001854266   -0.000997836   -0.002117383
     31        1          -0.002037105   -0.002203150    0.001105076
     32        1          -0.002251326    0.002171855   -0.000863694
 -------------------------------------------------------------------
 Cartesian Forces:  Max     0.016492016 RMS     0.004757297

 GradGradGradGradGradGradGradGradGradGradGradGradGradGradGradGradGradGrad
 Berny optimization.
 FormGI is forming the generalized inverse of G from B-inverse, IUseBI=4.
 Internal  Forces:  Max     0.016786131 RMS     0.002706726
 Search for a local minimum.
 Step number   1 out of a maximum of  179
 All quantities printed in internal units (Hartrees-Bohrs-Radians)
 Mixed Optimization -- RFO/linear search
 Second derivative matrix not updated -- first step.
 ITU=  0
     Eigenvalues ---    0.00230   0.00230   0.00230   0.00230   0.00230
     Eigenvalues ---    0.00235   0.00254   0.00301   0.00439   0.00910
     Eigenvalues ---    0.02346   0.03254   0.03254   0.03257   0.03259
     Eigenvalues ---    0.03412   0.03440   0.03454   0.03888   0.04688
     Eigenvalues ---    0.04689   0.04689   0.04689   0.04733   0.04743
     Eigenvalues ---    0.04750   0.05177   0.05408   0.05464   0.08231
     Eigenvalues ---    0.08302   0.08303   0.08544   0.08546   0.08550
     Eigenvalues ---    0.08554   0.09538   0.12141   0.12190   0.12195
     Eigenvalues ---    0.12372   0.12374   0.12377   0.12380   0.12896
     Eigenvalues ---    0.16000   0.16000   0.16000   0.16000   0.21889
     Eigenvalues ---    0.21890   0.21894   0.21907   0.21907   0.21909
     Eigenvalues ---    0.21909   0.21954   0.24999   0.25000   0.28038
     Eigenvalues ---    0.28263   0.28383   0.28384   0.28441   0.28503
     Eigenvalues ---    0.28638   0.28952   0.29920   0.34503   0.34508
     Eigenvalues ---    0.34630   0.34631   0.34636   0.34636   0.34637
     Eigenvalues ---    0.34641   0.34647   0.34656   0.34703   0.34713
     Eigenvalues ---    0.34717   0.34723   0.34729   0.34731   0.34759
     Eigenvalues ---    0.34776   0.34847   0.54910   0.55983   0.94498
 RFO step:  Lambda=-3.91100111D-03 EMin= 2.30000000D-03
 Linear search not attempted -- first point.
 Iteration  1 RMS(Cart)=  0.03794711 RMS(Int)=  0.00061732
 Iteration  2 RMS(Cart)=  0.00090283 RMS(Int)=  0.00023105
 Iteration  3 RMS(Cart)=  0.00000066 RMS(Int)=  0.00023104
 Variable       Old X    -DE/DX   Delta X   Delta X   Delta X     New X
                                 (Linear)    (Quad)   (Total)
    R1        2.55212   0.00299   0.00000   0.00541   0.00541   2.55753
    R2        1.80968   0.01589   0.00000   0.02818   0.02818   1.83787
    R3        2.88123  -0.00786   0.00000  -0.02592  -0.02592   2.85531
    R4        2.30926  -0.01679   0.00000  -0.01769  -0.01769   2.29157
    R5        2.92057  -0.00571   0.00000  -0.02007  -0.02007   2.90049
    R6        2.05924   0.00451   0.00000   0.01281   0.01281   2.07205
    R7        2.06040   0.00144   0.00000   0.00408   0.00408   2.06448
    R8        2.90766  -0.00373   0.00000  -0.01285  -0.01285   2.89481
    R9        2.06489   0.00226   0.00000   0.00647   0.00647   2.07136
   R10        2.06482   0.00271   0.00000   0.00775   0.00775   2.07257
   R11        2.91185  -0.00486   0.00000  -0.01686  -0.01686   2.89500
   R12        2.06160   0.00395   0.00000   0.01125   0.01125   2.07285
   R13        2.06277   0.00449   0.00000   0.01282   0.01282   2.07560
   R14        2.91309  -0.00355   0.00000  -0.01233  -0.01233   2.90075
   R15        2.06270   0.00422   0.00000   0.01203   0.01203   2.07474
   R16        2.06279   0.00443   0.00000   0.01264   0.01264   2.07543
   R17        2.91566  -0.00520   0.00000  -0.01815  -0.01815   2.89752
   R18        2.06136   0.00417   0.00000   0.01187   0.01187   2.07324
   R19        2.06238   0.00433   0.00000   0.01236   0.01236   2.07474
   R20        2.91307  -0.00334   0.00000  -0.01162  -0.01162   2.90145
   R21        2.06143   0.00424   0.00000   0.01207   0.01207   2.07350
   R22        2.06252   0.00445   0.00000   0.01269   0.01269   2.07521
   R23        2.91051  -0.00438   0.00000  -0.01517  -0.01517   2.89534
   R24        2.06271   0.00458   0.00000   0.01309   0.01309   2.07579
   R25        2.06268   0.00426   0.00000   0.01216   0.01216   2.07484
   R26        2.90104  -0.00184   0.00000  -0.00627  -0.00627   2.89477
   R27        2.06261   0.00419   0.00000   0.01195   0.01195   2.07457
   R28        2.06127   0.00376   0.00000   0.01070   0.01070   2.07197
   R29        2.06068   0.00297   0.00000   0.00844   0.00844   2.06912
   R30        2.06116   0.00314   0.00000   0.00893   0.00893   2.07010
   R31        2.06114   0.00317   0.00000   0.00902   0.00902   2.07016
    A1        1.81867   0.00662   0.00000   0.04041   0.04041   1.85908
    A2        1.96415  -0.00109   0.00000  -0.00404  -0.00526   1.95889
    A3        2.15315  -0.00646   0.00000  -0.02520  -0.02636   2.12679
    A4        2.16584   0.00756   0.00000   0.03002   0.02872   2.19457
    A5        1.97935  -0.00187   0.00000  -0.01392  -0.01407   1.96528
    A6        1.88154   0.00236   0.00000   0.00963   0.00922   1.89077
    A7        1.87262  -0.00064   0.00000  -0.00464  -0.00461   1.86801
    A8        1.93896  -0.00269   0.00000  -0.02719  -0.02724   1.91172
    A9        1.92268   0.00170   0.00000   0.01295   0.01302   1.93570
   A10        1.86377   0.00140   0.00000   0.02627   0.02636   1.89014
   A11        1.96019  -0.00030   0.00000  -0.00288  -0.00287   1.95732
   A12        1.91722  -0.00064   0.00000  -0.00688  -0.00687   1.91035
   A13        1.91757  -0.00113   0.00000  -0.01533  -0.01533   1.90224
   A14        1.90489   0.00089   0.00000   0.01167   0.01164   1.91653
   A15        1.90477   0.00089   0.00000   0.00710   0.00701   1.91179
   A16        1.85622   0.00035   0.00000   0.00711   0.00695   1.86317
   A17        1.96750  -0.00048   0.00000  -0.00310  -0.00310   1.96440
   A18        1.90437   0.00004   0.00000   0.00092   0.00092   1.90529
   A19        1.91051   0.00016   0.00000  -0.00103  -0.00105   1.90946
   A20        1.91503   0.00032   0.00000   0.00320   0.00320   1.91823
   A21        1.90926  -0.00012   0.00000  -0.00327  -0.00327   1.90598
   A22        1.85370   0.00011   0.00000   0.00369   0.00369   1.85739
   A23        1.99233  -0.00034   0.00000  -0.00393  -0.00398   1.98836
   A24        1.90193  -0.00039   0.00000  -0.00129  -0.00127   1.90066
   A25        1.91603  -0.00048   0.00000  -0.01054  -0.01059   1.90543
   A26        1.89185   0.00078   0.00000   0.01068   0.01069   1.90253
   A27        1.91109   0.00002   0.00000  -0.00393  -0.00402   1.90707
   A28        1.84462   0.00049   0.00000   0.01048   0.01048   1.85510
   A29        1.99212  -0.00042   0.00000  -0.00400  -0.00402   1.98810
   A30        1.90532  -0.00017   0.00000  -0.00408  -0.00412   1.90119
   A31        1.89320   0.00070   0.00000   0.00741   0.00741   1.90061
   A32        1.92083  -0.00001   0.00000  -0.00426  -0.00430   1.91653
   A33        1.90084  -0.00043   0.00000  -0.00298  -0.00297   1.89788
   A34        1.84563   0.00041   0.00000   0.00916   0.00916   1.85479
   A35        1.99188  -0.00056   0.00000  -0.00461  -0.00463   1.98725
   A36        1.92142   0.00004   0.00000  -0.00501  -0.00505   1.91636
   A37        1.90149  -0.00061   0.00000  -0.00428  -0.00426   1.89722
   A38        1.90463  -0.00019   0.00000  -0.00464  -0.00469   1.89993
   A39        1.89282   0.00102   0.00000   0.01081   0.01081   1.90363
   A40        1.84573   0.00038   0.00000   0.00907   0.00907   1.85479
   A41        1.99258   0.00060   0.00000   0.00072   0.00069   1.99326
   A42        1.91186  -0.00027   0.00000  -0.00472  -0.00477   1.90709
   A43        1.89263   0.00043   0.00000   0.00869   0.00869   1.90132
   A44        1.91541  -0.00074   0.00000  -0.01096  -0.01099   1.90442
   A45        1.90098  -0.00063   0.00000  -0.00228  -0.00229   1.89869
   A46        1.84437   0.00062   0.00000   0.00958   0.00958   1.85396
   A47        1.96576   0.00039   0.00000   0.00144   0.00145   1.96722
   A48        1.91431  -0.00107   0.00000  -0.01164  -0.01164   1.90267
   A49        1.92078  -0.00047   0.00000  -0.00433  -0.00434   1.91643
   A50        1.90620   0.00063   0.00000   0.00624   0.00623   1.91243
   A51        1.90000   0.00030   0.00000   0.00616   0.00616   1.90616
   A52        1.85331   0.00022   0.00000   0.00236   0.00229   1.85560
   A53        1.93714   0.00085   0.00000   0.00765   0.00766   1.94480
   A54        1.94324  -0.00060   0.00000  -0.00505  -0.00507   1.93817
   A55        1.94385  -0.00067   0.00000  -0.00520  -0.00522   1.93863
   A56        1.87745   0.00011   0.00000   0.00283   0.00284   1.88029
   A57        1.87715   0.00020   0.00000   0.00378   0.00379   1.88093
   A58        1.88200   0.00014   0.00000  -0.00377  -0.00382   1.87819
    D1        3.13806   0.00092   0.00000   0.05582   0.05455  -3.09058
    D2        0.00577  -0.00032   0.00000  -0.03390  -0.03263  -0.02686
    D3        1.18571  -0.00188   0.00000  -0.07622  -0.07666   1.10905
    D4       -0.96858   0.00109   0.00000  -0.03913  -0.03943  -1.00801
    D5       -2.97027  -0.00137   0.00000  -0.07199  -0.07237  -3.04263
    D6       -1.96526  -0.00072   0.00000   0.01392   0.01422  -1.95104
    D7        2.16364   0.00224   0.00000   0.05101   0.05146   2.21509
    D8        0.16195  -0.00022   0.00000   0.01814   0.01851   0.18046
    D9        3.11193  -0.00028   0.00000   0.00576   0.00563   3.11757
   D10       -1.04778   0.00020   0.00000   0.01384   0.01369  -1.03410
   D11        0.98837  -0.00042   0.00000   0.00946   0.00932   0.99769
   D12       -1.04877  -0.00055   0.00000  -0.01196  -0.01178  -1.06055
   D13        1.07470  -0.00006   0.00000  -0.00387  -0.00373   1.07097
   D14        3.11085  -0.00068   0.00000  -0.00825  -0.00809   3.10276
   D15        1.01289   0.00058   0.00000   0.01188   0.01188   1.02477
   D16        3.13636   0.00107   0.00000   0.01997   0.01993  -3.12689
   D17       -1.11067   0.00045   0.00000   0.01559   0.01557  -1.09511
   D18       -3.14100   0.00007   0.00000   0.00450   0.00451  -3.13649
   D19       -1.00877   0.00019   0.00000   0.00715   0.00716  -1.00161
   D20        1.01295   0.00043   0.00000   0.01151   0.01152   1.02447
   D21        1.01170   0.00045   0.00000   0.00696   0.00700   1.01870
   D22       -3.13926   0.00057   0.00000   0.00962   0.00965  -3.12960
   D23       -1.11753   0.00081   0.00000   0.01398   0.01401  -1.10352
   D24       -1.01014  -0.00094   0.00000  -0.01192  -0.01196  -1.02210
   D25        1.12208  -0.00082   0.00000  -0.00926  -0.00931   1.11278
   D26       -3.13938  -0.00058   0.00000  -0.00490  -0.00495   3.13886
   D27       -3.07751  -0.00032   0.00000  -0.00928  -0.00926  -3.08677
   D28       -0.96001   0.00016   0.00000   0.00087   0.00087  -0.95915
   D29        1.05253   0.00027   0.00000   0.00689   0.00686   1.05939
   D30        1.07946  -0.00028   0.00000  -0.01063  -0.01061   1.06885
   D31       -3.08623   0.00020   0.00000  -0.00049  -0.00048  -3.08671
   D32       -1.07368   0.00031   0.00000   0.00554   0.00551  -1.06817
   D33       -0.94757  -0.00052   0.00000  -0.01503  -0.01500  -0.96257
   D34        1.16993  -0.00004   0.00000  -0.00488  -0.00487   1.16505
   D35       -3.10071   0.00007   0.00000   0.00114   0.00112  -3.09959
   D36       -1.15124   0.00034   0.00000   0.02236   0.02235  -1.12889
   D37        1.00626  -0.00010   0.00000   0.01079   0.01078   1.01704
   D38        3.00944   0.00067   0.00000   0.02344   0.02344   3.03287
   D39        3.00888   0.00050   0.00000   0.01883   0.01882   3.02771
   D40       -1.11681   0.00006   0.00000   0.00725   0.00726  -1.10955
   D41        0.88637   0.00082   0.00000   0.01990   0.01991   0.90628
   D42        1.00458  -0.00052   0.00000   0.00266   0.00266   1.00724
   D43       -3.12111  -0.00096   0.00000  -0.00891  -0.00891  -3.13002
   D44       -1.11793  -0.00019   0.00000   0.00374   0.00374  -1.11419
   D45       -3.01227  -0.00069   0.00000  -0.01928  -0.01927  -3.03154
   D46        1.12243  -0.00007   0.00000  -0.00595  -0.00596   1.11647
   D47       -0.89417  -0.00020   0.00000  -0.01162  -0.01161  -0.90578
   D48        1.12181  -0.00016   0.00000  -0.00770  -0.00770   1.11411
   D49       -1.02667   0.00047   0.00000   0.00563   0.00561  -1.02106
   D50       -3.04327   0.00034   0.00000  -0.00004  -0.00004  -3.04332
   D51       -0.89398  -0.00040   0.00000  -0.01463  -0.01462  -0.90860
   D52       -3.04246   0.00023   0.00000  -0.00130  -0.00131  -3.04377
   D53        1.22413   0.00009   0.00000  -0.00697  -0.00697   1.21716
   D54       -1.15159   0.00031   0.00000   0.02108   0.02107  -1.13052
   D55        1.00417  -0.00044   0.00000   0.00356   0.00355   1.00773
   D56        3.00902   0.00040   0.00000   0.01717   0.01715   3.02617
   D57        1.00598  -0.00018   0.00000   0.00768   0.00769   1.01366
   D58       -3.12145  -0.00093   0.00000  -0.00984  -0.00983  -3.13128
   D59       -1.11660  -0.00009   0.00000   0.00377   0.00377  -1.11283
   D60        3.00870   0.00071   0.00000   0.02175   0.02176   3.03045
   D61       -1.11872  -0.00003   0.00000   0.00423   0.00424  -1.11449
   D62        0.88613   0.00080   0.00000   0.01783   0.01784   0.90396
   D63       -3.07780  -0.00034   0.00000  -0.00916  -0.00915  -3.08695
   D64       -0.95094  -0.00003   0.00000  -0.00849  -0.00849  -0.95943
   D65        1.08185  -0.00066   0.00000  -0.01496  -0.01493   1.06692
   D66        1.05154   0.00015   0.00000   0.00501   0.00499   1.05653
   D67       -3.10479   0.00045   0.00000   0.00568   0.00565  -3.09913
   D68       -1.07200  -0.00018   0.00000  -0.00079  -0.00079  -1.07279
   D69       -0.95984   0.00016   0.00000   0.00083   0.00083  -0.95901
   D70        1.16702   0.00046   0.00000   0.00150   0.00149   1.16851
   D71       -3.08337  -0.00016   0.00000  -0.00497  -0.00496  -3.08833
   D72       -3.13980  -0.00016   0.00000  -0.00292  -0.00292   3.14047
   D73       -1.04884   0.00015   0.00000   0.00242   0.00240  -1.04644
   D74        1.05241  -0.00053   0.00000  -0.00936  -0.00935   1.04306
   D75        1.01194   0.00050   0.00000   0.00652   0.00653   1.01847
   D76        3.10289   0.00080   0.00000   0.01186   0.01186   3.11475
   D77       -1.07903   0.00012   0.00000   0.00007   0.00010  -1.07893
   D78       -1.00452  -0.00028   0.00000  -0.00309  -0.00309  -1.00761
   D79        1.08644   0.00003   0.00000   0.00225   0.00223   1.08867
   D80       -3.09549  -0.00065   0.00000  -0.00953  -0.00953  -3.10502
         Item               Value     Threshold  Converged?
 Maximum Force            0.016786     0.000450     NO 
 RMS     Force            0.002707     0.000300     NO 
 Maximum Displacement     0.187799     0.001800     NO 
 RMS     Displacement     0.038409     0.001200     NO 
 Predicted change in Energy=-2.036648D-03
 GradGradGradGradGradGradGradGradGradGradGradGradGradGradGradGradGradGrad

                          Input orientation:                          
 ---------------------------------------------------------------------
 Center     Atomic      Atomic             Coordinates (Angstroms)
 Number     Number       Type             X           Y           Z
 ---------------------------------------------------------------------
      1          8           0        6.005078   -0.674686    1.074167
      2          6           0        5.253184    0.199334    0.365363
      3          6           0        4.780385   -0.384988   -0.945380
      4          6           0        3.848567   -1.589279   -0.752416
      5          6           0        3.348788   -2.152326   -2.086511
      6          6           0        2.411944   -3.350694   -1.904417
      7          6           0        1.952473   -3.987681   -3.223280
      8          6           0        1.087899   -3.065285   -4.090869
      9          6           0        0.502810   -3.750558   -5.334036
     10          6           0        1.552644   -4.207242   -6.352253
     11          6           0        0.929152   -4.816553   -7.611837
     12          8           0        4.945478    1.285257    0.808764
     13          1           0        6.222802   -0.234679    1.913724
     14          1           0        5.660141   -0.691122   -1.523814
     15          1           0        4.274402    0.416312   -1.488890
     16          1           0        4.374124   -2.371524   -0.192631
     17          1           0        2.992053   -1.283215   -0.139568
     18          1           0        2.835746   -1.358337   -2.642901
     19          1           0        4.208253   -2.455500   -2.699534
     20          1           0        2.921234   -4.111362   -1.298282
     21          1           0        1.531686   -3.036052   -1.327924
     22          1           0        2.835209   -4.310543   -3.789130
     23          1           0        1.381299   -4.897969   -2.998491
     24          1           0        1.676158   -2.195465   -4.409177
     25          1           0        0.266044   -2.673032   -3.477166
     26          1           0       -0.096504   -4.616704   -5.022213
     27          1           0       -0.191873   -3.058847   -5.828468
     28          1           0        2.178637   -3.349193   -6.629890
     29          1           0        2.223442   -4.941311   -5.890348
     30          1           0        1.697058   -5.134279   -8.324751
     31          1           0        0.320071   -5.692933   -7.364890
     32          1           0        0.280318   -4.094248   -8.119152
 ---------------------------------------------------------------------
                    Distance matrix (angstroms):
                    1          2          3          4          5
     1  O    0.000000
     2  C    1.353388   0.000000
     3  C    2.379572   1.510965   0.000000
     4  C    2.970424   2.534070   1.534874   0.000000
     5  C    4.385109   3.894703   2.544629   1.531866   0.000000
     6  C    5.379925   5.082051   3.914675   2.548250   1.531966
     7  C    6.772561   6.426830   5.115204   3.930989   2.571083
     8  C    7.521383   6.918478   5.541891   4.576588   3.156353
     9  C    8.988938   8.405405   6.991782   6.070952   4.604384
    10  C    9.351728   8.845240   7.366289   6.594177   5.064125
[...]
 Alpha virt. eigenvalues --    3.98597   4.00599   4.02811   4.03927   4.06253
 Alpha virt. eigenvalues --    4.08881   4.12900   4.13364   4.15414   4.17083
 Alpha virt. eigenvalues --    4.22049   4.24271   4.27499   4.32229   4.33914
 Alpha virt. eigenvalues --    4.35185   4.38330   4.41452   4.43488   4.48353
 Alpha virt. eigenvalues --    4.49436   4.51508   4.52436   4.53175   4.53940
 Alpha virt. eigenvalues --    4.56488   4.57090   4.58068   4.60740   4.60890
 Alpha virt. eigenvalues --    4.64200   4.65675   4.67634   4.69976   4.71883
 Alpha virt. eigenvalues --    4.73601   4.78927   4.80742   4.87724   4.90493
 Alpha virt. eigenvalues --    5.03047   5.05955   5.16824   5.20439   5.21391
 Alpha virt. eigenvalues --    5.23355   5.38980   5.40220   5.50851   5.59699
 Alpha virt. eigenvalues --    5.73557   5.84951   5.86754   6.15680   6.19188
 Alpha virt. eigenvalues --    6.32439   6.33904   6.45009   6.48145   6.64177
 Alpha virt. eigenvalues --    6.68906   6.73939   6.81218   6.88519   7.07097
 Alpha virt. eigenvalues --    7.07853   7.27751  22.40777  22.43541  22.51110
 Alpha virt. eigenvalues --   22.53294  22.56537  22.57752  22.58839  22.62894
 Alpha virt. eigenvalues --   22.63768  23.27375  43.90809  43.98000
          Condensed to atoms (all electrons):
               1          2          3          4          5          6
     1  O    7.969197   0.359297  -0.130024   0.006222  -0.001215   0.000016
     2  C    0.359297   4.444383   0.277505  -0.010192  -0.002412   0.000071
     3  C   -0.130024   0.277505   5.329271   0.161110  -0.019585   0.008385
     4  C    0.006222  -0.010192   0.161110   5.292282   0.194486  -0.029252
     5  C   -0.001215  -0.002412  -0.019585   0.194486   5.334234   0.187027
     6  C    0.000016   0.000071   0.008385  -0.029252   0.187027   5.195508
     7  C   -0.000002  -0.000078  -0.000658   0.004885  -0.042710   0.250905
     8  C   -0.000000   0.000021  -0.000022   0.001374   0.010794  -0.040067
     9  C   -0.000000  -0.000000   0.000000  -0.000067   0.001563   0.003670
    10  C    0.000000   0.000000   0.000001   0.000002  -0.000316   0.001430
    11  C    0.000000  -0.000000   0.000000  -0.000000   0.000002  -0.000009
    12  O   -0.093803   0.680397  -0.098257   0.002100  -0.001241   0.000030
    13  H    0.288250  -0.025104   0.018612  -0.000992   0.000193  -0.000012
    14  H    0.003954  -0.013015   0.394000  -0.049248  -0.005014  -0.000212
    15  H    0.004745  -0.038977   0.420552  -0.027155  -0.008726   0.000278
    16  H    0.005005  -0.003082  -0.037952   0.438712  -0.049086  -0.005230
    17  H   -0.000010   0.002111  -0.047242   0.416768  -0.035155  -0.005051
    18  H   -0.000059   0.000205  -0.002629  -0.035875   0.425455  -0.039795
    19  H    0.000098  -0.000353  -0.004062  -0.048860   0.430901  -0.051740
    20  H   -0.000030   0.000039  -0.000123  -0.002929  -0.046118   0.441167
    21  H    0.000002  -0.000095  -0.000397  -0.003935  -0.064988   0.443485
    22  H   -0.000000  -0.000001  -0.000009   0.000051  -0.013959  -0.027566
    23  H    0.000000  -0.000000   0.000024  -0.000387   0.011385  -0.051514
    24  H    0.000000   0.000006   0.000002   0.000878   0.002703  -0.008628
    25  H   -0.000000  -0.000001   0.000014  -0.000100  -0.004131   0.006209
    26  H    0.000000   0.000000  -0.000000   0.000009  -0.000073  -0.000378
    27  H   -0.000000   0.000000   0.000000  -0.000004   0.000098  -0.000498
    28  H   -0.000000   0.000000  -0.000001   0.000010  -0.000074  -0.000097
    29  H   -0.000000  -0.000000   0.000000  -0.000002   0.000183   0.000731
    30  H   -0.000000   0.000000   0.000000  -0.000000   0.000001  -0.000005
    31  H    0.000000  -0.000000  -0.000000   0.000000  -0.000000  -0.000007
    32  H   -0.000000   0.000000   0.000000   0.000000   0.000000   0.000004
               7          8          9         10         11         12
     1  O   -0.000002  -0.000000  -0.000000   0.000000   0.000000  -0.093803
     2  C   -0.000078   0.000021  -0.000000   0.000000  -0.000000   0.680397
     3  C   -0.000658  -0.000022   0.000000   0.000001   0.000000  -0.098257
     4  C    0.004885   0.001374  -0.000067   0.000002  -0.000000   0.002100
     5  C   -0.042710   0.010794   0.001563  -0.000316   0.000002  -0.001241
     6  C    0.250905  -0.040067   0.003670   0.001430  -0.000009   0.000030
     7  C    5.258004   0.184373  -0.038721   0.012339   0.000210  -0.000001
     8  C    0.184373   5.259965   0.248202  -0.051511   0.009547   0.000000
     9  C   -0.038721   0.248202   5.205490   0.231721  -0.049939  -0.000000
    10  C    0.012339  -0.051511   0.231721   5.191370   0.265492   0.000000
    11  C    0.000210   0.009547  -0.049939   0.265492   5.028857   0.000000
    12  O   -0.000001   0.000000  -0.000000   0.000000   0.000000   7.822793
    13  H    0.000000   0.000000   0.000000  -0.000000  -0.000000   0.006602
    14  H   -0.000114   0.000036   0.000001  -0.000000   0.000000   0.002924
    15  H    0.000004  -0.000049  -0.000000   0.000000   0.000000   0.007495
    16  H   -0.000055  -0.000149   0.000002   0.000000   0.000000   0.000170
    17  H    0.000309   0.000133   0.000002  -0.000000   0.000000   0.002121
    18  H   -0.008246   0.001358   0.000623   0.000141  -0.000001  -0.000068
    19  H    0.010361  -0.003783  -0.000008  -0.000027   0.000004   0.000013
    20  H   -0.051991   0.009682  -0.000471   0.000081  -0.000002  -0.000000
    21  H   -0.032821  -0.012288  -0.000205  -0.000064   0.000004  -0.000001
    22  H    0.434972  -0.059803  -0.006463   0.000478   0.000564   0.000000
    23  H    0.431608  -0.047368   0.004131  -0.003139  -0.000094  -0.000000
    24  H   -0.062029   0.438525  -0.030336  -0.011701  -0.000077   0.000000
    25  H   -0.050038   0.425309  -0.043439   0.009294  -0.000364   0.000000
    26  H   -0.014299  -0.031532   0.431363  -0.058815  -0.002992  -0.000000
    27  H    0.010823  -0.050983   0.431590  -0.040895  -0.004500   0.000000
    28  H   -0.005408   0.010554  -0.057719   0.418294  -0.037856  -0.000000
    29  H    0.004754  -0.010812  -0.047280   0.427131  -0.035959  -0.000000
    30  H    0.000050  -0.000895   0.012579  -0.051971   0.422752   0.000000
    31  H   -0.000060   0.000321  -0.006769  -0.040172   0.413367   0.000000
    32  H   -0.000002  -0.000471  -0.007260  -0.044358   0.419875  -0.000000
              13         14         15         16         17         18
     1  O    0.288250   0.003954   0.004745   0.005005  -0.000010  -0.000059
     2  C   -0.025104  -0.013015  -0.038977  -0.003082   0.002111   0.000205
     3  C    0.018612   0.394000   0.420552  -0.037952  -0.047242  -0.002629
     4  C   -0.000992  -0.049248  -0.027155   0.438712   0.416768  -0.035875
     5  C    0.000193  -0.005014  -0.008726  -0.049086  -0.035155   0.425455
     6  C   -0.000012  -0.000212   0.000278  -0.005230  -0.005051  -0.039795
     7  C    0.000000  -0.000114   0.000004  -0.000055   0.000309  -0.008246
     8  C    0.000000   0.000036  -0.000049  -0.000149   0.000133   0.001358
     9  C    0.000000   0.000001  -0.000000   0.000002   0.000002   0.000623
    10  C   -0.000000  -0.000000   0.000000   0.000000  -0.000000   0.000141
    11  C   -0.000000   0.000000   0.000000   0.000000   0.000000  -0.000001
    12  O    0.006602   0.002924   0.007495   0.000170   0.002121  -0.000068
    13  H    0.378203  -0.000764  -0.000721  -0.000303  -0.000251   0.000006
    14  H   -0.000764   0.518199  -0.017857  -0.001685   0.006199   0.000297
    15  H   -0.000721  -0.017857   0.495585   0.003931  -0.000911   0.000054
    16  H   -0.000303  -0.001685   0.003931   0.501736  -0.021487   0.005595
    17  H   -0.000251   0.006199  -0.000911  -0.021487   0.526521  -0.004070
    18  H    0.000006   0.000297   0.000054   0.005595  -0.004070   0.537088
    19  H   -0.000005   0.000756   0.001188  -0.003028   0.005555  -0.028982
    20  H    0.000002   0.000140  -0.000060   0.001013   0.000881   0.005003
    21  H   -0.000000  -0.000062   0.000135   0.000958   0.000725  -0.001294
    22  H   -0.000000  -0.000015   0.000004   0.000151  -0.000059   0.001803
    23  H   -0.000000   0.000001   0.000001  -0.000052   0.000014  -0.000601
    24  H   -0.000000   0.000009   0.000027  -0.000035   0.000046  -0.006704
    25  H   -0.000000  -0.000001   0.000004   0.000014  -0.000029   0.001141
    26  H    0.000000  -0.000000   0.000000  -0.000000  -0.000000  -0.000015
    27  H   -0.000000   0.000000  -0.000000  -0.000000   0.000000  -0.000052
    28  H    0.000000  -0.000000   0.000000   0.000000  -0.000000   0.000066
    29  H    0.000000  -0.000000  -0.000000  -0.000000   0.000000  -0.000051
    30  H    0.000000   0.000000  -0.000000  -0.000000   0.000000   0.000000
    31  H   -0.000000  -0.000000  -0.000000   0.000000  -0.000000   0.000000
    32  H    0.000000  -0.000000  -0.000000  -0.000000  -0.000000  -0.000000
              19         20         21         22         23         24
     1  O    0.000098  -0.000030   0.000002  -0.000000   0.000000   0.000000
     2  C   -0.000353   0.000039  -0.000095  -0.000001  -0.000000   0.000006
     3  C   -0.004062  -0.000123  -0.000397  -0.000009   0.000024   0.000002
     4  C   -0.048860  -0.002929  -0.003935   0.000051  -0.000387   0.000878
     5  C    0.430901  -0.046118  -0.064988  -0.013959   0.011385   0.002703
     6  C   -0.051740   0.441167   0.443485  -0.027566  -0.051514  -0.008628
     7  C    0.010361  -0.051991  -0.032821   0.434972   0.431608  -0.062029
     8  C   -0.003783   0.009682  -0.012288  -0.059803  -0.047368   0.438525
     9  C   -0.000008  -0.000471  -0.000205  -0.006463   0.004131  -0.030336
    10  C   -0.000027   0.000081  -0.000064   0.000478  -0.003139  -0.011701
    11  C    0.000004  -0.000002   0.000004   0.000564  -0.000094  -0.000077
    12  O    0.000013  -0.000000  -0.000001   0.000000  -0.000000   0.000000
    13  H   -0.000005   0.000002  -0.000000  -0.000000  -0.000000  -0.000000
    14  H    0.000756   0.000140  -0.000062  -0.000015   0.000001   0.000009
    15  H    0.001188  -0.000060   0.000135   0.000004   0.000001   0.000027
    16  H   -0.003028   0.001013   0.000958   0.000151  -0.000052  -0.000035
    17  H    0.005555   0.000881   0.000725  -0.000059   0.000014   0.000046
    18  H   -0.028982   0.005003  -0.001294   0.001803  -0.000601  -0.006704
    19  H    0.540622  -0.001765   0.006153   0.000527   0.000314   0.001235
    20  H   -0.001765   0.531097  -0.021123  -0.002088  -0.007663  -0.000639
    21  H    0.006153  -0.021123   0.527638   0.005919  -0.002319   0.001455
    22  H    0.000527  -0.002088   0.005919   0.533519  -0.021485   0.000152
    23  H    0.000314  -0.007663  -0.002319  -0.021485   0.531344   0.005540
    24  H    0.001235  -0.000639   0.001455   0.000152   0.005540   0.535202
    25  H    0.000123   0.000338   0.001550   0.005683  -0.000672  -0.022236
    26  H   -0.000001  -0.000015   0.000074   0.001473   0.001997   0.006180
    27  H    0.000012   0.000009  -0.000010  -0.000667   0.000300  -0.002332
    28  H    0.000003   0.000010  -0.000001   0.001176   0.000159   0.000970
    29  H    0.000061  -0.000040  -0.000016  -0.007453   0.000890   0.001578
    30  H   -0.000000   0.000000  -0.000000  -0.000015   0.000010   0.000020
    31  H   -0.000000   0.000000  -0.000000   0.000059  -0.000021  -0.000053
    32  H    0.000000  -0.000000  -0.000000  -0.000049   0.000008   0.000128
              25         26         27         28         29         30
     1  O   -0.000000   0.000000  -0.000000  -0.000000  -0.000000  -0.000000
     2  C   -0.000001   0.000000   0.000000   0.000000  -0.000000   0.000000
     3  C    0.000014  -0.000000   0.000000  -0.000001   0.000000   0.000000
     4  C   -0.000100   0.000009  -0.000004   0.000010  -0.000002  -0.000000
     5  C   -0.004131  -0.000073   0.000098  -0.000074   0.000183   0.000001
     6  C    0.006209  -0.000378  -0.000498  -0.000097   0.000731  -0.000005
     7  C   -0.050038  -0.014299   0.010823  -0.005408   0.004754   0.000050
     8  C    0.425309  -0.031532  -0.050983   0.010554  -0.010812  -0.000895
     9  C   -0.043439   0.431363   0.431590  -0.057719  -0.047280   0.012579
    10  C    0.009294  -0.058815  -0.040895   0.418294   0.427131  -0.051971
    11  C   -0.000364  -0.002992  -0.004500  -0.037856  -0.035959   0.422752
    12  O    0.000000  -0.000000   0.000000  -0.000000  -0.000000   0.000000
    13  H   -0.000000   0.000000  -0.000000   0.000000   0.000000   0.000000
    14  H   -0.000001  -0.000000   0.000000  -0.000000  -0.000000   0.000000
    15  H    0.000004   0.000000  -0.000000   0.000000  -0.000000  -0.000000
    16  H    0.000014  -0.000000  -0.000000   0.000000  -0.000000  -0.000000
    17  H   -0.000029  -0.000000   0.000000  -0.000000   0.000000   0.000000
    18  H    0.001141  -0.000015  -0.000052   0.000066  -0.000051   0.000000
    19  H    0.000123  -0.000001   0.000012   0.000003   0.000061  -0.000000
    20  H    0.000338  -0.000015   0.000009   0.000010  -0.000040   0.000000
    21  H    0.001550   0.000074  -0.000010  -0.000001  -0.000016  -0.000000
    22  H    0.005683   0.001473  -0.000667   0.001176  -0.007453  -0.000015
    23  H   -0.000672   0.001997   0.000300   0.000159   0.000890   0.000010
    24  H   -0.022236   0.006180  -0.002332   0.000970   0.001578   0.000020
    25  H    0.537336  -0.002854  -0.008389   0.000247  -0.000710   0.000015
    26  H   -0.002854   0.542045  -0.023468   0.007595  -0.002815  -0.000218
    27  H   -0.008389  -0.023468   0.542680  -0.003430   0.006393  -0.000071
    28  H    0.000247   0.007595  -0.003430   0.570552  -0.033240  -0.004354
    29  H   -0.000710  -0.002815   0.006393  -0.033240   0.565095  -0.004381
    30  H    0.000015  -0.000218  -0.000071  -0.004354  -0.004381   0.534707
    31  H    0.000022   0.002658   0.000185   0.007728  -0.006125  -0.024686
    32  H   -0.000049   0.000289   0.003139  -0.006306   0.007879  -0.024925
              31         32
     1  O    0.000000  -0.000000
     2  C   -0.000000   0.000000
     3  C   -0.000000   0.000000
     4  C    0.000000   0.000000
     5  C   -0.000000   0.000000
     6  C   -0.000007   0.000004
     7  C   -0.000060  -0.000002
     8  C    0.000321  -0.000471
     9  C   -0.006769  -0.007260
    10  C   -0.040172  -0.044358
    11  C    0.413367   0.419875
    12  O    0.000000  -0.000000
    13  H   -0.000000   0.000000
    14  H   -0.000000  -0.000000
    15  H   -0.000000  -0.000000
    16  H    0.000000  -0.000000
    17  H   -0.000000  -0.000000
    18  H    0.000000  -0.000000
    19  H   -0.000000   0.000000
    20  H    0.000000  -0.000000
    21  H   -0.000000  -0.000000
    22  H    0.000059  -0.000049
    23  H   -0.000021   0.000008
    24  H   -0.000053   0.000128
    25  H    0.000022  -0.000049
    26  H    0.002658   0.000289
    27  H    0.000185   0.003139
    28  H    0.007728  -0.006306
    29  H   -0.006125   0.007879
    30  H   -0.024686  -0.024925
    31  H    0.549340  -0.032118
    32  H   -0.032118   0.547094
 Mulliken charges:
               1
     1  O   -0.411643
     2  C    0.329274
     3  C   -0.268516
     4  C   -0.309891
     5  C   -0.304219
     6  C   -0.278859
     7  C   -0.296364
     8  C   -0.290461
     9  C   -0.282260
    10  C   -0.254806
    11  C   -0.428880
    12  O   -0.331274
    13  H    0.336285
    14  H    0.161470
    15  H    0.160455
    16  H    0.164858
    17  H    0.152880
    18  H    0.149608
    19  H    0.144688
    20  H    0.145594
    21  H    0.151522
    22  H    0.153101
    23  H    0.147587
    24  H    0.150113
    25  H    0.145715
    26  H    0.143793
    27  H    0.140073
    28  H    0.131123
    29  H    0.134189
    30  H    0.141388
    31  H    0.136332
    32  H    0.137124
 Sum of Mulliken charges =  -0.00000
 Mulliken charges with hydrogens summed into heavy atoms:
               1
     1  O   -0.075358
     2  C    0.329274
     3  C    0.053409
     4  C    0.007847
     5  C   -0.009924
     6  C    0.018257
     7  C    0.004324
     8  C    0.005368
     9  C    0.001606
    10  C    0.010507
    11  C   -0.014036
    12  O   -0.331274
 Electronic spatial extent (au):  <R**2>=           5405.3336
 Charge=              0.0000 electrons
 Dipole moment (field-independent basis, Debye):
    X=              1.4286    Y=              0.9313    Z=             -1.1641  Tot=              2.0648
 Quadrupole moment (field-independent basis, Debye-Ang):
   XX=            -85.3902   YY=            -78.0245   ZZ=            -79.3966
   XY=             -6.7479   XZ=              7.5277   YZ=              2.1319
 Traceless Quadrupole moment (field-independent basis, Debye-Ang):
   XX=             -4.4531   YY=              2.9126   ZZ=              1.5405
   XY=             -6.7479   XZ=              7.5277   YZ=              2.1319
 Octapole moment (field-independent basis, Debye-Ang**2):
  XXX=            -37.3353  YYY=             -0.5940  ZZZ=             -1.6671  XYY=             -7.4089
  XXY=             48.1676  XXZ=            -47.5885  XZZ=             -2.9027  YZZ=              0.1353
  YYZ=             -2.0771  XYZ=            -10.5963
 Hexadecapole moment (field-independent basis, Debye-Ang**3):
 XXXX=          -6478.9142 YYYY=           -406.0663 ZZZZ=           -298.6878 XXXY=           -279.4799
 XXXZ=            299.9516 YYYX=              3.0640 YYYZ=             -5.0531 ZZZX=              3.1247
 ZZZY=              0.5905 XXYY=          -1164.2745 XXZZ=          -1179.8561 YYZZ=           -116.1475
 XXYZ=             44.1425 YYXZ=             16.2828 ZZXY=             -6.9030
 N-N= 6.827678040788D+02 E-N=-2.630276953058D+03  KE= 5.405754775391D+02
 Unable to Open any file for archive entry.
 1\1\GINC-NOTCH078\SP\RM062X\def2TZVP\C10H20O2\U6032257\05-Feb-2022\0\\
 # M062X/def2tzvp int=(grid=ultrafine) nmr=giao guess=read geom=check\\
 Ac1.xyz\\0,1\O,0,6.0084171896,-0.7002658295,1.0740181024\C,0,5.2458536
 44,0.1967626508,0.3950862704\C,0,4.7634287108,-0.3647961511,-0.9201246
 813\C,0,3.8416096156,-1.5834290791,-0.7414834396\C,0,3.3418512314,-2.1
 351465419,-2.0785475432\C,0,2.414276958,-3.3432509629,-1.9113614965\C,
 0,1.9649607459,-3.9795482398,-3.2332455555\C,0,1.101510327,-3.06224912
 77,-4.1083020171\C,0,0.5082784562,-3.7528017482,-5.3433371516\C,0,1.54
 82971113,-4.2298440168,-6.3632530639\C,0,0.9127426749,-4.8357529302,-7
 .6163328117\O,0,4.9974997724,1.2968799318,0.8361212178\H,0,6.255062719
 5,-0.2623720623,1.9059635624\H,0,5.6390433238,-0.6558743711,-1.5127139
 342\H,0,4.2469087929,0.4411286919,-1.4462975022\H,0,4.3804635491,-2.36
 37191237,-0.1929619154\H,0,2.9837879701,-1.2979585649,-0.1192593601\H,
 0,2.8240541311,-1.337501785,-2.6254058008\H,0,4.2032345567,-2.42218843
 54,-2.6983198585\H,0,2.9284308121,-4.1014951242,-1.3062582772\H,0,1.52
 91767082,-3.0410523192,-1.3342339951\H,0,2.8523371915,-4.302414642,-3.
 79255088\H,0,1.3955367229,-4.8922945769,-3.012165783\H,0,1.6903488961,
 -2.1953103723,-4.434858755\H,0,0.282835428,-2.6612181548,-3.4954719523
 \H,0,-0.1017225621,-4.6093408165,-5.0227449679\H,0,-0.1814507372,-3.05
 92131536,-5.8425114109\H,0,2.1876595639,-3.382496271,-6.6465881385\H,0
 ,2.2117129032,-4.9700650594,-5.9000835317\H,0,1.6710739664,-5.17018705
 76,-8.3313193148\H,0,0.2896243604,-5.7006670462,-7.3624472759\H,0,0.27
 18552664,-4.1070177112,-8.1252087393\\Version=ES64L-G16RevC.01\State=1
 -A\HF=-543.5419017\RMSD=2.165e-09\Dipole=0.0315571,-0.7585042,-0.28912
 66\Quadrupole=4.1779543,-6.5491561,2.3712017,-1.3649064,0.8271246,-5.6
 526863\PG=C01 [X(C10H20O2)]\\@
 The archive entry for this job was punched.


 YOU ARE IN A MAZE OF TWISTY LITTLE PASSAGES.
 Job cpu time:       0 days  0 hours 32 minutes 32.9 seconds.
 Elapsed time:       0 days  0 hours  1 minutes 11.5 seconds.
 File lengths (MBytes):  RWF=    140 Int=      0 D2E=      0 Chk=     24 Scr=      1
 Normal termination of Gaussian 16 at Sat Feb  5 08:54:26 2022.
