 Entering Gaussian System, Link 0=/uufs/chpc.utah.edu/sys/installdir/gaussian16/C01/AVX2/g16/g16
 Input=Ac1_clust-9.com
 Output=Ac1_clust-9.log
 Initial command:
 /uufs/chpc.utah.edu/sys/installdir/gaussian16/C01/AVX2/g16/l1.exe "/scratch/general/lustre/u6032257/3867917/notchpeak.peaks/Gau-129733.inp" -scrdir="/scratch/general/lustre/u6032257/3867917/notchpeak.peaks/"
 Entering Link 1 = /uufs/chpc.utah.edu/sys/installdir/gaussian16/C01/AVX2/g16/l1.exe PID=    129735.
  
 Copyright (c) 1988-2019, Gaussian, Inc.  All Rights Reserved.
  
 This is part of the Gaussian(R) 16 program.  It is based on
 the Gaussian(R) 09 system (copyright 2009, Gaussian, Inc.),
 the Gaussian(R) 03 system (copyright 2003, Gaussian, Inc.),
 the Gaussian(R) 98 system (copyright 1998, Gaussian, Inc.),
 the Gaussian(R) 94 system (copyright 1995, Gaussian, Inc.),
 the Gaussian 92(TM) system (copyright 1992, Gaussian, Inc.),
 the Gaussian 90(TM) system (copyright 1990, Gaussian, Inc.),
 the Gaussian 88(TM) system (copyright 1988, Gaussian, Inc.),
 the Gaussian 86(TM) system (copyright 1986, Carnegie Mellon
 University), and the Gaussian 82(TM) system (copyright 1983,
 Carnegie Mellon University). Gaussian is a federally registered
 trademark of Gaussian, Inc.
  
 This software contains proprietary and confidential information,
 including trade secrets, belonging to Gaussian, Inc.
  
 This software is provided under written license and may be
 used, copied, transmitted, or stored only in accord with that
 written license.
  
 The following legend is applicable only to US Government
 contracts under FAR:
  
                    RESTRICTED RIGHTS LEGEND
  
 Use, reproduction and disclosure by the US Government is
 subject to restrictions as set forth in subparagraphs (a)
 and (c) of the Commercial Computer Software - Restricted
 Rights clause in FAR 52.227-19.
  
 Gaussian, Inc.
 340 Quinnipiac St., Bldg. 40, Wallingford CT 06492
  
  
 ---------------------------------------------------------------
 Warning -- This program may not be used in any manner that
 competes with the business of Gaussian, Inc. or will provide
 assistance to any competitor of Gaussian, Inc.  The licensee
 of this program is prohibited from giving any competitor of
 Gaussian, Inc. access to this program.  By using this program,
 the user acknowledges that Gaussian, Inc. is engaged in the
 business of creating and licensing software in the field of
 computational chemistry and represents and warrants to the
 licensee that it is not a competitor of Gaussian, Inc. and that
 it will not use this program in any manner prohibited above.
 ---------------------------------------------------------------
  

 Cite this work as:
 Gaussian 16, Revision C.01,
 M. J. Frisch, G. W. Trucks, H. B. Schlegel, G. E. Scuseria, 
 M. A. Robb, J. R. Cheeseman, G. Scalmani, V. Barone, 
 G. A. Petersson, H. Nakatsuji, X. Li, M. Caricato, A. V. Marenich, 
 J. Bloino, B. G. Janesko, R. Gomperts, B. Mennucci, H. P. Hratchian, 
 J. V. Ortiz, A. F. Izmaylov, J. L. Sonnenberg, D. Williams-Young, 
 F. Ding, F. Lipparini, F. Egidi, J. Goings, B. Peng, A. Petrone, 
 T. Henderson, D. Ranasinghe, V. G. Zakrzewski, J. Gao, N. Rega, 
 G. Zheng, W. Liang, M. Hada, M. Ehara, K. Toyota, R. Fukuda, 
 J. Hasegawa, M. Ishida, T. Nakajima, Y. Honda, O. Kitao, H. Nakai, 
 T. Vreven, K. Throssell, J. A. Montgomery, Jr., J. E. Peralta, 
 F. Ogliaro, M. J. Bearpark, J. J. Heyd, E. N. Brothers, K. N. Kudin, 
 V. N. Staroverov, T. A. Keith, R. Kobayashi, J. Normand, 
 K. Raghavachari, A. P. Rendell, J. C. Burant, S. S. Iyengar, 
 J. Tomasi, M. Cossi, J. M. Millam, M. Klene, C. Adamo, R. Cammi, 
 J. W. Ochterski, R. L. Martin, K. Morokuma, O. Farkas, 
 J. B. Foresman, and D. J. Fox, Gaussian, Inc., Wallingford CT, 2019.
 
 ******************************************
 Gaussian 16:  ES64L-G16RevC.01  3-Jul-2019
                 5-Feb-2022 
 ******************************************
 %NProcShared=32
 Will use up to   32 processors via shared memory.
 %mem=16GB
 %chk=Ac1_clust-9.chk
 ----------------------------------------------------------------------
 # B3LYP/6-31G(d,p) empiricaldispersion=GD3BJ int=(grid=ultrafine) opt 
 freq=noraman
 ----------------------------------------------------------------------
 1/18=20,19=15,26=4,38=1/1,3;
 2/9=110,12=2,17=6,18=5,40=1/2;
 3/5=1,6=6,7=101,11=2,25=1,30=1,71=1,74=-5,75=-5,124=41/1,2,3;
 4//1;
 5/5=2,38=5/2;
 6/7=2,8=2,9=2,10=2,28=1/1;
 7//1,2,3,16;
 1/18=20,19=15,26=4/3(2);
 2/9=110/2;
 99//99;
 2/9=110/2;
 3/5=1,6=6,7=101,11=2,25=1,30=1,71=1,74=-5,75=-5,124=41/1,2,3;
 4/5=5,16=3,69=1/1;
 5/5=2,38=5/2;
 7//1,2,3,16;
 1/18=20,19=15,26=4/3(-5);
 2/9=110/2;
 6/7=2,8=2,9=2,10=2,19=2,28=1/1;
 99/9=1/99;
 -------
 Ac1.xyz
 -------
 Symbolic Z-matrix:
 Charge =  0 Multiplicity = 1
 O                     5.9      -0.1123   -0.1547 
 C                     5.0257   -0.8998   -0.8157 
 C                     4.5443   -2.0636    0.0525 
 C                     3.4006   -2.9144   -0.5535 
 C                     2.0367   -2.1916   -0.5923 
 C                     0.8887   -3.0347   -1.1883 
 C                     1.0886   -3.4935   -2.6491 
 C                     1.264    -2.3377   -3.6558 
 C                     1.3983   -2.7928   -5.1241 
 C                     2.6374   -3.6567   -5.4412 
 C                     3.9783   -2.9578   -5.1629 
 O                     4.6897   -0.6982   -1.9746 
 H                     6.1304    0.5644   -0.7921 
 H                     4.2551   -1.68      1.0307 
 H                     5.4159   -2.6982    0.209 
 H                     3.6856   -3.2372   -1.5569 
 H                     3.294    -3.8316    0.0284 
 H                     1.7619   -1.8985    0.4222 
 H                     2.1241   -1.2561   -1.1462 
 H                     0.7304   -3.9135   -0.5611 
 H                    -0.0378   -2.4616   -1.1229 
 H                     1.9429   -4.168    -2.7026 
 H                     0.2275   -4.0942   -2.9465 
 H                     2.1323   -1.7341   -3.3884 
 H                     0.4083   -1.6655   -3.5754 
 H                     0.4995   -3.3412   -5.4107 
 H                     1.4144   -1.9088   -5.7638 
 H                     2.5931   -4.5951   -4.8873 
 H                     2.6039   -3.9406   -6.4943 
 H                     4.0532   -2.0122   -5.701 
 H                     4.1107   -2.746    -4.1011 
 H                     4.816    -3.5821   -5.4747 
 

 GradGradGradGradGradGradGradGradGradGradGradGradGradGradGradGradGradGrad
 Berny optimization.
 Initialization pass.
                           ----------------------------
                           !    Initial Parameters    !
                           ! (Angstroms and Degrees)  !
 --------------------------                            --------------------------
 ! Name  Definition              Value          Derivative Info.                !
 --------------------------------------------------------------------------------
 ! R1    R(1,2)                  1.3496         estimate D2E/DX2                !
 ! R2    R(1,13)                 0.9578         estimate D2E/DX2                !
 ! R3    R(2,3)                  1.5297         estimate D2E/DX2                !
 ! R4    R(2,12)                 1.2234         estimate D2E/DX2                !
 ! R5    R(3,4)                  1.5489         estimate D2E/DX2                !
 ! R6    R(3,14)                 1.0898         estimate D2E/DX2                !
 ! R7    R(3,15)                 1.0894         estimate D2E/DX2                !
 ! R8    R(4,5)                  1.5441         estimate D2E/DX2                !
 ! R9    R(4,16)                 1.0919         estimate D2E/DX2                !
 ! R10   R(4,17)                 1.0914         estimate D2E/DX2                !
 ! R11   R(5,6)                  1.544          estimate D2E/DX2                !
 ! R12   R(5,18)                 1.0912         estimate D2E/DX2                !
 ! R13   R(5,19)                 1.0907         estimate D2E/DX2                !
 ! R14   R(6,7)                  1.5441         estimate D2E/DX2                !
 ! R15   R(6,20)                 1.0912         estimate D2E/DX2                !
 ! R16   R(6,21)                 1.0914         estimate D2E/DX2                !
 ! R17   R(7,8)                  1.5428         estimate D2E/DX2                !
 ! R18   R(7,22)                 1.0898         estimate D2E/DX2                !
 ! R19   R(7,23)                 1.0912         estimate D2E/DX2                !
 ! R20   R(8,9)                  1.5431         estimate D2E/DX2                !
 ! R21   R(8,24)                 1.0908         estimate D2E/DX2                !
 ! R22   R(8,25)                 1.0911         estimate D2E/DX2                !
 ! R23   R(9,10)                 1.5435         estimate D2E/DX2                !
 ! R24   R(9,26)                 1.0912         estimate D2E/DX2                !
 ! R25   R(9,27)                 1.0913         estimate D2E/DX2                !
 ! R26   R(10,11)                1.5375         estimate D2E/DX2                !
 ! R27   R(10,28)                1.0906         estimate D2E/DX2                !
 ! R28   R(10,29)                1.0912         estimate D2E/DX2                !
 ! R29   R(11,30)                1.0906         estimate D2E/DX2                !
 ! R30   R(11,31)                1.0908         estimate D2E/DX2                !
 ! R31   R(11,32)                1.0903         estimate D2E/DX2                !
 ! A1    A(2,1,13)             104.0142         estimate D2E/DX2                !
 ! A2    A(1,2,3)              111.7047         estimate D2E/DX2                !
 ! A3    A(1,2,12)             123.0747         estimate D2E/DX2                !
 ! A4    A(3,2,12)             125.2121         estimate D2E/DX2                !
 ! A5    A(2,3,4)              115.3547         estimate D2E/DX2                !
 ! A6    A(2,3,14)             108.9753         estimate D2E/DX2                !
 ! A7    A(2,3,15)             105.8384         estimate D2E/DX2                !
 ! A8    A(4,3,14)             110.4002         estimate D2E/DX2                !
 ! A9    A(4,3,15)             109.0857         estimate D2E/DX2                !
 ! A10   A(14,3,15)            106.7622         estimate D2E/DX2                !
 ! A11   A(3,4,5)              113.8867         estimate D2E/DX2                !
 ! A12   A(3,4,16)             109.2196         estimate D2E/DX2                !
 ! A13   A(3,4,17)             108.9733         estimate D2E/DX2                !
 ! A14   A(5,4,16)             110.2339         estimate D2E/DX2                !
 ! A15   A(5,4,17)             108.6937         estimate D2E/DX2                !
 ! A16   A(16,4,17)            105.4856         estimate D2E/DX2                !
 ! A17   A(4,5,6)              114.2583         estimate D2E/DX2                !
 ! A18   A(4,5,18)             108.9554         estimate D2E/DX2                !
 ! A19   A(4,5,19)             110.0894         estimate D2E/DX2                !
 ! A20   A(6,5,18)             108.5611         estimate D2E/DX2                !
 ! A21   A(6,5,19)             109.3842         estimate D2E/DX2                !
 ! A22   A(18,5,19)            105.1859         estimate D2E/DX2                !
 ! A23   A(5,6,7)              115.5414         estimate D2E/DX2                !
 ! A24   A(5,6,20)             109.0111         estimate D2E/DX2                !
 ! A25   A(5,6,21)             108.743          estimate D2E/DX2                !
 ! A26   A(7,6,20)             108.8594         estimate D2E/DX2                !
 ! A27   A(7,6,21)             108.8208         estimate D2E/DX2                !
 ! A28   A(20,6,21)            105.385          estimate D2E/DX2                !
 ! A29   A(6,7,8)              114.1693         estimate D2E/DX2                !
 ! A30   A(6,7,22)             109.3794         estimate D2E/DX2                !
 ! A31   A(6,7,23)             108.6164         estimate D2E/DX2                !
 ! A32   A(8,7,22)             110.031          estimate D2E/DX2                !
 ! A33   A(8,7,23)             108.9223         estimate D2E/DX2                !
 ! A34   A(22,7,23)            105.3377         estimate D2E/DX2                !
 ! A35   A(7,8,9)              114.1957         estimate D2E/DX2                !
 ! A36   A(7,8,24)             110.1886         estimate D2E/DX2                !
 ! A37   A(7,8,25)             108.9231         estimate D2E/DX2                !
 ! A38   A(9,8,24)             109.0985         estimate D2E/DX2                !
 ! A39   A(9,8,25)             108.6671         estimate D2E/DX2                !
 ! A40   A(24,8,25)            105.3856         estimate D2E/DX2                !
 ! A41   A(8,9,10)             115.4958         estimate D2E/DX2                !
 ! A42   A(8,9,26)             109.0537         estimate D2E/DX2                !
 ! A43   A(8,9,27)             108.6724         estimate D2E/DX2                !
 ! A44   A(10,9,26)            109.0263         estimate D2E/DX2                !
 ! A45   A(10,9,27)            108.7309         estimate D2E/DX2                !
 ! A46   A(26,9,27)            105.3844         estimate D2E/DX2                !
 ! A47   A(9,10,11)            114.1128         estimate D2E/DX2                !
 ! A48   A(9,10,28)            110.161          estimate D2E/DX2                !
 ! A49   A(9,10,29)            108.6175         estimate D2E/DX2                !
 ! A50   A(11,10,28)           109.5501         estimate D2E/DX2                !
 ! A51   A(11,10,29)           108.6463         estimate D2E/DX2                !
 ! A52   A(28,10,29)           105.3696         estimate D2E/DX2                !
 ! A53   A(10,11,30)           111.391          estimate D2E/DX2                !
 ! A54   A(10,11,31)           111.7355         estimate D2E/DX2                !
 ! A55   A(10,11,32)           110.9794         estimate D2E/DX2                !
 ! A56   A(30,11,31)           107.6744         estimate D2E/DX2                !
 ! A57   A(30,11,32)           107.6148         estimate D2E/DX2                !
 ! A58   A(31,11,32)           107.2359         estimate D2E/DX2                !
 ! D1    D(13,1,2,3)           179.5918         estimate D2E/DX2                !
 ! D2    D(13,1,2,12)            0.5964         estimate D2E/DX2                !
 ! D3    D(1,2,3,4)            172.3297         estimate D2E/DX2                !
 ! D4    D(1,2,3,14)            47.5213         estimate D2E/DX2                !
 ! D5    D(1,2,3,15)           -66.97           estimate D2E/DX2                !
 ! D6    D(12,2,3,4)            -8.7006         estimate D2E/DX2                !
 ! D7    D(12,2,3,14)         -133.509          estimate D2E/DX2                !
 ! D8    D(12,2,3,15)          111.9998         estimate D2E/DX2                !
 ! D9    D(2,3,4,5)            -71.2335         estimate D2E/DX2                !
 ! D10   D(2,3,4,16)            52.4751         estimate D2E/DX2                !
 ! D11   D(2,3,4,17)           167.2376         estimate D2E/DX2                !
 ! D12   D(14,3,4,5)            52.8313         estimate D2E/DX2                !
 ! D13   D(14,3,4,16)          176.5399         estimate D2E/DX2                !
 ! D14   D(14,3,4,17)          -68.6976         estimate D2E/DX2                !
 ! D15   D(15,3,4,5)           169.8495         estimate D2E/DX2                !
 ! D16   D(15,3,4,16)          -66.4419         estimate D2E/DX2                !
 ! D17   D(15,3,4,17)           48.3206         estimate D2E/DX2                !
 ! D18   D(3,4,5,6)           -179.7045         estimate D2E/DX2                !
 ! D19   D(3,4,5,18)           -58.1076         estimate D2E/DX2                !
 ! D20   D(3,4,5,19)            56.7605         estimate D2E/DX2                !
 ! D21   D(16,4,5,6)            57.1378         estimate D2E/DX2                !
 ! D22   D(16,4,5,18)          178.7347         estimate D2E/DX2                !
 ! D23   D(16,4,5,19)          -66.3972         estimate D2E/DX2                !
 ! D24   D(17,4,5,6)           -58.0207         estimate D2E/DX2                !
 ! D25   D(17,4,5,18)           63.5763         estimate D2E/DX2                !
 ! D26   D(17,4,5,19)          178.4444         estimate D2E/DX2                !
 ! D27   D(4,5,6,7)            -60.3608         estimate D2E/DX2                !
 ! D28   D(4,5,6,20)            62.5663         estimate D2E/DX2                !
 ! D29   D(4,5,6,21)           176.9744         estimate D2E/DX2                !
 ! D30   D(18,5,6,7)           177.8255         estimate D2E/DX2                !
 ! D31   D(18,5,6,20)          -59.2474         estimate D2E/DX2                !
 ! D32   D(18,5,6,21)           55.1607         estimate D2E/DX2                !
 ! D33   D(19,5,6,7)            63.5532         estimate D2E/DX2                !
 ! D34   D(19,5,6,20)         -173.5197         estimate D2E/DX2                !
 ! D35   D(19,5,6,21)          -59.1116         estimate D2E/DX2                !
 ! D36   D(5,6,7,8)            -59.4616         estimate D2E/DX2                !
 ! D37   D(5,6,7,22)            64.3073         estimate D2E/DX2                !
 ! D38   D(5,6,7,23)           178.7866         estimate D2E/DX2                !
 ! D39   D(20,6,7,8)           177.531          estimate D2E/DX2                !
 ! D40   D(20,6,7,22)          -58.7001         estimate D2E/DX2                !
 ! D41   D(20,6,7,23)           55.7792         estimate D2E/DX2                !
 ! D42   D(21,6,7,8)            63.1618         estimate D2E/DX2                !
 ! D43   D(21,6,7,22)         -173.0692         estimate D2E/DX2                !
 ! D44   D(21,6,7,23)          -58.5899         estimate D2E/DX2                !
 ! D45   D(6,7,8,9)           -177.3095         estimate D2E/DX2                !
 ! D46   D(6,7,8,24)            59.5014         estimate D2E/DX2                !
 ! D47   D(6,7,8,25)           -55.6423         estimate D2E/DX2                !
 ! D48   D(22,7,8,9)            59.2729         estimate D2E/DX2                !
 ! D49   D(22,7,8,24)          -63.9162         estimate D2E/DX2                !
 ! D50   D(22,7,8,25)         -179.0599         estimate D2E/DX2                !
 ! D51   D(23,7,8,9)           -55.7262         estimate D2E/DX2                !
 ! D52   D(23,7,8,24)         -178.9154         estimate D2E/DX2                !
 ! D53   D(23,7,8,25)           65.9409         estimate D2E/DX2                !
 ! D54   D(7,8,9,10)           -63.2626         estimate D2E/DX2                !
 ! D55   D(7,8,9,26)            59.8861         estimate D2E/DX2                !
 ! D56   D(7,8,9,27)           174.2784         estimate D2E/DX2                !
 ! D57   D(24,8,9,10)           60.5148         estimate D2E/DX2                !
 ! D58   D(24,8,9,26)         -176.3365         estimate D2E/DX2                !
 ! D59   D(24,8,9,27)          -61.9442         estimate D2E/DX2                !
 ! D60   D(25,8,9,10)          174.9294         estimate D2E/DX2                !
 ! D61   D(25,8,9,26)          -61.9219         estimate D2E/DX2                !
 ! D62   D(25,8,9,27)           52.4704         estimate D2E/DX2                !
 ! D63   D(8,9,10,11)          -60.455          estimate D2E/DX2                !
 ! D64   D(8,9,10,28)           63.2479         estimate D2E/DX2                !
 ! D65   D(8,9,10,29)          178.1849         estimate D2E/DX2                !
 ! D66   D(26,9,10,11)         176.3819         estimate D2E/DX2                !
 ! D67   D(26,9,10,28)         -59.9152         estimate D2E/DX2                !
 ! D68   D(26,9,10,29)          55.0217         estimate D2E/DX2                !
 ! D69   D(27,9,10,11)          61.9729         estimate D2E/DX2                !
 ! D70   D(27,9,10,28)        -174.3242         estimate D2E/DX2                !
 ! D71   D(27,9,10,29)         -59.3872         estimate D2E/DX2                !
 ! D72   D(9,10,11,30)         -55.7902         estimate D2E/DX2                !
 ! D73   D(9,10,11,31)          64.6866         estimate D2E/DX2                !
 ! D74   D(9,10,11,32)        -175.6766         estimate D2E/DX2                !
 ! D75   D(28,10,11,30)       -179.8218         estimate D2E/DX2                !
 ! D76   D(28,10,11,31)        -59.345          estimate D2E/DX2                !
 ! D77   D(28,10,11,32)         60.2918         estimate D2E/DX2                !
 ! D78   D(29,10,11,30)         65.554          estimate D2E/DX2                !
 ! D79   D(29,10,11,31)       -173.9692         estimate D2E/DX2                !
 ! D80   D(29,10,11,32)        -54.3324         estimate D2E/DX2                !
 --------------------------------------------------------------------------------
 Trust Radius=3.00D-01 FncErr=1.00D-07 GrdErr=1.00D-06 EigMax=2.50D+02 EigMin=1.00D-04
 Number of steps in this run=    179 maximum allowed number of steps=    192.
 GradGradGradGradGradGradGradGradGradGradGradGradGradGradGradGradGradGrad

                          Input orientation:                          
 ---------------------------------------------------------------------
 Center     Atomic      Atomic             Coordinates (Angstroms)
 Number     Number       Type             X           Y           Z
 ---------------------------------------------------------------------
      1          8           0        5.900000   -0.112300   -0.154700
      2          6           0        5.025700   -0.899800   -0.815700
      3          6           0        4.544300   -2.063600    0.052500
      4          6           0        3.400600   -2.914400   -0.553500
      5          6           0        2.036700   -2.191600   -0.592300
      6          6           0        0.888700   -3.034700   -1.188300
      7          6           0        1.088600   -3.493500   -2.649100
      8          6           0        1.264000   -2.337700   -3.655800
      9          6           0        1.398300   -2.792800   -5.124100
     10          6           0        2.637400   -3.656700   -5.441200
     11          6           0        3.978300   -2.957800   -5.162900
     12          8           0        4.689700   -0.698200   -1.974600
     13          1           0        6.130400    0.564400   -0.792100
     14          1           0        4.255100   -1.680000    1.030700
     15          1           0        5.415900   -2.698200    0.209000
     16          1           0        3.685600   -3.237200   -1.556900
     17          1           0        3.294000   -3.831600    0.028400
     18          1           0        1.761900   -1.898500    0.422200
     19          1           0        2.124100   -1.256100   -1.146200
     20          1           0        0.730400   -3.913500   -0.561100
     21          1           0       -0.037800   -2.461600   -1.122900
     22          1           0        1.942900   -4.168000   -2.702600
     23          1           0        0.227500   -4.094200   -2.946500
     24          1           0        2.132300   -1.734100   -3.388400
     25          1           0        0.408300   -1.665500   -3.575400
     26          1           0        0.499500   -3.341200   -5.410700
     27          1           0        1.414400   -1.908800   -5.763800
     28          1           0        2.593100   -4.595100   -4.887300
     29          1           0        2.603900   -3.940600   -6.494300
     30          1           0        4.053200   -2.012200   -5.701000
     31          1           0        4.110700   -2.746000   -4.101100
     32          1           0        4.816000   -3.582100   -5.474700
 ---------------------------------------------------------------------
                    Distance matrix (angstroms):
                    1          2          3          4          5
     1  O    0.000000
     2  C    1.349621   0.000000
     3  C    2.385042   1.529689   0.000000
     4  C    3.775951   2.601598   1.548918   0.000000
     5  C    4.409089   3.263859   2.592337   1.544075   0.000000
     6  C    5.892527   4.670267   3.980707   2.593662   1.544001
     7  C    6.387810   5.058596   4.613580   3.173679   2.612329
     8  C    6.221142   4.927891   4.958527   3.810762   3.162822
     9  C    7.221172   5.941699   6.101331   4.991430   4.615865
    10  C    7.152231   5.890647   6.029509   5.002309   5.100901
    11  C    6.072221   4.922455   5.321686   4.645663   5.024665
    12  O    2.262773   1.223351   2.448386   2.931356   3.343562
    13  H    0.957750   1.834339   3.183622   4.428407   4.939012
    14  H    2.562919   2.147494   1.089799   2.182568   2.795919
    15  H    2.655844   2.106302   1.089448   2.165544   3.509661
    16  H    4.078570   2.794402   2.169071   1.091896   2.177752
    17  H    4.545102   3.508096   2.165561   1.091433   2.157701
    18  H    4.543919   3.630728   2.811705   2.160875   1.091161
    19  H    4.068018   2.942017   2.818919   2.175018   1.090690
    20  H    6.429545   5.253267   4.283044   2.851004   2.161558
    21  H    6.458645   5.307789   4.747169   3.514518   2.158237
    22  H    6.212820   4.872902   4.334323   2.883580   2.892805
    23  H    7.471742   6.145504   5.634900   4.145714   3.526379
    24  H    5.223276   3.960632   4.214986   3.322401   2.834893
    25  H    6.653750   5.433472   5.516035   4.432323   3.439092
    26  H    8.198581   6.896444   6.916590   5.673705   5.186670
    27  H    7.403379   6.208322   6.606783   5.665990   5.216478
    28  H    7.309486   6.012546   5.883647   4.717905   4.953122
    29  H    8.106213   6.881721   7.081587   6.081194   6.181773
    30  H    6.146685   5.103856   5.774650   5.266556   5.495204
    31  H    5.070704   3.878084   4.231557   3.621887   4.113455
    32  H    6.443366   5.380055   5.738432   5.164048   5.787558
                    6          7          8          9         10
     6  C    0.000000
     7  C    1.544148   0.000000
     8  C    2.591373   1.542752   0.000000
     9  C    3.976019   2.590853   1.543068   0.000000
    10  C    4.640258   3.197067   2.610295   1.543452   0.000000
    11  C    5.034778   3.867367   3.165959   2.585562   1.537506
    12  O    4.530464   4.608316   4.153290   5.013982   4.998197
    13  H    6.370708   6.733108   6.348607   7.240842   7.185601
    14  H    4.253448   5.182319   5.598440   6.876132   6.957714
    15  H    4.749865   5.246595   5.683741   6.677725   6.368952
    16  H    2.828343   2.828957   3.328457   4.260769   4.045057
    17  H    2.810850   3.485270   4.463851   5.587579   5.511646
    18  H    2.155722   3.525655   4.131693   5.629691   6.183626
    19  H    2.165965   2.887374   2.864912   4.325728   4.947058
    20  H    1.091205   2.159734   3.513551   4.745843   5.245757
    21  H    1.091386   2.159371   2.850547   4.263998   5.218493
    22  H    2.165366   1.089789   2.172440   2.837504   2.871182
    23  H    2.156616   1.091229   2.159336   2.793986   3.496077
    24  H    2.842277   2.175170   1.090771   2.161540   2.857535
    25  H    2.793517   2.159265   1.091118   2.156241   3.523489
    26  H    4.251362   2.827838   2.161284   1.091203   2.161270
    27  H    4.741225   3.509811   2.156441   1.091298   2.157534
    28  H    4.361471   2.913174   2.894642   2.175295   1.090579
    29  H    5.649443   4.157114   3.524444   2.156007   1.091211
    30  H    5.605714   4.505241   3.473965   2.826773   2.185490
    31  H    4.353049   3.435134   2.910103   2.899281   2.189944
    32  H    5.839226   4.678181   4.180147   3.525137   2.180134
                   11         12         13         14         15
    11  C    0.000000
    12  O    3.972045   0.000000
    13  H    6.011765   2.251240   0.000000
    14  H    6.330093   3.191338   3.446256   0.000000
    15  H    5.566992   3.048848   3.486728   1.749108   0.000000
    16  H    3.628632   2.762103   4.584117   3.073252   2.530388
    17  H    5.308615   3.972176   5.295583   2.560801   2.412400
    18  H    6.101466   3.969557   5.159864   2.575667   3.746557
    19  H    4.740013   2.753144   4.414753   3.075670   3.840855
    20  H    5.713036   5.292655   7.018899   4.466079   4.901420
    21  H    5.718118   5.117053   6.878430   4.865992   5.618966
    22  H    3.414749   4.484909   6.601574   5.047172   4.764395
    23  H    4.502481   5.691101   7.822290   6.153702   6.231010
    24  H    2.837958   3.100357   5.292323   4.902821   4.965159
    25  H    4.115227   4.672110   6.742525   6.001186   6.361149
    26  H    3.508625   6.029097   8.263910   7.639094   7.494362
    27  H    2.834619   5.152784   7.285271   7.367982   7.232530
    28  H    2.162287   5.297677   7.476871   6.803145   6.126884
    29  H    2.151162   5.940657   8.077519   8.028848   7.374628
    30  H    1.090560   4.002223   5.920382   6.742915   6.103740
    31  H    1.090783   3.008443   5.097786   5.243337   4.503642
    32  H    1.090280   4.536908   6.391232   6.800943   5.783218
                   16         17         18         19         20
    16  H    0.000000
    17  H    1.737768   0.000000
    18  H    3.067503   2.497856   0.000000
    19  H    2.555722   3.062932   1.733132   0.000000
    20  H    3.190957   2.631779   2.468015   3.057207   0.000000
    21  H    3.828005   3.781968   2.437896   2.475396   1.736020
    22  H    2.283861   3.065452   3.866234   3.306717   2.474055
    23  H    3.824120   4.280469   4.303908   3.859143   2.444523
    24  H    2.833098   4.174156   3.832088   2.292599   3.835197
    25  H    4.157557   5.099669   4.226976   3.002098   3.774024
    26  H    5.001382   6.134617   6.139850   5.017263   4.888708
    27  H    4.961956   6.385894   6.195761   4.717194   5.617363
    28  H    3.758858   5.023773   6.012764   5.036339   4.759226
    29  H    5.103211   6.560010   7.260655   6.003243   6.222025
    30  H    4.336971   6.059094   6.538850   5.003930   6.408940
    31  H    2.625822   4.347217   5.166755   3.859769   5.032006
    32  H    4.092178   5.715142   6.850946   5.602902   6.398861
                   21         22         23         24         25
    21  H    0.000000
    22  H    3.054575   0.000000
    23  H    2.461967   1.734223   0.000000
    24  H    3.220416   2.535757   3.064900   0.000000
    25  H    2.616780   3.062562   2.515311   1.735469   0.000000
    26  H    4.409945   3.178177   2.590999   3.055897   2.486888
    27  H    4.894122   3.841125   3.757910   2.487655   2.420852
    28  H    5.064007   2.319071   3.100592   3.262569   3.882910
    29  H    6.165870   3.855596   4.272909   3.838966   4.303105
    30  H    6.156074   4.253380   5.153443   3.019158   4.233636
    31  H    5.114744   2.945716   4.269659   2.333656   3.892506
    32  H    6.614609   4.035161   5.263874   3.869108   5.168028
                   26         27         28         29         30
    26  H    0.000000
    27  H    1.735941   0.000000
    28  H    2.495871   3.061665   0.000000
    29  H    2.441714   2.465107   1.735205   0.000000
    30  H    3.805167   2.641572   3.076584   2.539394   0.000000
    31  H    3.887169   3.276509   2.518013   3.070004   1.761093
    32  H    4.323691   3.801894   2.512467   2.462010   1.760017
                   31         32
    31  H    0.000000
    32  H    1.755929   0.000000
 Stoichiometry    C10H20O2
 Framework group  C1[X(C10H20O2)]
 Deg. of freedom    90
 Full point group                 C1      NOp   1
 Largest Abelian subgroup         C1      NOp   1
 Largest concise Abelian subgroup C1      NOp   1
                         Standard orientation:                         
 ---------------------------------------------------------------------
 Center     Atomic      Atomic             Coordinates (Angstroms)
 Number     Number       Type             X           Y           Z
 ---------------------------------------------------------------------
      1          8           0        3.968081   -1.199440   -0.421617
      2          6           0        2.701818   -0.797003   -0.184759
      3          6           0        2.657222    0.399688    0.767023
      4          6           0        1.262853    1.048176    0.952345
      5          6           0        0.767784    1.830263   -0.283541
      6          6           0       -0.618492    2.486390   -0.105562
      7          6           0       -1.782054    1.514864    0.188811
      8          6           0       -2.010168    0.452323   -0.906202
      9          6           0       -3.213460   -0.477496   -0.644315
     10          6           0       -3.106728   -1.363475    0.615007
     11          6           0       -1.909397   -2.327953    0.604827
     12          8           0        1.723879   -1.350491   -0.668364
     13          1           0        3.867474   -1.944841   -1.014527
     14          1           0        3.381084    1.143654    0.435061
     15          1           0        3.007774    0.027644    1.729101
     16          1           0        0.540616    0.275908    1.224762
     17          1           0        1.298235    1.728032    1.805441
     18          1           0        1.492724    2.609683   -0.523540
     19          1           0        0.749967    1.177785   -1.157359
     20          1           0       -0.562548    3.223283    0.697300
     21          1           0       -0.854885    3.056363   -1.005768
     22          1           0       -1.613874    1.029986    1.150191
     23          1           0       -2.697358    2.095532    0.314603
     24          1           0       -1.112454   -0.153598   -1.035620
     25          1           0       -2.159729    0.956112   -1.862428
     26          1           0       -4.121364    0.124406   -0.579904
     27          1           0       -3.353758   -1.120860   -1.514563
     28          1           0       -3.066693   -0.741456    1.509911
     29          1           0       -4.023986   -1.947007    0.709179
     30          1           0       -1.918287   -2.963721   -0.281199
     31          1           0       -0.959212   -1.792448    0.618658
     32          1           0       -1.925680   -2.979672    1.478731
 ---------------------------------------------------------------------
 Rotational constants (GHZ):           1.1028643           0.4714917           0.3687820
 Standard basis: 6-31G(d,p) (6D, 7F)
 There are   280 symmetry adapted cartesian basis functions of A   symmetry.
 There are   280 symmetry adapted basis functions of A   symmetry.
   280 basis functions,   476 primitive gaussians,   280 cartesian basis functions
    48 alpha electrons       48 beta electrons
       nuclear repulsion energy       739.7704634071 Hartrees.
 NAtoms=   32 NActive=   32 NUniq=   32 SFac= 1.00D+00 NAtFMM=   60 NAOKFM=F Big=F
 Integral buffers will be    131072 words long.
 Raffenetti 2 integral format.
 Two-electron integral symmetry is turned on.
 Nuclear repulsion after empirical dispersion term =      739.7204876791 Hartrees.
 One-electron integrals computed using PRISM.
 NBasis=   280 RedAO= T EigKep=  3.33D-03  NBF=   280
 NBsUse=   280 1.00D-06 EigRej= -1.00D+00 NBFU=   280
 ExpMin= 1.61D-01 ExpMax= 5.48D+03 ExpMxC= 8.25D+02 IAcc=3 IRadAn=         5 AccDes= 0.00D+00
 Harris functional with IExCor=  402 and IRadAn=       5 diagonalized for initial guess.
 HarFok:  IExCor=  402 AccDes= 0.00D+00 IRadAn=         5 IDoV= 1 UseB2=F ITyADJ=14
 ICtDFT=  3500011 ScaDFX=  1.000000  1.000000  1.000000  1.000000
 FoFCou: FMM=F IPFlag=           0 FMFlag=      100000 FMFlg1=           0
         NFxFlg=           0 DoJE=T BraDBF=F KetDBF=T FulRan=T
         wScrn=  0.000000 ICntrl=       500 IOpCl=  0 I1Cent=   200000004 NGrid=           0
         NMat0=    1 NMatS0=      1 NMatT0=    0 NMatD0=    1 NMtDS0=    0 NMtDT0=    0
 Petite list used in FoFCou.
 Requested convergence on RMS density matrix=1.00D-08 within 128 cycles.
 Requested convergence on MAX density matrix=1.00D-06.
 Requested convergence on             energy=1.00D-06.
 No special actions if energy rises.
 Integral accuracy reduced to 1.0D-05 until final iterations.
 Initial convergence to 1.0D-05 achieved.  Increase integral accuracy.
 SCF Done:  E(RB3LYP) =  -543.668118413     A.U. after   13 cycles
            NFock= 13  Conv=0.87D-08     -V/T= 2.0097

 **********************************************************************

            Population analysis using the SCF Density.

 **********************************************************************

 Orbital symmetries:
       Occupied  (A) (A) (A) (A) (A) (A) (A) (A) (A) (A) (A) (A)
                 (A) (A) (A) (A) (A) (A) (A) (A) (A) (A) (A) (A)
                 (A) (A) (A) (A) (A) (A) (A) (A) (A) (A) (A) (A)
                 (A) (A) (A) (A) (A) (A) (A) (A) (A) (A) (A) (A)
       Virtual   (A) (A) (A) (A) (A) (A) (A) (A) (A) (A) (A) (A)
                 (A) (A) (A) (A) (A) (A) (A) (A) (A) (A) (A) (A)
                 (A) (A) (A) (A) (A) (A) (A) (A) (A) (A) (A) (A)
                 (A) (A) (A) (A) (A) (A) (A) (A) (A) (A) (A) (A)
                 (A) (A) (A) (A) (A) (A) (A) (A) (A) (A) (A) (A)
                 (A) (A) (A) (A) (A) (A) (A) (A) (A) (A) (A) (A)
                 (A) (A) (A) (A) (A) (A) (A) (A) (A) (A) (A) (A)
                 (A) (A) (A) (A) (A) (A) (A) (A) (A) (A) (A) (A)
                 (A) (A) (A) (A) (A) (A) (A) (A) (A) (A) (A) (A)
                 (A) (A) (A) (A) (A) (A) (A) (A) (A) (A) (A) (A)
                 (A) (A) (A) (A) (A) (A) (A) (A) (A) (A) (A) (A)
                 (A) (A) (A) (A) (A) (A) (A) (A) (A) (A) (A) (A)
                 (A) (A) (A) (A) (A) (A) (A) (A) (A) (A) (A) (A)
                 (A) (A) (A) (A) (A) (A) (A) (A) (A) (A) (A) (A)
                 (A) (A) (A) (A) (A) (A) (A) (A) (A) (A) (A) (A)
                 (A) (A) (A) (A) (A) (A) (A) (A) (A) (A) (A) (A)
                 (A) (A) (A) (A) (A) (A) (A) (A) (A) (A) (A) (A)
                 (A) (A) (A) (A) (A) (A) (A) (A) (A) (A) (A) (A)
                 (A) (A) (A) (A) (A) (A) (A) (A) (A) (A) (A) (A)
                 (A) (A) (A) (A)
 The electronic state is 1-A.
 Alpha  occ. eigenvalues --  -19.20212 -19.14318 -10.32551 -10.20310 -10.18552
 Alpha  occ. eigenvalues --  -10.17460 -10.17358 -10.16921 -10.16829 -10.16696
 Alpha  occ. eigenvalues --  -10.16460 -10.15850  -1.11167  -1.01513  -0.80767
 Alpha  occ. eigenvalues --   -0.78810  -0.76055  -0.72045  -0.68297  -0.64640
 Alpha  occ. eigenvalues --   -0.61613  -0.58674  -0.56391  -0.53758  -0.49690
 Alpha  occ. eigenvalues --   -0.48571  -0.47181  -0.45926  -0.45149  -0.43744
 Alpha  occ. eigenvalues --   -0.42587  -0.41102  -0.40379  -0.39327  -0.38568
 Alpha  occ. eigenvalues --   -0.37479  -0.37042  -0.35725  -0.34844  -0.34186
 Alpha  occ. eigenvalues --   -0.32652  -0.32078  -0.31944  -0.31446  -0.30129
 Alpha  occ. eigenvalues --   -0.29975  -0.29663  -0.27648
 Alpha virt. eigenvalues --    0.00609   0.07793   0.08158   0.10226   0.11357
 Alpha virt. eigenvalues --    0.12160   0.12766   0.15004   0.15227   0.16278
 Alpha virt. eigenvalues --    0.16564   0.16844   0.17799   0.18024   0.18921
 Alpha virt. eigenvalues --    0.19236   0.20204   0.20819   0.21442   0.22226
 Alpha virt. eigenvalues --    0.23032   0.23564   0.24078   0.24544   0.25103
 Alpha virt. eigenvalues --    0.25653   0.26324   0.28395   0.29625   0.30567
 Alpha virt. eigenvalues --    0.31629   0.36916   0.49276   0.50488   0.51126
 Alpha virt. eigenvalues --    0.51572   0.52846   0.53282   0.54082   0.55423
 Alpha virt. eigenvalues --    0.56985   0.57913   0.58942   0.61935   0.62812
 Alpha virt. eigenvalues --    0.63368   0.64905   0.65899   0.66098   0.68037
 Alpha virt. eigenvalues --    0.68844   0.69748   0.70147   0.71327   0.72513
 Alpha virt. eigenvalues --    0.75961   0.77551   0.79884   0.80497   0.82094
 Alpha virt. eigenvalues --    0.83684   0.84961   0.85420   0.86392   0.87211
 Alpha virt. eigenvalues --    0.87614   0.88404   0.89351   0.89597   0.89895
 Alpha virt. eigenvalues --    0.91912   0.92017   0.92629   0.93503   0.94407
 Alpha virt. eigenvalues --    0.95207   0.96344   0.96558   0.97253   0.97833
 Alpha virt. eigenvalues --    0.98675   1.00115   1.04317   1.05374   1.06608
 Alpha virt. eigenvalues --    1.08352   1.10554   1.14118   1.16431   1.19596
 Alpha virt. eigenvalues --    1.23576   1.26517   1.29186   1.31161   1.34317
 Alpha virt. eigenvalues --    1.38156   1.39443   1.41748   1.43927   1.49140
 Alpha virt. eigenvalues --    1.50631   1.52620   1.54064   1.55394   1.58014
 Alpha virt. eigenvalues --    1.59731   1.62265   1.64154   1.65561   1.67909
 Alpha virt. eigenvalues --    1.69284   1.70737   1.72609   1.73898   1.75407
 Alpha virt. eigenvalues --    1.76183   1.77650   1.79812   1.81530   1.82540
 Alpha virt. eigenvalues --    1.83799   1.86453   1.87607   1.88359   1.89340
 Alpha virt. eigenvalues --    1.89849   1.90555   1.91641   1.94621   1.98639
 Alpha virt. eigenvalues --    1.98768   2.00415   2.02324   2.03872   2.07277
 Alpha virt. eigenvalues --    2.10938   2.12816   2.13204   2.13584   2.15896
 Alpha virt. eigenvalues --    2.16450   2.17269   2.19325   2.20345   2.22056
 Alpha virt. eigenvalues --    2.22192   2.23796   2.25181   2.26474   2.27121
 Alpha virt. eigenvalues --    2.28125   2.28540   2.29377   2.29817   2.30560
 Alpha virt. eigenvalues --    2.33953   2.34506   2.37780   2.38531   2.39624
 Alpha virt. eigenvalues --    2.43359   2.44224   2.47094   2.49661   2.51428
 Alpha virt. eigenvalues --    2.53127   2.55335   2.55522   2.57404   2.58959
 Alpha virt. eigenvalues --    2.59266   2.60966   2.64276   2.65250   2.66645
 Alpha virt. eigenvalues --    2.67776   2.69650   2.72644   2.74245   2.74878
 Alpha virt. eigenvalues --    2.76201   2.78815   2.79790   2.80296   2.82415
 Alpha virt. eigenvalues --    2.83969   2.84106   2.86167   2.89404   2.90460
 Alpha virt. eigenvalues --    2.90873   2.92005   2.92235   2.92684   2.92907
 Alpha virt. eigenvalues --    2.93493   2.95478   2.97298   3.02071   3.14929
 Alpha virt. eigenvalues --    3.21950   3.27335   3.29726   3.31427   3.32512
 Alpha virt. eigenvalues --    3.33266   3.35731   3.37567   3.39760   3.41402
 Alpha virt. eigenvalues --    3.42410   3.45194   3.45800   3.47698   3.51137
 Alpha virt. eigenvalues --    3.53476   3.56196   3.59188   3.59490   3.61339
 Alpha virt. eigenvalues --    3.92917   4.16222   4.25054   4.26904   4.35133
 Alpha virt. eigenvalues --    4.43733   4.57875   4.61799   4.63790   4.66362
 Alpha virt. eigenvalues --    4.70523   4.74932
          Condensed to atoms (all electrons):
               1          2          3          4          5          6
     1  O    8.110952   0.257288  -0.094585   0.002563  -0.000020  -0.000000
     2  C    0.257288   4.383614   0.326095  -0.033160  -0.003016   0.000076
     3  C   -0.094585   0.326095   5.143199   0.339057  -0.035863   0.003530
     4  C    0.002563  -0.033160   0.339057   4.910929   0.380028  -0.039244
     5  C   -0.000020  -0.003016  -0.035863   0.380028   4.910692   0.372266
     6  C   -0.000000   0.000076   0.003530  -0.039244   0.372266   4.910076
     7  C    0.000000  -0.000018   0.000166  -0.004395  -0.043995   0.372313
     8  C   -0.000000  -0.000035   0.000048  -0.001655  -0.003292  -0.040079
     9  C    0.000000   0.000001   0.000000   0.000018   0.000165   0.003771
    10  C    0.000000  -0.000001  -0.000000   0.000003  -0.000026   0.000161
    11  C   -0.000000  -0.000003   0.000021  -0.000248   0.000008   0.000006
    12  O   -0.079157   0.559554  -0.085265   0.006095  -0.003510   0.000034
    13  H    0.268207  -0.009383   0.011163  -0.000319   0.000008  -0.000000
    14  H    0.002794  -0.025473   0.365329  -0.035790  -0.005133  -0.000026
    15  H    0.001749  -0.026349   0.364623  -0.027609   0.003727  -0.000127
    16  H    0.000077  -0.006512  -0.034679   0.384688  -0.034671  -0.005291
    17  H   -0.000048   0.004583  -0.029741   0.371843  -0.040618  -0.002102
    18  H   -0.000003  -0.000410  -0.003981  -0.042306   0.373716  -0.031257
    19  H   -0.000090   0.004209  -0.005331  -0.039845   0.385389  -0.033773
    20  H   -0.000000  -0.000000   0.000012  -0.006657  -0.039519   0.375141
    21  H   -0.000000  -0.000001  -0.000143   0.004742  -0.033623   0.376970
    22  H   -0.000000  -0.000009  -0.000073   0.003531  -0.007971  -0.037415
    23  H    0.000000   0.000000  -0.000002   0.000093   0.005078  -0.032335
    24  H    0.000004   0.000119  -0.000209   0.000318   0.001792  -0.004732
    25  H    0.000000  -0.000001   0.000000   0.000109  -0.001191  -0.002658
    26  H   -0.000000  -0.000000   0.000000  -0.000001   0.000005   0.000005
    27  H   -0.000000   0.000000  -0.000000  -0.000001   0.000004  -0.000154
    28  H    0.000000   0.000000  -0.000000  -0.000004   0.000010  -0.000117
    29  H   -0.000000   0.000000   0.000000  -0.000000   0.000000  -0.000001
    30  H   -0.000000   0.000002  -0.000000   0.000008  -0.000001   0.000000
    31  H    0.000006   0.000267  -0.000133  -0.000360   0.000035  -0.000052
    32  H    0.000000  -0.000001  -0.000000   0.000003   0.000000   0.000000
               7          8          9         10         11         12
     1  O    0.000000  -0.000000   0.000000   0.000000  -0.000000  -0.079157
     2  C   -0.000018  -0.000035   0.000001  -0.000001  -0.000003   0.559554
     3  C    0.000166   0.000048   0.000000  -0.000000   0.000021  -0.085265
     4  C   -0.004395  -0.001655   0.000018   0.000003  -0.000248   0.006095
     5  C   -0.043995  -0.003292   0.000165  -0.000026   0.000008  -0.003510
     6  C    0.372313  -0.040079   0.003771   0.000161   0.000006   0.000034
     7  C    4.905695   0.380300  -0.039200  -0.004481  -0.001333   0.000029
     8  C    0.380300   4.920178   0.371588  -0.044322  -0.002515  -0.000864
     9  C   -0.039200   0.371588   4.902537   0.382905  -0.047754   0.000006
    10  C   -0.004481  -0.044322   0.382905   4.875389   0.372603   0.000014
    11  C   -0.001333  -0.002515  -0.047754   0.372603   4.934264  -0.001075
    12  O    0.000029  -0.000864   0.000006   0.000014  -0.001075   8.043044
    13  H   -0.000000   0.000000  -0.000000  -0.000000   0.000000   0.011065
    14  H    0.000003  -0.000000   0.000000   0.000000  -0.000000   0.001886
    15  H    0.000004  -0.000001  -0.000000  -0.000000   0.000000   0.000553
    16  H    0.002829   0.000247  -0.000094   0.000028   0.000088   0.003159
    17  H   -0.000897   0.000088   0.000000  -0.000000   0.000003   0.000250
    18  H    0.004934   0.000093  -0.000002   0.000000  -0.000000   0.000094
    19  H   -0.007228   0.003388  -0.000116   0.000010  -0.000012   0.005149
    20  H   -0.034396   0.004695  -0.000147   0.000003  -0.000000  -0.000001
    21  H   -0.038113  -0.006440  -0.000009   0.000003  -0.000000   0.000000
    22  H    0.383434  -0.040518  -0.004560   0.002425   0.000405  -0.000016
    23  H    0.377259  -0.041241  -0.002946  -0.000869   0.000083  -0.000000
    24  H   -0.037783   0.385065  -0.035079  -0.007865   0.003321   0.004034
    25  H   -0.042521   0.376076  -0.032235   0.005054   0.000043   0.000002
    26  H   -0.007164  -0.039280   0.376362  -0.035601   0.005208  -0.000000
    27  H    0.004731  -0.033946   0.376268  -0.038981  -0.006450  -0.000000
    28  H    0.003181  -0.007311  -0.038474   0.385160  -0.040555  -0.000000
    29  H    0.000100   0.004942  -0.033266   0.381321  -0.039636  -0.000000
    30  H    0.000086  -0.000948  -0.004034  -0.036350   0.387210   0.000014
    31  H    0.000229   0.001712  -0.004919  -0.032608   0.386064   0.004980
    32  H   -0.000002   0.000126   0.004517  -0.028314   0.377316   0.000005
              13         14         15         16         17         18
     1  O    0.268207   0.002794   0.001749   0.000077  -0.000048  -0.000003
     2  C   -0.009383  -0.025473  -0.026349  -0.006512   0.004583  -0.000410
     3  C    0.011163   0.365329   0.364623  -0.034679  -0.029741  -0.003981
     4  C   -0.000319  -0.035790  -0.027609   0.384688   0.371843  -0.042306
     5  C    0.000008  -0.005133   0.003727  -0.034671  -0.040618   0.373716
     6  C   -0.000000  -0.000026  -0.000127  -0.005291  -0.002102  -0.031257
     7  C   -0.000000   0.000003   0.000004   0.002829  -0.000897   0.004934
     8  C    0.000000  -0.000000  -0.000001   0.000247   0.000088   0.000093
     9  C   -0.000000   0.000000  -0.000000  -0.000094   0.000000  -0.000002
    10  C   -0.000000   0.000000  -0.000000   0.000028  -0.000000   0.000000
    11  C    0.000000  -0.000000   0.000000   0.000088   0.000003  -0.000000
    12  O    0.011065   0.001886   0.000553   0.003159   0.000250   0.000094
    13  H    0.400022  -0.000381  -0.000376  -0.000009   0.000004  -0.000001
    14  H   -0.000381   0.585000  -0.027332   0.005125  -0.002038   0.005322
    15  H   -0.000376  -0.027332   0.580658  -0.001400  -0.004146   0.000015
    16  H   -0.000009   0.005125  -0.001400   0.601731  -0.039831   0.005908
    17  H    0.000004  -0.002038  -0.004146  -0.039831   0.646706  -0.006261
    18  H   -0.000001   0.005322   0.000015   0.005908  -0.006261   0.660645
    19  H    0.000008  -0.000501   0.000090  -0.005334   0.006007  -0.039851
    20  H    0.000000  -0.000001  -0.000000  -0.000308   0.004930  -0.004603
    21  H    0.000000  -0.000005   0.000002   0.000006  -0.000047  -0.003635
    22  H    0.000000  -0.000002   0.000008   0.001628   0.000406  -0.000036
    23  H   -0.000000   0.000000  -0.000000  -0.000097  -0.000038  -0.000154
    24  H   -0.000001  -0.000000   0.000002   0.000169  -0.000008  -0.000031
    25  H   -0.000000  -0.000000   0.000000  -0.000017  -0.000001  -0.000045
    26  H    0.000000  -0.000000  -0.000000   0.000001  -0.000000   0.000000
    27  H    0.000000  -0.000000  -0.000000   0.000001   0.000000  -0.000000
    28  H   -0.000000  -0.000000  -0.000000  -0.000010  -0.000001  -0.000000
    29  H    0.000000  -0.000000   0.000000   0.000001   0.000000  -0.000000
    30  H    0.000000   0.000000  -0.000000  -0.000021  -0.000000   0.000000
    31  H   -0.000003   0.000002  -0.000003   0.003106  -0.000002   0.000001
    32  H   -0.000000   0.000000  -0.000000  -0.000003  -0.000000   0.000000
              19         20         21         22         23         24
     1  O   -0.000090  -0.000000  -0.000000  -0.000000   0.000000   0.000004
     2  C    0.004209  -0.000000  -0.000001  -0.000009   0.000000   0.000119
     3  C   -0.005331   0.000012  -0.000143  -0.000073  -0.000002  -0.000209
     4  C   -0.039845  -0.006657   0.004742   0.003531   0.000093   0.000318
     5  C    0.385389  -0.039519  -0.033623  -0.007971   0.005078   0.001792
     6  C   -0.033773   0.375141   0.376970  -0.037415  -0.032335  -0.004732
     7  C   -0.007228  -0.034396  -0.038113   0.383434   0.377259  -0.037783
     8  C    0.003388   0.004695  -0.006440  -0.040518  -0.041241   0.385065
     9  C   -0.000116  -0.000147  -0.000009  -0.004560  -0.002946  -0.035079
    10  C    0.000010   0.000003   0.000003   0.002425  -0.000869  -0.007865
    11  C   -0.000012  -0.000000  -0.000000   0.000405   0.000083   0.003321
    12  O    0.005149  -0.000001   0.000000  -0.000016  -0.000000   0.004034
    13  H    0.000008   0.000000   0.000000   0.000000  -0.000000  -0.000001
    14  H   -0.000501  -0.000001  -0.000005  -0.000002   0.000000  -0.000000
    15  H    0.000090  -0.000000   0.000002   0.000008  -0.000000   0.000002
    16  H   -0.005334  -0.000308   0.000006   0.001628  -0.000097   0.000169
    17  H    0.006007   0.004930  -0.000047   0.000406  -0.000038  -0.000008
    18  H   -0.039851  -0.004603  -0.003635  -0.000036  -0.000154  -0.000031
    19  H    0.609756   0.005841  -0.003707   0.000133  -0.000014   0.001542
    20  H    0.005841   0.658221  -0.039563  -0.003762  -0.003389  -0.000054
    21  H   -0.003707  -0.039563   0.648796   0.006074  -0.004625  -0.000314
    22  H    0.000133  -0.003762   0.006074   0.642586  -0.041275  -0.005853
    23  H   -0.000014  -0.003389  -0.004625  -0.041275   0.653892   0.005860
    24  H    0.001542  -0.000054  -0.000314  -0.005853   0.005860   0.604619
    25  H    0.000614   0.000003   0.005203   0.006284  -0.005901  -0.039505
    26  H   -0.000001  -0.000005  -0.000002  -0.000329   0.005565   0.005830
    27  H    0.000009   0.000003  -0.000004  -0.000021   0.000002  -0.003260
    28  H    0.000000   0.000009  -0.000000   0.002130   0.000393   0.000054
    29  H   -0.000000  -0.000000   0.000000  -0.000094  -0.000037   0.000009
    30  H   -0.000001   0.000000  -0.000000  -0.000010  -0.000001   0.000507
    31  H   -0.000010  -0.000000   0.000001   0.000107  -0.000021   0.001221
    32  H    0.000000  -0.000000   0.000000  -0.000035   0.000000  -0.000134
              25         26         27         28         29         30
     1  O    0.000000  -0.000000  -0.000000   0.000000  -0.000000  -0.000000
     2  C   -0.000001  -0.000000   0.000000   0.000000   0.000000   0.000002
     3  C    0.000000   0.000000  -0.000000  -0.000000   0.000000  -0.000000
     4  C    0.000109  -0.000001  -0.000001  -0.000004  -0.000000   0.000008
     5  C   -0.001191   0.000005   0.000004   0.000010   0.000000  -0.000001
     6  C   -0.002658   0.000005  -0.000154  -0.000117  -0.000001   0.000000
     7  C   -0.042521  -0.007164   0.004731   0.003181   0.000100   0.000086
     8  C    0.376076  -0.039280  -0.033946  -0.007311   0.004942  -0.000948
     9  C   -0.032235   0.376362   0.376268  -0.038474  -0.033266  -0.004034
    10  C    0.005054  -0.035601  -0.038981   0.385160   0.381321  -0.036350
    11  C    0.000043   0.005208  -0.006450  -0.040555  -0.039636   0.387210
    12  O    0.000002  -0.000000  -0.000000  -0.000000  -0.000000   0.000014
    13  H   -0.000000   0.000000   0.000000  -0.000000   0.000000   0.000000
    14  H   -0.000000  -0.000000  -0.000000  -0.000000  -0.000000   0.000000
    15  H    0.000000  -0.000000  -0.000000  -0.000000   0.000000  -0.000000
    16  H   -0.000017   0.000001   0.000001  -0.000010   0.000001  -0.000021
    17  H   -0.000001  -0.000000   0.000000  -0.000001   0.000000  -0.000000
    18  H   -0.000045   0.000000  -0.000000  -0.000000  -0.000000   0.000000
    19  H    0.000614  -0.000001   0.000009   0.000000  -0.000000  -0.000001
    20  H    0.000003  -0.000005   0.000003   0.000009  -0.000000   0.000000
    21  H    0.005203  -0.000002  -0.000004  -0.000000   0.000000  -0.000000
    22  H    0.006284  -0.000329  -0.000021   0.002130  -0.000094  -0.000010
    23  H   -0.005901   0.005565   0.000002   0.000393  -0.000037  -0.000001
    24  H   -0.039505   0.005830  -0.003260   0.000054   0.000009   0.000507
    25  H    0.656920  -0.003916  -0.004162  -0.000019  -0.000164  -0.000037
    26  H   -0.003916   0.658103  -0.039874  -0.003739  -0.003484   0.000012
    27  H   -0.004162  -0.039874   0.653660   0.006190  -0.004532   0.005036
    28  H   -0.000019  -0.003739   0.006190   0.645520  -0.040299   0.005558
    29  H   -0.000164  -0.003484  -0.004532  -0.040299   0.651531  -0.004358
    30  H   -0.000037   0.000012   0.005036   0.005558  -0.004358   0.609957
    31  H   -0.000056  -0.000042  -0.000248  -0.005288   0.005269  -0.031563
    32  H   -0.000001  -0.000182  -0.000015  -0.002511  -0.004268  -0.033126
              31         32
     1  O    0.000006   0.000000
     2  C    0.000267  -0.000001
     3  C   -0.000133  -0.000000
     4  C   -0.000360   0.000003
     5  C    0.000035   0.000000
     6  C   -0.000052   0.000000
     7  C    0.000229  -0.000002
     8  C    0.001712   0.000126
     9  C   -0.004919   0.004517
    10  C   -0.032608  -0.028314
    11  C    0.386064   0.377316
    12  O    0.004980   0.000005
    13  H   -0.000003  -0.000000
    14  H    0.000002   0.000000
    15  H   -0.000003  -0.000000
    16  H    0.003106  -0.000003
    17  H   -0.000002  -0.000000
    18  H    0.000001   0.000000
    19  H   -0.000010   0.000000
    20  H   -0.000000  -0.000000
    21  H    0.000001   0.000000
    22  H    0.000107  -0.000035
    23  H   -0.000021   0.000000
    24  H    0.001221  -0.000134
    25  H   -0.000056  -0.000001
    26  H   -0.000042  -0.000182
    27  H   -0.000248  -0.000015
    28  H   -0.005288  -0.002511
    29  H    0.005269  -0.004268
    30  H   -0.031563  -0.033126
    31  H    0.577976  -0.031232
    32  H   -0.031232   0.625682
 Mulliken charges:
               1
     1  O   -0.469735
     2  C    0.568565
     3  C   -0.263235
     4  C   -0.172434
     5  C   -0.180473
     6  C   -0.184985
     7  C   -0.173767
     8  C   -0.186099
     9  C   -0.175304
    10  C   -0.175663
    11  C   -0.327060
    12  O   -0.470080
    13  H    0.319996
    14  H    0.131220
    15  H    0.135913
    16  H    0.119485
    17  H    0.090959
    18  H    0.081849
    19  H    0.113670
    20  H    0.083548
    21  H    0.088435
    22  H    0.092828
    23  H    0.084721
    24  H    0.120362
    25  H    0.082123
    26  H    0.082529
    27  H    0.085743
    28  H    0.090124
    29  H    0.086967
    30  H    0.102061
    31  H    0.125565
    32  H    0.092172
 Sum of Mulliken charges =  -0.00000
 Mulliken charges with hydrogens summed into heavy atoms:
               1
     1  O   -0.149739
     2  C    0.568565
     3  C    0.003898
     4  C    0.038009
     5  C    0.015046
     6  C   -0.013002
     7  C    0.003782
     8  C    0.016386
     9  C   -0.007032
    10  C    0.001428
    11  C   -0.007261
    12  O   -0.470080
 Electronic spatial extent (au):  <R**2>=           3136.8055
 Charge=              0.0000 electrons
 Dipole moment (field-independent basis, Debye):
    X=              1.4249    Y=              0.4744    Z=              0.4333  Tot=              1.5630
 Quadrupole moment (field-independent basis, Debye-Ang):
   XX=            -72.9735   YY=            -74.8924   ZZ=            -74.5553
   XY=             -2.3229   XZ=             -0.8442   YZ=              1.0713
 Traceless Quadrupole moment (field-independent basis, Debye-Ang):
   XX=              1.1669   YY=             -0.7520   ZZ=             -0.4149
   XY=             -2.3229   XZ=             -0.8442   YZ=              1.0713
 Octapole moment (field-independent basis, Debye-Ang**2):
  XXX=             34.1988  YYY=            -17.0424  ZZZ=             -4.7352  XYY=             22.1402
  XXY=            -16.4290  XXZ=            -11.0792  XZZ=             16.2809  YZZ=             -5.9711
  YYZ=             -5.3961  XYZ=              7.3379
 Hexadecapole moment (field-independent basis, Debye-Ang**3):
 XXXX=          -2700.6107 YYYY=          -1138.0126 ZZZZ=           -319.1506 XXXY=            -87.5874
 XXXZ=            -56.1205 YYYX=            -65.6100 YYYZ=             18.3908 ZZZX=            -14.4617
 ZZZY=              9.9696 XXYY=           -571.3368 XXZZ=           -469.9555 YYZZ=           -236.2845
 XXYZ=             38.8361 YYXZ=            -21.7700 ZZXY=            -22.8175
 N-N= 7.397204876791D+02 E-N=-2.743000808046D+03  KE= 5.384465968658D+02
 Calling FoFJK, ICntrl=      2127 FMM=F ISym2X=0 I1Cent= 0 IOpClX= 0 NMat=1 NMatS=1 NMatT=0.
 ***** Axes restored to original set *****
 -------------------------------------------------------------------
 Center     Atomic                   Forces (Hartrees/Bohr)
 Number     Number              X              Y              Z
 -------------------------------------------------------------------
      1        8          -0.004954853   -0.008509132    0.004698098
      2        6          -0.017160596   -0.013159135   -0.009714923
      3        6          -0.006337541   -0.002048461   -0.010166201
      4        6          -0.001160484    0.010792476   -0.002182283
      5        6           0.001702315   -0.003994044   -0.004021148
      6        6           0.005849534    0.001000890   -0.003824919
      7        6           0.001294631    0.008433842    0.001166026
      8        6           0.002528833   -0.006655282   -0.000969631
      9        6           0.003963313   -0.002214607    0.005161378
     10        6           0.001000862    0.006969934    0.001315278
     11        6          -0.004693204   -0.003760173    0.002001154
     12        8           0.006753122   -0.000036093    0.015566000
     13        1           0.006720290    0.012865432   -0.008062803
     14        1           0.000943167    0.002584605    0.003392117
     15        1           0.004714948   -0.001876436    0.002873767
     16        1           0.001044604    0.001999342   -0.002214026
     17        1           0.001009414   -0.001751701    0.004026928
     18        1          -0.000919673   -0.000344502    0.004992744
     19        1           0.002695662    0.001520536   -0.002982359
     20        1           0.000381330   -0.004338670    0.002303931
     21        1          -0.002759884    0.003508991   -0.000124256
     22        1           0.004211192   -0.001705214   -0.000453427
     23        1          -0.003948790   -0.001875860   -0.001011877
     24        1           0.003449027    0.000638860    0.001613071
     25        1          -0.004394304    0.001901302    0.000351183
     26        1          -0.003543948   -0.003518057   -0.000507017
     27        1           0.001391130    0.003990188   -0.001959809
     28        1          -0.000403880   -0.003007584    0.003211924
     29        1          -0.001246509   -0.000439983   -0.003999659
     30        1          -0.000489143    0.002979101   -0.001279077
     31        1           0.000255592    0.002135543    0.002103423
     32        1           0.002103841   -0.002086110   -0.001303604
 -------------------------------------------------------------------
 Cartesian Forces:  Max     0.017160596 RMS     0.004819332

 GradGradGradGradGradGradGradGradGradGradGradGradGradGradGradGradGradGrad
 Berny optimization.
 FormGI is forming the generalized inverse of G from B-inverse, IUseBI=4.
 Internal  Forces:  Max     0.016606645 RMS     0.003352856
 Search for a local minimum.
 Step number   1 out of a maximum of  179
 All quantities printed in internal units (Hartrees-Bohrs-Radians)
 Mixed Optimization -- RFO/linear search
 Second derivative matrix not updated -- first step.
 ITU=  0
     Eigenvalues ---    0.00230   0.00230   0.00230   0.00230   0.00230
     Eigenvalues ---    0.00230   0.00230   0.00270   0.00373   0.00852
     Eigenvalues ---    0.02358   0.03128   0.03132   0.03225   0.03239
     Eigenvalues ---    0.03239   0.03258   0.03269   0.03666   0.04653
     Eigenvalues ---    0.04654   0.04672   0.04677   0.04678   0.04687
     Eigenvalues ---    0.04697   0.05201   0.05349   0.05432   0.08515
     Eigenvalues ---    0.08566   0.08567   0.08570   0.08588   0.08782
     Eigenvalues ---    0.08790   0.09769   0.12352   0.12388   0.12389
     Eigenvalues ---    0.12390   0.12404   0.12538   0.12543   0.13094
     Eigenvalues ---    0.16000   0.16000   0.16000   0.16000   0.21890
     Eigenvalues ---    0.21893   0.21894   0.21894   0.21896   0.21926
     Eigenvalues ---    0.21927   0.22000   0.24998   0.25000   0.27743
     Eigenvalues ---    0.28155   0.28161   0.28167   0.28215   0.28249
     Eigenvalues ---    0.28277   0.28741   0.29452   0.34594   0.34648
     Eigenvalues ---    0.34653   0.34663   0.34671   0.34673   0.34674
     Eigenvalues ---    0.34674   0.34679   0.34684   0.34722   0.34724
     Eigenvalues ---    0.34733   0.34746   0.34748   0.34780   0.34836
     Eigenvalues ---    0.34837   0.34877   0.55102   0.55960   0.93914
 RFO step:  Lambda=-7.33771907D-03 EMin= 2.30000000D-03
 Linear search not attempted -- first point.
 Iteration  1 RMS(Cart)=  0.21028968 RMS(Int)=  0.00429888
 Iteration  2 RMS(Cart)=  0.01056471 RMS(Int)=  0.00015823
 Iteration  3 RMS(Cart)=  0.00004126 RMS(Int)=  0.00015708
 Iteration  4 RMS(Cart)=  0.00000002 RMS(Int)=  0.00015708
 Variable       Old X    -DE/DX   Delta X   Delta X   Delta X     New X
                                 (Linear)    (Quad)   (Total)
    R1        2.55041   0.00204   0.00000   0.00365   0.00365   2.55406
    R2        1.80989   0.01607   0.00000   0.02835   0.02835   1.83824
    R3        2.89069  -0.01086   0.00000  -0.03596  -0.03596   2.85473
    R4        2.31180  -0.01661   0.00000  -0.01755  -0.01755   2.29425
    R5        2.92703  -0.01303   0.00000  -0.04575  -0.04575   2.88128
    R6        2.05942   0.00370   0.00000   0.01041   0.01041   2.06983
    R7        2.05876   0.00528   0.00000   0.01482   0.01482   2.07358
    R8        2.91788  -0.00789   0.00000  -0.02732  -0.02732   2.89056
    R9        2.06338   0.00172   0.00000   0.00486   0.00486   2.06824
   R10        2.06251   0.00352   0.00000   0.00995   0.00995   2.07246
   R11        2.91774  -0.00621   0.00000  -0.02150  -0.02150   2.89624
   R12        2.06200   0.00478   0.00000   0.01350   0.01350   2.07550
   R13        2.06110   0.00303   0.00000   0.00856   0.00856   2.06966
   R14        2.91802  -0.00548   0.00000  -0.01898  -0.01898   2.89903
   R15        2.06208   0.00476   0.00000   0.01345   0.01345   2.07553
   R16        2.06242   0.00418   0.00000   0.01181   0.01181   2.07423
   R17        2.91538  -0.00605   0.00000  -0.02085  -0.02085   2.89452
   R18        2.05940   0.00438   0.00000   0.01231   0.01231   2.07171
   R19        2.06212   0.00442   0.00000   0.01250   0.01250   2.07462
   R20        2.91598  -0.00497   0.00000  -0.01714  -0.01714   2.89883
   R21        2.06126   0.00349   0.00000   0.00986   0.00986   2.07111
   R22        2.06192   0.00464   0.00000   0.01311   0.01311   2.07503
   R23        2.91670  -0.00477   0.00000  -0.01648  -0.01648   2.90022
   R24        2.06207   0.00482   0.00000   0.01361   0.01361   2.07569
   R25        2.06225   0.00440   0.00000   0.01243   0.01243   2.07469
   R26        2.90547  -0.00252   0.00000  -0.00854  -0.00854   2.89692
   R27        2.06090   0.00424   0.00000   0.01194   0.01194   2.07283
   R28        2.06209   0.00401   0.00000   0.01133   0.01133   2.07342
   R29        2.06086   0.00318   0.00000   0.00897   0.00897   2.06982
   R30        2.06128   0.00249   0.00000   0.00703   0.00703   2.06831
   R31        2.06033   0.00318   0.00000   0.00896   0.00896   2.06930
    A1        1.81539   0.00750   0.00000   0.04481   0.04481   1.86020
    A2        1.94962   0.00152   0.00000   0.00583   0.00580   1.95542
    A3        2.14806  -0.00477   0.00000  -0.01863  -0.01866   2.12940
    A4        2.18536   0.00325   0.00000   0.01256   0.01253   2.19790
    A5        2.01332  -0.01276   0.00000  -0.05856  -0.05845   1.95487
    A6        1.90198   0.00254   0.00000  -0.00533  -0.00539   1.89659
    A7        1.84723   0.00379   0.00000   0.01814   0.01878   1.86601
    A8        1.92685   0.00512   0.00000   0.02222   0.02136   1.94821
    A9        1.90390   0.00457   0.00000   0.03215   0.03218   1.93609
   A10        1.86335  -0.00275   0.00000  -0.00528  -0.00580   1.85755
   A11        1.98770  -0.00263   0.00000  -0.01758  -0.01780   1.96990
   A12        1.90624  -0.00042   0.00000  -0.01824  -0.01856   1.88768
   A13        1.90194  -0.00001   0.00000   0.00074   0.00092   1.90286
   A14        1.92395   0.00061   0.00000  -0.00550  -0.00605   1.91790
   A15        1.89706   0.00190   0.00000   0.02036   0.02038   1.91744
   A16        1.84107   0.00083   0.00000   0.02381   0.02380   1.86487
   A17        1.99418  -0.00348   0.00000  -0.02089  -0.02112   1.97307
   A18        1.90163   0.00088   0.00000   0.00756   0.00776   1.90939
   A19        1.92142  -0.00068   0.00000  -0.02083  -0.02112   1.90030
   A20        1.89475   0.00163   0.00000   0.01749   0.01753   1.91228
   A21        1.90912   0.00146   0.00000  -0.00060  -0.00125   1.90787
   A22        1.83584   0.00055   0.00000   0.02147   0.02147   1.85731
   A23        2.01658  -0.00741   0.00000  -0.03815  -0.03828   1.97830
   A24        1.90260   0.00242   0.00000   0.00986   0.00981   1.91242
   A25        1.89792   0.00148   0.00000  -0.00004  -0.00017   1.89775
   A26        1.89995   0.00194   0.00000   0.00698   0.00693   1.90688
   A27        1.89928   0.00253   0.00000   0.00865   0.00837   1.90765
   A28        1.83931  -0.00038   0.00000   0.01772   0.01759   1.85691
   A29        1.99263  -0.00313   0.00000  -0.01703  -0.01712   1.97551
   A30        1.90903   0.00087   0.00000  -0.00271  -0.00295   1.90608
   A31        1.89571   0.00115   0.00000   0.01031   0.01036   1.90608
   A32        1.92040   0.00026   0.00000  -0.00803  -0.00820   1.91220
   A33        1.90105   0.00108   0.00000   0.00899   0.00907   1.91013
   A34        1.83849   0.00003   0.00000   0.01110   0.01111   1.84960
   A35        1.99309  -0.00167   0.00000  -0.01054  -0.01059   1.98251
   A36        1.92315  -0.00018   0.00000  -0.00789  -0.00793   1.91522
   A37        1.90107   0.00006   0.00000  -0.00100  -0.00096   1.90011
   A38        1.90413   0.00065   0.00000   0.00076   0.00064   1.90476
   A39        1.89660   0.00092   0.00000   0.00802   0.00800   1.90460
   A40        1.83933   0.00041   0.00000   0.01279   0.01277   1.85209
   A41        2.01578  -0.00381   0.00000  -0.02110  -0.02118   1.99460
   A42        1.90335   0.00116   0.00000   0.00528   0.00526   1.90860
   A43        1.89669   0.00101   0.00000   0.00095   0.00081   1.89750
   A44        1.90287   0.00101   0.00000   0.00356   0.00356   1.90642
   A45        1.89771   0.00076   0.00000  -0.00151  -0.00161   1.89610
   A46        1.83930   0.00021   0.00000   0.01622   0.01619   1.85549
   A47        1.99164  -0.00193   0.00000  -0.01112  -0.01116   1.98048
   A48        1.92267   0.00013   0.00000  -0.00676  -0.00683   1.91584
   A49        1.89573  -0.00005   0.00000  -0.00097  -0.00092   1.89482
   A50        1.91201   0.00048   0.00000  -0.00152  -0.00166   1.91035
   A51        1.89624   0.00137   0.00000   0.01268   0.01268   1.90891
   A52        1.83905   0.00018   0.00000   0.00970   0.00968   1.84873
   A53        1.94414  -0.00105   0.00000  -0.00948  -0.00948   1.93466
   A54        1.95015   0.00126   0.00000   0.00821   0.00819   1.95834
   A55        1.93696  -0.00053   0.00000  -0.00061  -0.00064   1.93632
   A56        1.87927  -0.00069   0.00000  -0.00882  -0.00881   1.87046
   A57        1.87823   0.00067   0.00000   0.00273   0.00272   1.88095
   A58        1.87162   0.00036   0.00000   0.00821   0.00816   1.87978
    D1        3.13447  -0.00047   0.00000  -0.01961  -0.01950   3.11497
    D2        0.01041  -0.00031   0.00000  -0.00560  -0.00572   0.00469
    D3        3.00772  -0.00041   0.00000  -0.01346  -0.01312   2.99460
    D4        0.82940   0.00022   0.00000   0.00502   0.00474   0.83414
    D5       -1.16885   0.00029   0.00000   0.00443   0.00449  -1.16436
    D6       -0.15185  -0.00067   0.00000  -0.02820  -0.02793  -0.17979
    D7       -2.33017  -0.00004   0.00000  -0.00971  -0.01007  -2.34024
    D8        1.95476   0.00003   0.00000  -0.01031  -0.01032   1.94445
    D9       -1.24326   0.00133   0.00000   0.02750   0.02731  -1.21594
   D10        0.91586  -0.00008   0.00000  -0.00621  -0.00614   0.90972
   D11        2.91885   0.00068   0.00000   0.01265   0.01255   2.93139
   D12        0.92208  -0.00084   0.00000  -0.00644  -0.00679   0.91529
   D13        3.08120  -0.00225   0.00000  -0.04014  -0.04025   3.04096
   D14       -1.19900  -0.00150   0.00000  -0.02129  -0.02156  -1.22056
   D15        2.96443   0.00149   0.00000   0.01909   0.01930   2.98373
   D16       -1.15963   0.00008   0.00000  -0.01461  -0.01416  -1.17379
   D17        0.84335   0.00084   0.00000   0.00424   0.00453   0.84788
   D18       -3.13644  -0.00165   0.00000  -0.09233  -0.09211   3.05464
   D19       -1.01417  -0.00127   0.00000  -0.07837  -0.07827  -1.09244
   D20        0.99066  -0.00048   0.00000  -0.05983  -0.05994   0.93072
   D21        0.99724   0.00036   0.00000  -0.05129  -0.05114   0.94610
   D22        3.11951   0.00074   0.00000  -0.03733  -0.03730   3.08221
   D23       -1.15885   0.00153   0.00000  -0.01878  -0.01897  -1.17782
   D24       -1.01265  -0.00205   0.00000  -0.08832  -0.08824  -1.10089
   D25        1.10962  -0.00166   0.00000  -0.07436  -0.07440   1.03522
   D26        3.11444  -0.00088   0.00000  -0.05582  -0.05607   3.05837
   D27       -1.05349   0.00075   0.00000   0.01233   0.01236  -1.04114
   D28        1.09199  -0.00010   0.00000   0.00190   0.00185   1.09383
   D29        3.08879   0.00152   0.00000   0.02805   0.02795   3.11674
   D30        3.10364   0.00077   0.00000   0.00377   0.00391   3.10755
   D31       -1.03406  -0.00009   0.00000  -0.00665  -0.00660  -1.04066
   D32        0.96274   0.00154   0.00000   0.01949   0.01951   0.98225
   D33        1.10921  -0.00153   0.00000  -0.03073  -0.03069   1.07852
   D34       -3.02849  -0.00238   0.00000  -0.04116  -0.04120  -3.06969
   D35       -1.03169  -0.00076   0.00000  -0.01501  -0.01509  -1.04678
   D36       -1.03780   0.00074   0.00000   0.01832   0.01830  -1.01950
   D37        1.12237  -0.00050   0.00000  -0.00665  -0.00661   1.11576
   D38        3.12041   0.00061   0.00000   0.01064   0.01067   3.13108
   D39        3.09850   0.00133   0.00000   0.02715   0.02714   3.12564
   D40       -1.02451   0.00008   0.00000   0.00219   0.00223  -1.02228
   D41        0.97353   0.00120   0.00000   0.01947   0.01951   0.99304
   D42        1.10238  -0.00059   0.00000  -0.00206  -0.00212   1.10026
   D43       -3.02063  -0.00183   0.00000  -0.02702  -0.02703  -3.04766
   D44       -1.02259  -0.00072   0.00000  -0.00974  -0.00975  -1.03234
   D45       -3.09463  -0.00090   0.00000  -0.04966  -0.04958   3.13897
   D46        1.03849  -0.00038   0.00000  -0.03680  -0.03677   1.00172
   D47       -0.97114  -0.00081   0.00000  -0.04722  -0.04715  -1.01830
   D48        1.03451   0.00004   0.00000  -0.02735  -0.02738   1.00712
   D49       -1.11555   0.00056   0.00000  -0.01449  -0.01458  -1.13013
   D50       -3.12518   0.00013   0.00000  -0.02492  -0.02496   3.13304
   D51       -0.97261  -0.00074   0.00000  -0.04129  -0.04127  -1.01388
   D52       -3.12266  -0.00023   0.00000  -0.02843  -0.02846   3.13206
   D53        1.15089  -0.00065   0.00000  -0.03886  -0.03885   1.11204
   D54       -1.10414  -0.00009   0.00000  -0.01303  -0.01302  -1.11716
   D55        1.04521  -0.00059   0.00000  -0.01940  -0.01942   1.02579
   D56        3.04173   0.00081   0.00000   0.00307   0.00305   3.04479
   D57        1.05618  -0.00103   0.00000  -0.03033  -0.03033   1.02585
   D58       -3.07765  -0.00153   0.00000  -0.03670  -0.03673  -3.11438
   D59       -1.08113  -0.00013   0.00000  -0.01424  -0.01425  -1.09538
   D60        3.05309   0.00029   0.00000  -0.01052  -0.01048   3.04261
   D61       -1.08074  -0.00021   0.00000  -0.01689  -0.01688  -1.09762
   D62        0.91578   0.00119   0.00000   0.00557   0.00559   0.92137
   D63       -1.05514   0.00046   0.00000   0.00671   0.00667  -1.04847
   D64        1.10388  -0.00024   0.00000  -0.00882  -0.00881   1.09508
   D65        3.10991   0.00002   0.00000  -0.00143  -0.00146   3.10845
   D66        3.07844   0.00087   0.00000   0.01216   0.01214   3.09058
   D67       -1.04572   0.00017   0.00000  -0.00337  -0.00334  -1.04906
   D68        0.96031   0.00043   0.00000   0.00402   0.00401   0.96432
   D69        1.08163  -0.00031   0.00000  -0.00810  -0.00809   1.07354
   D70       -3.04253  -0.00101   0.00000  -0.02362  -0.02357  -3.06610
   D71       -1.03650  -0.00075   0.00000  -0.01624  -0.01622  -1.05272
   D72       -0.97372  -0.00013   0.00000  -0.01706  -0.01703  -0.99075
   D73        1.12899  -0.00087   0.00000  -0.02925  -0.02924   1.09975
   D74       -3.06614   0.00007   0.00000  -0.01378  -0.01375  -3.07988
   D75       -3.13848   0.00074   0.00000   0.00115   0.00116  -3.13732
   D76       -1.03577  -0.00000   0.00000  -0.01104  -0.01105  -1.04682
   D77        1.05229   0.00094   0.00000   0.00443   0.00444   1.05673
   D78        1.14413  -0.00048   0.00000  -0.01648  -0.01650   1.12764
   D79       -3.03634  -0.00122   0.00000  -0.02867  -0.02871  -3.06504
   D80       -0.94828  -0.00028   0.00000  -0.01320  -0.01322  -0.96150
         Item               Value     Threshold  Converged?
 Maximum Force            0.016607     0.000450     NO 
 RMS     Force            0.003353     0.000300     NO 
 Maximum Displacement     1.099350     0.001800     NO 
 RMS     Displacement     0.215033     0.001200     NO 
 Predicted change in Energy=-4.013456D-03
 GradGradGradGradGradGradGradGradGradGradGradGradGradGradGradGradGradGrad

                          Input orientation:                          
 ---------------------------------------------------------------------
 Center     Atomic      Atomic             Coordinates (Angstroms)
 Number     Number       Type             X           Y           Z
 ---------------------------------------------------------------------
      1          8           0        5.779889   -0.215671   -0.662017
      2          6           0        4.859507   -1.079704   -1.144758
      3          6           0        4.510299   -2.154462   -0.142241
      4          6           0        3.330226   -3.003258   -0.602365
      5          6           0        2.006446   -2.236972   -0.590513
      6          6           0        0.839333   -3.046534   -1.166177
      7          6           0        1.058205   -3.477861   -2.622034
      8          6           0        1.284474   -2.298563   -3.572937
      9          6           0        1.508023   -2.719765   -5.030936
     10          6           0        2.778163   -3.550137   -5.260333
     11          6           0        4.065916   -2.817950   -4.865824
     12          8           0        4.417886   -0.986126   -2.271776
     13          1           0        5.962611    0.421630   -1.373851
     14          1           0        4.313670   -1.680630    0.825500
     15          1           0        5.408275   -2.770898   -0.009235
     16          1           0        3.542935   -3.363334   -1.613778
     17          1           0        3.254168   -3.888354    0.040728
     18          1           0        1.770641   -1.932007    0.437917
     19          1           0        2.126225   -1.313725   -1.167376
     20          1           0        0.668113   -3.936982   -0.546417
     21          1           0       -0.074933   -2.442739   -1.100224
     22          1           0        1.915835   -4.158974   -2.671415
     23          1           0        0.190757   -4.059240   -2.960840
     24          1           0        2.143818   -1.709082   -3.233488
     25          1           0        0.415832   -1.628863   -3.521074
     26          1           0        0.636201   -3.287209   -5.383685
     27          1           0        1.561389   -1.817470   -5.654116
     28          1           0        2.709769   -4.493797   -4.705348
     29          1           0        2.827441   -3.827453   -6.320773
     30          1           0        4.155175   -1.868504   -5.404597
     31          1           0        4.099418   -2.587022   -3.796483
     32          1           0        4.947990   -3.421545   -5.103936
 ---------------------------------------------------------------------
                    Distance matrix (angstroms):
                    1          2          3          4          5
     1  O    0.000000
     2  C    1.351553   0.000000
     3  C    2.375065   1.510659   0.000000
     4  C    3.711475   2.516535   1.524710   0.000000
     5  C    4.281313   3.128325   2.545002   1.529618   0.000000
     6  C    5.716385   4.475565   3.914107   2.554273   1.532623
     7  C    6.064474   4.731110   4.451708   3.076750   2.562429
     8  C    5.746359   4.490271   4.711303   3.675050   3.069183
     9  C    6.603543   5.387451   5.764769   4.797190   4.494315
[...]
 Alpha virt. eigenvalues --    4.21636   4.23761   4.25693   4.29838   4.33975
 Alpha virt. eigenvalues --    4.38681   4.40060   4.40611   4.41755   4.44290
 Alpha virt. eigenvalues --    4.44686   4.46784   4.49942   4.53426   4.55378
 Alpha virt. eigenvalues --    4.56776   4.59735   4.62530   4.64148   4.65429
 Alpha virt. eigenvalues --    4.67252   4.69679   4.71537   4.72764   4.75482
 Alpha virt. eigenvalues --    4.77717   4.78887   4.81917   4.83940   4.91108
 Alpha virt. eigenvalues --    4.94549   5.04715   5.05115   5.16820   5.21208
 Alpha virt. eigenvalues --    5.21874   5.38313   5.40541   5.50618   5.59190
 Alpha virt. eigenvalues --    5.74669   5.84447   5.86206   6.14546   6.19084
 Alpha virt. eigenvalues --    6.33058   6.33535   6.44445   6.48688   6.64722
 Alpha virt. eigenvalues --    6.68655   6.74355   6.82137   6.88024   7.08680
 Alpha virt. eigenvalues --    7.12025   7.26306  22.45588  22.56338  22.57193
 Alpha virt. eigenvalues --   22.58280  22.60190  22.60330  22.62006  22.64090
 Alpha virt. eigenvalues --   22.68599  23.28328  43.95986  44.04588
          Condensed to atoms (all electrons):
               1          2          3          4          5          6
     1  O    7.930612   0.382515  -0.126342   0.011327   0.000670   0.000027
     2  C    0.382515   4.506603   0.251097  -0.030682   0.009489   0.000880
     3  C   -0.126342   0.251097   5.387677   0.170275  -0.033016   0.006485
     4  C    0.011327  -0.030682   0.170275   5.294876   0.165333  -0.049925
     5  C    0.000670   0.009489  -0.033016   0.165333   5.375330   0.223201
     6  C    0.000027   0.000880   0.006485  -0.049925   0.223201   5.177632
     7  C   -0.000020  -0.000783   0.001157   0.037357  -0.092097   0.223730
     8  C    0.000012   0.000450  -0.001487  -0.009522   0.031965  -0.041333
     9  C    0.000000   0.000038   0.000085  -0.000220  -0.000128   0.009192
    10  C   -0.000001   0.000105  -0.000002  -0.000711   0.000548  -0.000314
    11  C   -0.000021  -0.000574   0.000394   0.000903  -0.000950   0.000523
    12  O   -0.087233   0.606342  -0.106211   0.032274  -0.011238   0.001140
    13  H    0.289564  -0.028679   0.020680  -0.002184   0.000202  -0.000014
    14  H    0.005798  -0.035229   0.416357  -0.040207  -0.007580  -0.000154
    15  H    0.002768  -0.016394   0.401006  -0.037678   0.007455  -0.000479
    16  H    0.000023  -0.012082  -0.022002   0.424680  -0.055583  -0.010357
    17  H   -0.000084   0.008405  -0.042330   0.423284  -0.039930   0.003596
    18  H   -0.000111  -0.001003  -0.002066  -0.037922   0.413064  -0.037550
    19  H   -0.000668   0.003979  -0.002877  -0.065465   0.444647  -0.034788
    20  H   -0.000000  -0.000055   0.000007  -0.009857  -0.034826   0.444188
    21  H   -0.000000   0.000086  -0.000727   0.011058  -0.065654   0.442649
    22  H    0.000000   0.000190   0.000375  -0.002320  -0.010839  -0.035662
    23  H   -0.000000  -0.000023   0.000054  -0.000188   0.010980  -0.043315
    24  H   -0.000002  -0.001511   0.000205   0.001554   0.004042  -0.010666
    25  H    0.000001   0.000001   0.000024   0.000396  -0.004525   0.004775
    26  H   -0.000000  -0.000001  -0.000002   0.000012  -0.000018  -0.000334
    27  H   -0.000000   0.000007  -0.000001  -0.000011   0.000218  -0.000833
    28  H    0.000000   0.000002  -0.000019   0.000109   0.000322   0.000195
    29  H   -0.000000  -0.000003   0.000001   0.000006  -0.000038   0.000067
    30  H   -0.000000   0.000048   0.000003  -0.000069   0.000088  -0.000039
    31  H    0.000007  -0.002050  -0.000432   0.000941  -0.002272   0.000976
    32  H    0.000000   0.000041  -0.000005   0.000015   0.000021  -0.000012
               7          8          9         10         11         12
     1  O   -0.000020   0.000012   0.000000  -0.000001  -0.000021  -0.087233
     2  C   -0.000783   0.000450   0.000038   0.000105  -0.000574   0.606342
     3  C    0.001157  -0.001487   0.000085  -0.000002   0.000394  -0.106211
     4  C    0.037357  -0.009522  -0.000220  -0.000711   0.000903   0.032274
     5  C   -0.092097   0.031965  -0.000128   0.000548  -0.000950  -0.011238
     6  C    0.223730  -0.041333   0.009192  -0.000314   0.000523   0.001140
     7  C    5.412736   0.109791  -0.038867   0.029637  -0.014487  -0.002014
     8  C    0.109791   5.436949   0.202764  -0.078851   0.040112  -0.003836
     9  C   -0.038867   0.202764   5.195556   0.253529  -0.064710   0.000258
    10  C    0.029637  -0.078851   0.253529   5.185932   0.240906   0.000469
    11  C   -0.014487   0.040112  -0.064710   0.240906   5.084438  -0.008048
    12  O   -0.002014  -0.003836   0.000258   0.000469  -0.008048   7.897118
    13  H    0.000011  -0.000013  -0.000001   0.000000   0.000029   0.005712
    14  H   -0.000149   0.000122   0.000000  -0.000002  -0.000010   0.003038
    15  H    0.000126  -0.000033  -0.000002  -0.000000   0.000012   0.001329
    16  H    0.005777   0.000826   0.000130  -0.001435  -0.000227  -0.000644
    17  H   -0.003956   0.000497  -0.000020   0.000038  -0.000013   0.000612
    18  H    0.010459  -0.000172   0.000042  -0.000022   0.000004   0.000490
    19  H   -0.008478  -0.002220   0.000050   0.000171   0.000225   0.001859
    20  H   -0.068662   0.010588  -0.000799   0.000169  -0.000009  -0.000029
    21  H   -0.036137  -0.008527  -0.000274   0.000008  -0.000014   0.000014
    22  H    0.438370  -0.063744  -0.006938   0.004265  -0.000239   0.000151
    23  H    0.422738  -0.039804   0.002040  -0.003141   0.000448  -0.000019
    24  H   -0.056691   0.433847  -0.029244  -0.011283  -0.001917   0.005826
    25  H   -0.048294   0.422450  -0.037783   0.008782  -0.000263   0.000145
    26  H   -0.012224  -0.037252   0.433493  -0.058287   0.009848  -0.000004
    27  H    0.011783  -0.069801   0.442314  -0.034474  -0.008342  -0.000004
    28  H    0.004201  -0.018696  -0.039812   0.434460  -0.057468  -0.000007
    29  H   -0.000967   0.014032  -0.056552   0.430746  -0.038024  -0.000011
    30  H    0.000934  -0.007483   0.005854  -0.046264   0.412231   0.000388
    31  H   -0.003482   0.016804  -0.018952  -0.034329   0.403174   0.007489
    32  H    0.000302  -0.001766   0.012311  -0.045348   0.416688   0.000148
              13         14         15         16         17         18
     1  O    0.289564   0.005798   0.002768   0.000023  -0.000084  -0.000111
     2  C   -0.028679  -0.035229  -0.016394  -0.012082   0.008405  -0.001003
     3  C    0.020680   0.416357   0.401006  -0.022002  -0.042330  -0.002066
     4  C   -0.002184  -0.040207  -0.037678   0.424680   0.423284  -0.037922
     5  C    0.000202  -0.007580   0.007455  -0.055583  -0.039930   0.413064
     6  C   -0.000014  -0.000154  -0.000479  -0.010357   0.003596  -0.037550
     7  C    0.000011  -0.000149   0.000126   0.005777  -0.003956   0.010459
     8  C   -0.000013   0.000122  -0.000033   0.000826   0.000497  -0.000172
     9  C   -0.000001   0.000000  -0.000002   0.000130  -0.000020   0.000042
    10  C    0.000000  -0.000002  -0.000000  -0.001435   0.000038  -0.000022
    11  C    0.000029  -0.000010   0.000012  -0.000227  -0.000013   0.000004
    12  O    0.005712   0.003038   0.001329  -0.000644   0.000612   0.000490
    13  H    0.380772  -0.000907  -0.000554   0.000005   0.000026   0.000004
    14  H   -0.000907   0.494202  -0.015430   0.006376  -0.001728   0.001731
    15  H   -0.000554  -0.015430   0.490108  -0.003020  -0.005252   0.000131
    16  H    0.000005   0.006376  -0.003020   0.526658  -0.021157   0.005116
    17  H    0.000026  -0.001728  -0.005252  -0.021157   0.522345  -0.002798
    18  H    0.000004   0.001731   0.000131   0.005116  -0.002798   0.535221
    19  H    0.000064   0.000045   0.000027   0.001829   0.004936  -0.017853
    20  H    0.000000   0.000023   0.000009   0.001539   0.001821  -0.003869
    21  H    0.000000  -0.000023   0.000011  -0.000647   0.000106  -0.007645
    22  H   -0.000000  -0.000060   0.000018  -0.011562   0.001282  -0.000911
    23  H   -0.000000   0.000003  -0.000002   0.000808  -0.000234   0.000023
    24  H    0.000008  -0.000037   0.000009   0.000935  -0.000165   0.000801
    25  H   -0.000000  -0.000004   0.000001  -0.000215   0.000004  -0.000328
    26  H   -0.000000   0.000000  -0.000000   0.000005  -0.000000   0.000002
    27  H    0.000000  -0.000000   0.000000   0.000006   0.000000  -0.000002
    28  H    0.000000   0.000000   0.000000   0.000399  -0.000015   0.000004
    29  H    0.000000  -0.000000   0.000000  -0.000003   0.000000  -0.000000
    30  H   -0.000001   0.000000  -0.000000   0.000099   0.000000   0.000000
    31  H   -0.000049   0.000020  -0.000009  -0.001821   0.000117  -0.000019
    32  H   -0.000000   0.000000  -0.000001  -0.000053  -0.000002   0.000000
              19         20         21         22         23         24
     1  O   -0.000668  -0.000000  -0.000000   0.000000  -0.000000  -0.000002
     2  C    0.003979  -0.000055   0.000086   0.000190  -0.000023  -0.001511
     3  C   -0.002877   0.000007  -0.000727   0.000375   0.000054   0.000205
     4  C   -0.065465  -0.009857   0.011058  -0.002320  -0.000188   0.001554
     5  C    0.444647  -0.034826  -0.065654  -0.010839   0.010980   0.004042
     6  C   -0.034788   0.444188   0.442649  -0.035662  -0.043315  -0.010666
     7  C   -0.008478  -0.068662  -0.036137   0.438370   0.422738  -0.056691
     8  C   -0.002220   0.010588  -0.008527  -0.063744  -0.039804   0.433847
     9  C    0.000050  -0.000799  -0.000274  -0.006938   0.002040  -0.029244
    10  C    0.000171   0.000169   0.000008   0.004265  -0.003141  -0.011283
    11  C    0.000225  -0.000009  -0.000014  -0.000239   0.000448  -0.001917
    12  O    0.001859  -0.000029   0.000014   0.000151  -0.000019   0.005826
    13  H    0.000064   0.000000   0.000000  -0.000000  -0.000000   0.000008
    14  H    0.000045   0.000023  -0.000023  -0.000060   0.000003  -0.000037
    15  H    0.000027   0.000009   0.000011   0.000018  -0.000002   0.000009
    16  H    0.001829   0.001539  -0.000647  -0.011562   0.000808   0.000935
    17  H    0.004936   0.001821   0.000106   0.001282  -0.000234  -0.000165
    18  H   -0.017853  -0.003869  -0.007645  -0.000911   0.000023   0.000801
    19  H    0.499158   0.005301  -0.001507   0.001979  -0.000848  -0.010720
    20  H    0.005301   0.536084  -0.018458  -0.001447  -0.007323  -0.000762
    21  H   -0.001507  -0.018458   0.531488   0.005974  -0.003758   0.001417
    22  H    0.001979  -0.001447   0.005974   0.541440  -0.020510   0.001376
    23  H   -0.000848  -0.007323  -0.003758  -0.020510   0.527159   0.004786
    24  H   -0.010720  -0.000762   0.001417   0.001376   0.004786   0.506866
    25  H    0.001644   0.000203   0.001745   0.005964  -0.001134  -0.019320
    26  H   -0.000042  -0.000016   0.000098   0.001307   0.002302   0.006143
    27  H   -0.000032   0.000015  -0.000006  -0.000609   0.000148  -0.001440
    28  H   -0.000057  -0.000030  -0.000025  -0.008445   0.001105   0.002271
    29  H    0.000005  -0.000002   0.000001   0.000549  -0.000260  -0.000766
    30  H   -0.000025   0.000000  -0.000000  -0.000208  -0.000001   0.001608
    31  H    0.000343   0.000003  -0.000002   0.002360  -0.000187  -0.010618
    32  H   -0.000005  -0.000000   0.000000  -0.000005   0.000007   0.000361
              25         26         27         28         29         30
     1  O    0.000001  -0.000000  -0.000000   0.000000  -0.000000  -0.000000
     2  C    0.000001  -0.000001   0.000007   0.000002  -0.000003   0.000048
     3  C    0.000024  -0.000002  -0.000001  -0.000019   0.000001   0.000003
     4  C    0.000396   0.000012  -0.000011   0.000109   0.000006  -0.000069
     5  C   -0.004525  -0.000018   0.000218   0.000322  -0.000038   0.000088
     6  C    0.004775  -0.000334  -0.000833   0.000195   0.000067  -0.000039
     7  C   -0.048294  -0.012224   0.011783   0.004201  -0.000967   0.000934
     8  C    0.422450  -0.037252  -0.069801  -0.018696   0.014032  -0.007483
     9  C   -0.037783   0.433493   0.442314  -0.039812  -0.056552   0.005854
    10  C    0.008782  -0.058287  -0.034474   0.434460   0.430746  -0.046264
    11  C   -0.000263   0.009848  -0.008342  -0.057468  -0.038024   0.412231
    12  O    0.000145  -0.000004  -0.000004  -0.000007  -0.000011   0.000388
    13  H   -0.000000  -0.000000   0.000000   0.000000   0.000000  -0.000001
    14  H   -0.000004   0.000000  -0.000000   0.000000  -0.000000   0.000000
    15  H    0.000001  -0.000000   0.000000   0.000000   0.000000  -0.000000
    16  H   -0.000215   0.000005   0.000006   0.000399  -0.000003   0.000099
    17  H    0.000004  -0.000000   0.000000  -0.000015   0.000000   0.000000
    18  H   -0.000328   0.000002  -0.000002   0.000004  -0.000000   0.000000
    19  H    0.001644  -0.000042  -0.000032  -0.000057   0.000005  -0.000025
    20  H    0.000203  -0.000016   0.000015  -0.000030  -0.000002   0.000000
    21  H    0.001745   0.000098  -0.000006  -0.000025   0.000001  -0.000000
    22  H    0.005964   0.001307  -0.000609  -0.008445   0.000549  -0.000208
    23  H   -0.001134   0.002302   0.000148   0.001105  -0.000260  -0.000001
    24  H   -0.019320   0.006143  -0.001440   0.002271  -0.000766   0.001608
    25  H    0.533164  -0.003307  -0.008154  -0.000800  -0.000100  -0.000275
    26  H   -0.003307   0.547347  -0.019005  -0.000546  -0.007302   0.000148
    27  H   -0.008154  -0.019005   0.537873   0.006258  -0.003584   0.002249
    28  H   -0.000800  -0.000546   0.006258   0.560989  -0.024700   0.007820
    29  H   -0.000100  -0.007302  -0.003584  -0.024700   0.556355  -0.003815
    30  H   -0.000275   0.000148   0.002249   0.007820  -0.003815   0.544995
    31  H    0.000654  -0.000588   0.001124  -0.003479   0.006533  -0.029721
    32  H    0.000024  -0.000401  -0.000269  -0.004201  -0.005484  -0.024682
              31         32
     1  O    0.000007   0.000000
     2  C   -0.002050   0.000041
     3  C   -0.000432  -0.000005
     4  C    0.000941   0.000015
     5  C   -0.002272   0.000021
     6  C    0.000976  -0.000012
     7  C   -0.003482   0.000302
     8  C    0.016804  -0.001766
     9  C   -0.018952   0.012311
    10  C   -0.034329  -0.045348
    11  C    0.403174   0.416688
    12  O    0.007489   0.000148
    13  H   -0.000049  -0.000000
    14  H    0.000020   0.000000
    15  H   -0.000009  -0.000001
    16  H   -0.001821  -0.000053
    17  H    0.000117  -0.000002
    18  H   -0.000019   0.000000
    19  H    0.000343  -0.000005
    20  H    0.000003  -0.000000
    21  H   -0.000002   0.000000
    22  H    0.002360  -0.000005
    23  H   -0.000187   0.000007
    24  H   -0.010618   0.000361
    25  H    0.000654   0.000024
    26  H   -0.000588  -0.000401
    27  H    0.001124  -0.000269
    28  H   -0.003479  -0.004201
    29  H    0.006533  -0.005484
    30  H   -0.029721  -0.024682
    31  H    0.561497  -0.026141
    32  H   -0.026141   0.542195
 Mulliken charges:
               1
     1  O   -0.408842
     2  C    0.358792
     3  C   -0.318362
     4  C   -0.287437
     5  C   -0.328881
     6  C   -0.273481
     7  C   -0.321798
     8  C   -0.336671
     9  C   -0.263356
    10  C   -0.275301
    11  C   -0.414619
    12  O   -0.345502
    13  H    0.335326
    14  H    0.173803
    15  H    0.175846
    16  H    0.165599
    17  H    0.150615
    18  H    0.145178
    19  H    0.179324
    20  H    0.146193
    21  H    0.148749
    22  H    0.157902
    23  H    0.148147
    24  H    0.183087
    25  H    0.144528
    26  H    0.138624
    27  H    0.144572
    28  H    0.140164
    29  H    0.133314
    30  H    0.136118
    31  H    0.132107
    32  H    0.136262
 Sum of Mulliken charges =  -0.00000
 Mulliken charges with hydrogens summed into heavy atoms:
               1
     1  O   -0.073516
     2  C    0.358792
     3  C    0.031288
     4  C    0.028777
     5  C   -0.004379
     6  C    0.021461
     7  C   -0.015748
     8  C   -0.009056
     9  C    0.019840
    10  C   -0.001824
    11  C   -0.010132
    12  O   -0.345502
 Electronic spatial extent (au):  <R**2>=           2965.4056
 Charge=              0.0000 electrons
 Dipole moment (field-independent basis, Debye):
    X=              1.4942    Y=              0.6187    Z=              0.4043  Tot=              1.6670
 Quadrupole moment (field-independent basis, Debye-Ang):
   XX=            -75.3940   YY=            -75.8969   ZZ=            -75.6664
   XY=             -1.8837   XZ=             -0.0323   YZ=              1.6705
 Traceless Quadrupole moment (field-independent basis, Debye-Ang):
   XX=              0.2584   YY=             -0.2445   ZZ=             -0.0139
   XY=             -1.8837   XZ=             -0.0323   YZ=              1.6705
 Octapole moment (field-independent basis, Debye-Ang**2):
  XXX=             24.6570  YYY=            -17.3302  ZZZ=             -4.6298  XYY=             21.6168
  XXY=            -11.5680  XXZ=             -6.4681  XZZ=             16.3759  YZZ=             -6.9433
  YYZ=             -7.0971  XYZ=              8.2389
 Hexadecapole moment (field-independent basis, Debye-Ang**3):
 XXXX=          -2545.4102 YYYY=          -1177.1049 ZZZZ=           -330.4361 XXXY=            -55.8417
 XXXZ=            -27.8560 YYYX=            -67.0397 YYYZ=             25.7804 ZZZX=            -12.1902
 ZZZY=             12.0405 XXYY=           -551.9146 XXZZ=           -444.3898 YYZZ=           -240.8564
 XXYZ=             35.3744 YYXZ=            -24.2753 ZZXY=            -24.6660
 N-N= 7.513429253942D+02 E-N=-2.767934036180D+03  KE= 5.405742460275D+02
 Unable to Open any file for archive entry.
 1\1\GINC-NOTCH075\SP\RM062X\def2TZVP\C10H20O2\U6032257\05-Feb-2022\0\\
 # M062X/def2tzvp int=(grid=ultrafine) nmr=giao guess=read geom=check\\
 Ac1.xyz\\0,1\O,0,5.7099908867,-0.0924581362,-0.3882633342\C,0,4.893803
 4422,-1.0030271618,-0.9701265139\C,0,4.4968647521,-2.0963831096,-0.003
 3677575\C,0,3.3541720815,-2.9650801579,-0.5282214739\C,0,2.0104627735,
 -2.2288214256,-0.5588794323\C,0,0.8683636807,-3.0463138383,-1.17969059
 74\C,0,1.1014297984,-3.4736971902,-2.6369533488\C,0,1.3396131088,-2.30
 47892451,-3.5998171969\C,0,1.478587765,-2.7340986089,-5.0679751029\C,0
 ,2.6995117079,-3.616093208,-5.3739204758\C,0,4.0424488362,-2.926416494
 5,-5.1148261407\O,0,4.5665019347,-0.9216642783,-2.1358362805\H,0,5.934
 6498351,0.5499180557,-1.0827302107\H,0,4.2494192432,-1.6305306028,0.95
 72306399\H,0,5.3994694598,-2.6940965971,0.1782321001\H,0,3.6182369674,
 -3.3072560615,-1.532858365\H,0,3.2687322159,-3.8598806895,0.0999682212
 \H,0,1.7341651345,-1.9503431288,0.4668864357\H,0,2.1304562865,-1.29089
 72019,-1.1108750971\H,0,0.6929300555,-3.9418773609,-0.5683812649\H,0,-
 0.0539706413,-2.453302893,-1.1250494807\H,0,1.9480806232,-4.1684815952
 ,-2.6820559565\H,0,0.2291126811,-4.0472911636,-2.9781027815\H,0,2.2328
 806918,-1.7486814989,-3.2966762143\H,0,0.4992936389,-1.6020936951,-3.5
 146987889\H,0,0.56759641,-3.267536526,-5.372201181\H,0,1.53138688,-1.8
 347364342,-5.6960620448\H,0,2.6431916119,-4.543062482,-4.7894453121\H,
 0,2.6498820445,-3.924671479,-6.4258527949\H,0,4.131161962,-2.011496333
 5,-5.7121596778\H,0,4.1667604652,-2.6376048995,-4.0674831064\H,0,4.878
 5136673,-3.5804345586,-5.3842074657\\Version=ES64L-G16RevC.01\State=1-
 A\HF=-543.5448998\RMSD=2.607e-09\Dipole=0.1974521,0.0115277,0.6253015\
 Quadrupole=0.2238494,0.8782293,-1.1020787,1.2562018,0.6979249,-0.67552
 63\PG=C01 [X(C10H20O2)]\\@
 The archive entry for this job was punched.


 Boundary, n.  In political geography, an imaginary
 line between two nations, separating the imaginary
 rights of one from the imaginary rights of another.
                               -- Ambrose Bierce
 Job cpu time:       0 days  0 hours 42 minutes 58.6 seconds.
 Elapsed time:       0 days  0 hours  1 minutes 32.1 seconds.
 File lengths (MBytes):  RWF=    140 Int=      0 D2E=      0 Chk=     24 Scr=      1
 Normal termination of Gaussian 16 at Sat Feb  5 09:09:58 2022.
