 Entering Gaussian System, Link 0=/uufs/chpc.utah.edu/sys/installdir/gaussian16/C01/AVX2/g16/g16
 Input=Ac1_clust-20.com
 Output=Ac1_clust-20.log
 Initial command:
 /uufs/chpc.utah.edu/sys/installdir/gaussian16/C01/AVX2/g16/l1.exe "/scratch/general/lustre/u6032257/3857476/notchpeak.peaks/Gau-213377.inp" -scrdir="/scratch/general/lustre/u6032257/3857476/notchpeak.peaks/"
 Entering Link 1 = /uufs/chpc.utah.edu/sys/installdir/gaussian16/C01/AVX2/g16/l1.exe PID=    213379.
  
 Copyright (c) 1988-2019, Gaussian, Inc.  All Rights Reserved.
  
 This is part of the Gaussian(R) 16 program.  It is based on
 the Gaussian(R) 09 system (copyright 2009, Gaussian, Inc.),
 the Gaussian(R) 03 system (copyright 2003, Gaussian, Inc.),
 the Gaussian(R) 98 system (copyright 1998, Gaussian, Inc.),
 the Gaussian(R) 94 system (copyright 1995, Gaussian, Inc.),
 the Gaussian 92(TM) system (copyright 1992, Gaussian, Inc.),
 the Gaussian 90(TM) system (copyright 1990, Gaussian, Inc.),
 the Gaussian 88(TM) system (copyright 1988, Gaussian, Inc.),
 the Gaussian 86(TM) system (copyright 1986, Carnegie Mellon
 University), and the Gaussian 82(TM) system (copyright 1983,
 Carnegie Mellon University). Gaussian is a federally registered
 trademark of Gaussian, Inc.
  
 This software contains proprietary and confidential information,
 including trade secrets, belonging to Gaussian, Inc.
  
 This software is provided under written license and may be
 used, copied, transmitted, or stored only in accord with that
 written license.
  
 The following legend is applicable only to US Government
 contracts under FAR:
  
                    RESTRICTED RIGHTS LEGEND
  
 Use, reproduction and disclosure by the US Government is
 subject to restrictions as set forth in subparagraphs (a)
 and (c) of the Commercial Computer Software - Restricted
 Rights clause in FAR 52.227-19.
  
 Gaussian, Inc.
 340 Quinnipiac St., Bldg. 40, Wallingford CT 06492
  
  
 ---------------------------------------------------------------
 Warning -- This program may not be used in any manner that
 competes with the business of Gaussian, Inc. or will provide
 assistance to any competitor of Gaussian, Inc.  The licensee
 of this program is prohibited from giving any competitor of
 Gaussian, Inc. access to this program.  By using this program,
 the user acknowledges that Gaussian, Inc. is engaged in the
 business of creating and licensing software in the field of
 computational chemistry and represents and warrants to the
 licensee that it is not a competitor of Gaussian, Inc. and that
 it will not use this program in any manner prohibited above.
 ---------------------------------------------------------------
  

 Cite this work as:
 Gaussian 16, Revision C.01,
 M. J. Frisch, G. W. Trucks, H. B. Schlegel, G. E. Scuseria, 
 M. A. Robb, J. R. Cheeseman, G. Scalmani, V. Barone, 
 G. A. Petersson, H. Nakatsuji, X. Li, M. Caricato, A. V. Marenich, 
 J. Bloino, B. G. Janesko, R. Gomperts, B. Mennucci, H. P. Hratchian, 
 J. V. Ortiz, A. F. Izmaylov, J. L. Sonnenberg, D. Williams-Young, 
 F. Ding, F. Lipparini, F. Egidi, J. Goings, B. Peng, A. Petrone, 
 T. Henderson, D. Ranasinghe, V. G. Zakrzewski, J. Gao, N. Rega, 
 G. Zheng, W. Liang, M. Hada, M. Ehara, K. Toyota, R. Fukuda, 
 J. Hasegawa, M. Ishida, T. Nakajima, Y. Honda, O. Kitao, H. Nakai, 
 T. Vreven, K. Throssell, J. A. Montgomery, Jr., J. E. Peralta, 
 F. Ogliaro, M. J. Bearpark, J. J. Heyd, E. N. Brothers, K. N. Kudin, 
 V. N. Staroverov, T. A. Keith, R. Kobayashi, J. Normand, 
 K. Raghavachari, A. P. Rendell, J. C. Burant, S. S. Iyengar, 
 J. Tomasi, M. Cossi, J. M. Millam, M. Klene, C. Adamo, R. Cammi, 
 J. W. Ochterski, R. L. Martin, K. Morokuma, O. Farkas, 
 J. B. Foresman, and D. J. Fox, Gaussian, Inc., Wallingford CT, 2019.
 
 ******************************************
 Gaussian 16:  ES64L-G16RevC.01  3-Jul-2019
                 3-Feb-2022 
 ******************************************
 %NProcShared=32
 Will use up to   32 processors via shared memory.
 %mem=16GB
 %chk=Ac1_clust-20.chk
 ----------------------------------------------------------------------
 # B3LYP/6-31G(d,p) empiricaldispersion=GD3BJ int=(grid=ultrafine) opt 
 freq=noraman
 ----------------------------------------------------------------------
 1/18=20,19=15,26=4,38=1/1,3;
 2/9=110,12=2,17=6,18=5,40=1/2;
 3/5=1,6=6,7=101,11=2,25=1,30=1,71=1,74=-5,75=-5,124=41/1,2,3;
 4//1;
 5/5=2,38=5/2;
 6/7=2,8=2,9=2,10=2,28=1/1;
 7//1,2,3,16;
 1/18=20,19=15,26=4/3(2);
 2/9=110/2;
 99//99;
 2/9=110/2;
 3/5=1,6=6,7=101,11=2,25=1,30=1,71=1,74=-5,75=-5,124=41/1,2,3;
 4/5=5,16=3,69=1/1;
 5/5=2,38=5/2;
 7//1,2,3,16;
 1/18=20,19=15,26=4/3(-5);
 2/9=110/2;
 6/7=2,8=2,9=2,10=2,19=2,28=1/1;
 99/9=1/99;
 -------
 Ac1.xyz
 -------
 Symbolic Z-matrix:
 Charge =  0 Multiplicity = 1
 O                     6.3598   -0.615    -0.0099 
 C                     5.0283   -0.4029    0.0528 
 C                     4.2894   -1.609     0.6335 
 C                     2.7429   -1.5721    0.5136 
 C                     2.1801   -1.6276   -0.9241 
 C                     2.5122   -2.9261   -1.6839 
 C                     1.8516   -2.9862   -3.0724 
 C                     2.1896   -4.2807   -3.8369 
 C                     1.4723   -4.4193   -5.1944 
 C                     1.9064   -3.3824   -6.2474 
 C                     1.2405   -3.6116   -7.6115 
 O                     4.5025    0.6452   -0.2948 
 H                     6.7071    0.1989   -0.3763 
 H                     4.5635   -1.6507    1.687 
 H                     4.6864   -2.5164    0.1804 
 H                     2.3247   -2.4029    1.0848 
 H                     2.3655   -0.6725    1.0057 
 H                     1.0958   -1.5139   -0.8728 
 H                     2.5336   -0.7671   -1.495 
 H                     3.5928   -3.0179   -1.8014 
 H                     2.1938   -3.7859   -1.0919 
 H                     0.7688   -2.9007   -2.9642 
 H                     2.1687   -2.1197   -3.6545 
 H                     1.9219   -5.138    -3.2167 
 H                     3.2686   -4.3497   -3.9863 
 H                     1.6631   -5.4206   -5.5847 
 H                     0.3927   -4.362    -5.044 
 H                     1.6659   -2.3758   -5.9028 
 H                     2.9908   -3.4119   -6.3674 
 H                     0.154    -3.55     -7.538 
 H                     1.5645   -2.8626   -8.3349 
 H                     1.4928   -4.592    -8.0175 
 

 GradGradGradGradGradGradGradGradGradGradGradGradGradGradGradGradGradGrad
 Berny optimization.
 Initialization pass.
                           ----------------------------
                           !    Initial Parameters    !
                           ! (Angstroms and Degrees)  !
 --------------------------                            --------------------------
 ! Name  Definition              Value          Derivative Info.                !
 --------------------------------------------------------------------------------
 ! R1    R(1,2)                  1.3497         estimate D2E/DX2                !
 ! R2    R(1,13)                 0.9578         estimate D2E/DX2                !
 ! R3    R(2,3)                  1.529          estimate D2E/DX2                !
 ! R4    R(2,12)                 1.223          estimate D2E/DX2                !
 ! R5    R(3,4)                  1.5516         estimate D2E/DX2                !
 ! R6    R(3,14)                 1.0894         estimate D2E/DX2                !
 ! R7    R(3,15)                 1.0892         estimate D2E/DX2                !
 ! R8    R(4,5)                  1.5449         estimate D2E/DX2                !
 ! R9    R(4,16)                 1.0915         estimate D2E/DX2                !
 ! R10   R(4,17)                 1.0926         estimate D2E/DX2                !
 ! R11   R(5,6)                  1.5407         estimate D2E/DX2                !
 ! R12   R(5,18)                 1.0915         estimate D2E/DX2                !
 ! R13   R(5,19)                 1.0915         estimate D2E/DX2                !
 ! R14   R(6,7)                  1.5388         estimate D2E/DX2                !
 ! R15   R(6,20)                 1.0908         estimate D2E/DX2                !
 ! R16   R(6,21)                 1.0914         estimate D2E/DX2                !
 ! R17   R(7,8)                  1.5409         estimate D2E/DX2                !
 ! R18   R(7,22)                 1.0915         estimate D2E/DX2                !
 ! R19   R(7,23)                 1.091          estimate D2E/DX2                !
 ! R20   R(8,9)                  1.5416         estimate D2E/DX2                !
 ! R21   R(8,24)                 1.0915         estimate D2E/DX2                !
 ! R22   R(8,25)                 1.0915         estimate D2E/DX2                !
 ! R23   R(9,10)                 1.5403         estimate D2E/DX2                !
 ! R24   R(9,26)                 1.0915         estimate D2E/DX2                !
 ! R25   R(9,27)                 1.0915         estimate D2E/DX2                !
 ! R26   R(10,11)                1.5352         estimate D2E/DX2                !
 ! R27   R(10,28)                1.0908         estimate D2E/DX2                !
 ! R28   R(10,29)                1.0914         estimate D2E/DX2                !
 ! R29   R(11,30)                1.0907         estimate D2E/DX2                !
 ! R30   R(11,31)                1.0905         estimate D2E/DX2                !
 ! R31   R(11,32)                1.0907         estimate D2E/DX2                !
 ! A1    A(2,1,13)             104.0016         estimate D2E/DX2                !
 ! A2    A(1,2,3)              111.7409         estimate D2E/DX2                !
 ! A3    A(1,2,12)             123.0634         estimate D2E/DX2                !
 ! A4    A(3,2,12)             125.1816         estimate D2E/DX2                !
 ! A5    A(2,3,4)              115.694          estimate D2E/DX2                !
 ! A6    A(2,3,14)             106.0147         estimate D2E/DX2                !
 ! A7    A(2,3,15)             108.8463         estimate D2E/DX2                !
 ! A8    A(4,3,14)             109.0523         estimate D2E/DX2                !
 ! A9    A(4,3,15)             110.5468         estimate D2E/DX2                !
 ! A10   A(14,3,15)            106.1829         estimate D2E/DX2                !
 ! A11   A(3,4,5)              115.7315         estimate D2E/DX2                !
 ! A12   A(3,4,16)             108.8653         estimate D2E/DX2                !
 ! A13   A(3,4,17)             109.2109         estimate D2E/DX2                !
 ! A14   A(5,4,16)             108.6674         estimate D2E/DX2                !
 ! A15   A(5,4,17)             108.8364         estimate D2E/DX2                !
 ! A16   A(16,4,17)            104.9899         estimate D2E/DX2                !
 ! A17   A(4,5,6)              114.2478         estimate D2E/DX2                !
 ! A18   A(4,5,18)             108.3258         estimate D2E/DX2                !
 ! A19   A(4,5,19)             109.9037         estimate D2E/DX2                !
 ! A20   A(6,5,18)             108.9728         estimate D2E/DX2                !
 ! A21   A(6,5,19)             109.6754         estimate D2E/DX2                !
 ! A22   A(18,5,19)            105.3197         estimate D2E/DX2                !
 ! A23   A(5,6,7)              112.6666         estimate D2E/DX2                !
 ! A24   A(5,6,20)             109.7294         estimate D2E/DX2                !
 ! A25   A(5,6,21)             109.4865         estimate D2E/DX2                !
 ! A26   A(7,6,20)             108.9524         estimate D2E/DX2                !
 ! A27   A(7,6,21)             109.4776         estimate D2E/DX2                !
 ! A28   A(20,6,21)            106.3279         estimate D2E/DX2                !
 ! A29   A(6,7,8)              112.7254         estimate D2E/DX2                !
 ! A30   A(6,7,22)             109.4723         estimate D2E/DX2                !
 ! A31   A(6,7,23)             109.0047         estimate D2E/DX2                !
 ! A32   A(8,7,22)             109.4251         estimate D2E/DX2                !
 ! A33   A(8,7,23)             109.8014         estimate D2E/DX2                !
 ! A34   A(22,7,23)            106.2009         estimate D2E/DX2                !
 ! A35   A(7,8,9)              114.2268         estimate D2E/DX2                !
 ! A36   A(7,8,24)             108.9133         estimate D2E/DX2                !
 ! A37   A(7,8,25)             109.7465         estimate D2E/DX2                !
 ! A38   A(9,8,24)             108.399          estimate D2E/DX2                !
 ! A39   A(9,8,25)             109.4972         estimate D2E/DX2                !
 ! A40   A(24,8,25)            105.6993         estimate D2E/DX2                !
 ! A41   A(8,9,10)             114.2265         estimate D2E/DX2                !
 ! A42   A(8,9,26)             108.4226         estimate D2E/DX2                !
 ! A43   A(8,9,27)             109.5213         estimate D2E/DX2                !
 ! A44   A(10,9,26)            108.8954         estimate D2E/DX2                !
 ! A45   A(10,9,27)            109.7315         estimate D2E/DX2                !
 ! A46   A(26,9,27)            105.6836         estimate D2E/DX2                !
 ! A47   A(9,10,11)            112.6259         estimate D2E/DX2                !
 ! A48   A(9,10,28)            110.067          estimate D2E/DX2                !
 ! A49   A(9,10,29)            109.6938         estimate D2E/DX2                !
 ! A50   A(11,10,28)           108.8356         estimate D2E/DX2                !
 ! A51   A(11,10,29)           109.2229         estimate D2E/DX2                !
 ! A52   A(28,10,29)           106.1851         estimate D2E/DX2                !
 ! A53   A(10,11,30)           111.3323         estimate D2E/DX2                !
 ! A54   A(10,11,31)           110.9781         estimate D2E/DX2                !
 ! A55   A(10,11,32)           111.3839         estimate D2E/DX2                !
 ! A56   A(30,11,31)           107.5694         estimate D2E/DX2                !
 ! A57   A(30,11,32)           107.8343         estimate D2E/DX2                !
 ! A58   A(31,11,32)           107.5601         estimate D2E/DX2                !
 ! D1    D(13,1,2,3)          -179.5237         estimate D2E/DX2                !
 ! D2    D(13,1,2,12)           -0.8249         estimate D2E/DX2                !
 ! D3    D(1,2,3,4)           -169.4236         estimate D2E/DX2                !
 ! D4    D(1,2,3,14)            69.5807         estimate D2E/DX2                !
 ! D5    D(1,2,3,15)           -44.2699         estimate D2E/DX2                !
 ! D6    D(12,2,3,4)            11.9106         estimate D2E/DX2                !
 ! D7    D(12,2,3,14)         -109.0851         estimate D2E/DX2                !
 ! D8    D(12,2,3,15)          137.0643         estimate D2E/DX2                !
 ! D9    D(2,3,4,5)             65.4498         estimate D2E/DX2                !
 ! D10   D(2,3,4,16)          -171.8559         estimate D2E/DX2                !
 ! D11   D(2,3,4,17)           -57.7443         estimate D2E/DX2                !
 ! D12   D(14,3,4,5)          -175.2057         estimate D2E/DX2                !
 ! D13   D(14,3,4,16)          -52.5114         estimate D2E/DX2                !
 ! D14   D(14,3,4,17)           61.6002         estimate D2E/DX2                !
 ! D15   D(15,3,4,5)           -58.8253         estimate D2E/DX2                !
 ! D16   D(15,3,4,16)           63.8691         estimate D2E/DX2                !
 ! D17   D(15,3,4,17)          177.9806         estimate D2E/DX2                !
 ! D18   D(3,4,5,6)             62.8283         estimate D2E/DX2                !
 ! D19   D(3,4,5,18)          -175.5159         estimate D2E/DX2                !
 ! D20   D(3,4,5,19)           -60.9383         estimate D2E/DX2                !
 ! D21   D(16,4,5,6)           -59.9706         estimate D2E/DX2                !
 ! D22   D(16,4,5,18)           61.6853         estimate D2E/DX2                !
 ! D23   D(16,4,5,19)          176.2628         estimate D2E/DX2                !
 ! D24   D(17,4,5,6)          -173.781          estimate D2E/DX2                !
 ! D25   D(17,4,5,18)          -52.1251         estimate D2E/DX2                !
 ! D26   D(17,4,5,19)           62.4524         estimate D2E/DX2                !
 ! D27   D(4,5,6,7)            175.9159         estimate D2E/DX2                !
 ! D28   D(4,5,6,20)           -62.5039         estimate D2E/DX2                !
 ! D29   D(4,5,6,21)            53.8373         estimate D2E/DX2                !
 ! D30   D(18,5,6,7)            54.6167         estimate D2E/DX2                !
 ! D31   D(18,5,6,20)          176.1969         estimate D2E/DX2                !
 ! D32   D(18,5,6,21)          -67.4619         estimate D2E/DX2                !
 ! D33   D(19,5,6,7)           -60.1949         estimate D2E/DX2                !
 ! D34   D(19,5,6,20)           61.3853         estimate D2E/DX2                !
 ! D35   D(19,5,6,21)          177.7265         estimate D2E/DX2                !
 ! D36   D(5,6,7,8)            179.6619         estimate D2E/DX2                !
 ! D37   D(5,6,7,22)           -58.2969         estimate D2E/DX2                !
 ! D38   D(5,6,7,23)            57.4739         estimate D2E/DX2                !
 ! D39   D(20,6,7,8)            57.6419         estimate D2E/DX2                !
 ! D40   D(20,6,7,22)          179.683          estimate D2E/DX2                !
 ! D41   D(20,6,7,23)          -64.5462         estimate D2E/DX2                !
 ! D42   D(21,6,7,8)           -58.2545         estimate D2E/DX2                !
 ! D43   D(21,6,7,22)           63.7867         estimate D2E/DX2                !
 ! D44   D(21,6,7,23)          179.5575         estimate D2E/DX2                !
 ! D45   D(6,7,8,9)            176.2157         estimate D2E/DX2                !
 ! D46   D(6,7,8,24)            54.8802         estimate D2E/DX2                !
 ! D47   D(6,7,8,25)           -60.3906         estimate D2E/DX2                !
 ! D48   D(22,7,8,9)            54.1479         estimate D2E/DX2                !
 ! D49   D(22,7,8,24)          -67.1875         estimate D2E/DX2                !
 ! D50   D(22,7,8,25)          177.5416         estimate D2E/DX2                !
 ! D51   D(23,7,8,9)           -62.046          estimate D2E/DX2                !
 ! D52   D(23,7,8,24)          176.6186         estimate D2E/DX2                !
 ! D53   D(23,7,8,25)           61.3477         estimate D2E/DX2                !
 ! D54   D(7,8,9,10)            66.4009         estimate D2E/DX2                !
 ! D55   D(7,8,9,26)          -171.9859         estimate D2E/DX2                !
 ! D56   D(7,8,9,27)           -57.1261         estimate D2E/DX2                !
 ! D57   D(24,8,9,10)         -171.98           estimate D2E/DX2                !
 ! D58   D(24,8,9,26)          -50.3668         estimate D2E/DX2                !
 ! D59   D(24,8,9,27)           64.493          estimate D2E/DX2                !
 ! D60   D(25,8,9,10)          -57.1273         estimate D2E/DX2                !
 ! D61   D(25,8,9,26)           64.4859         estimate D2E/DX2                !
 ! D62   D(25,8,9,27)          179.3457         estimate D2E/DX2                !
 ! D63   D(8,9,10,11)          176.1469         estimate D2E/DX2                !
 ! D64   D(8,9,10,28)          -62.2097         estimate D2E/DX2                !
 ! D65   D(8,9,10,29)           54.274          estimate D2E/DX2                !
 ! D66   D(26,9,10,11)          54.7944         estimate D2E/DX2                !
 ! D67   D(26,9,10,28)         176.4378         estimate D2E/DX2                !
 ! D68   D(26,9,10,29)         -67.0785         estimate D2E/DX2                !
 ! D69   D(27,9,10,11)         -60.4395         estimate D2E/DX2                !
 ! D70   D(27,9,10,28)          61.2039         estimate D2E/DX2                !
 ! D71   D(27,9,10,29)         177.6876         estimate D2E/DX2                !
 ! D72   D(9,10,11,30)          60.089          estimate D2E/DX2                !
 ! D73   D(9,10,11,31)         179.878          estimate D2E/DX2                !
 ! D74   D(9,10,11,32)         -60.3103         estimate D2E/DX2                !
 ! D75   D(28,10,11,30)        -62.2506         estimate D2E/DX2                !
 ! D76   D(28,10,11,31)         57.5384         estimate D2E/DX2                !
 ! D77   D(28,10,11,32)        177.3501         estimate D2E/DX2                !
 ! D78   D(29,10,11,30)       -177.7719         estimate D2E/DX2                !
 ! D79   D(29,10,11,31)        -57.9829         estimate D2E/DX2                !
 ! D80   D(29,10,11,32)         61.8289         estimate D2E/DX2                !
 --------------------------------------------------------------------------------
 Trust Radius=3.00D-01 FncErr=1.00D-07 GrdErr=1.00D-06 EigMax=2.50D+02 EigMin=1.00D-04
 Number of steps in this run=    179 maximum allowed number of steps=    192.
 GradGradGradGradGradGradGradGradGradGradGradGradGradGradGradGradGradGrad

                          Input orientation:                          
 ---------------------------------------------------------------------
 Center     Atomic      Atomic             Coordinates (Angstroms)
 Number     Number       Type             X           Y           Z
 ---------------------------------------------------------------------
      1          8           0        6.359800   -0.615000   -0.009900
      2          6           0        5.028300   -0.402900    0.052800
      3          6           0        4.289400   -1.609000    0.633500
      4          6           0        2.742900   -1.572100    0.513600
      5          6           0        2.180100   -1.627600   -0.924100
      6          6           0        2.512200   -2.926100   -1.683900
      7          6           0        1.851600   -2.986200   -3.072400
      8          6           0        2.189600   -4.280700   -3.836900
      9          6           0        1.472300   -4.419300   -5.194400
     10          6           0        1.906400   -3.382400   -6.247400
     11          6           0        1.240500   -3.611600   -7.611500
     12          8           0        4.502500    0.645200   -0.294800
     13          1           0        6.707100    0.198900   -0.376300
     14          1           0        4.563500   -1.650700    1.687000
     15          1           0        4.686400   -2.516400    0.180400
     16          1           0        2.324700   -2.402900    1.084800
     17          1           0        2.365500   -0.672500    1.005700
     18          1           0        1.095800   -1.513900   -0.872800
     19          1           0        2.533600   -0.767100   -1.495000
     20          1           0        3.592800   -3.017900   -1.801400
     21          1           0        2.193800   -3.785900   -1.091900
     22          1           0        0.768800   -2.900700   -2.964200
     23          1           0        2.168700   -2.119700   -3.654500
     24          1           0        1.921900   -5.138000   -3.216700
     25          1           0        3.268600   -4.349700   -3.986300
     26          1           0        1.663100   -5.420600   -5.584700
     27          1           0        0.392700   -4.362000   -5.044000
     28          1           0        1.665900   -2.375800   -5.902800
     29          1           0        2.990800   -3.411900   -6.367400
     30          1           0        0.154000   -3.550000   -7.538000
     31          1           0        1.564500   -2.862600   -8.334900
     32          1           0        1.492800   -4.592000   -8.017500
 ---------------------------------------------------------------------
                    Distance matrix (angstroms):
                    1          2          3          4          5
     1  O    0.000000
     2  C    1.349744   0.000000
     3  C    2.385069   1.529007   0.000000
     4  C    3.777838   2.608145   1.551580   0.000000
     5  C    4.396705   3.250610   2.622138   1.544929   0.000000
     6  C    4.790353   3.964016   3.203675   2.591437   1.540678
     7  C    5.943514   5.150897   4.644701   3.956449   2.562986
     8  C    6.743430   6.182663   5.615302   5.154562   3.939979
     9  C    8.077091   7.503980   7.056788   6.504017   5.150731
    10  C    8.148477   7.636504   7.494693   7.048974   5.611752
    11  C    9.642156   9.131521   9.015887   8.510818   7.038496
    12  O    2.262484   1.223031   2.447156   2.943828   3.309861
    13  H    0.957758   1.834301   3.183311   4.432070   4.912221
    14  H    2.679335   2.107998   1.089372   2.167402   3.535389
    15  H    2.540040   2.144775   1.089166   2.186302   2.879484
    16  H    4.547195   3.517737   2.166563   1.091508   2.158166
    17  H    4.121794   2.840987   2.171855   1.092645   2.161184
    18  H    5.409465   4.189942   3.532289   2.153702   1.091451
    19  H    4.107123   2.958353   2.884812   2.174007   1.091489
    20  H    4.079178   3.512398   2.898101   2.858652   2.167559
    21  H    5.346110   4.559541   3.479574   2.789274   2.164856
    22  H    6.723957   5.786591   5.196783   4.213946   2.788290
    23  H    5.754351   4.986862   4.810938   4.242951   2.774415
    24  H    7.101834   6.539153   5.734365   5.225402   4.200665
    25  H    6.270188   5.915074   5.467725   5.314181   4.239308
    26  H    8.731047   8.263370   7.751887   7.291514   6.031196
    27  H    8.659587   7.946108   7.416016   6.647849   5.257882
    28  H    7.736885   7.118092   7.084769   6.555612   5.060796
    29  H    7.719496   7.377293   7.345026   7.127025   5.785367
    30  H   10.188153   9.554229   9.361753   8.685779   7.179441
    31  H    9.866724   9.402210   9.456680   9.019422   7.538179
    32  H   10.179680   9.755924   9.568650   9.135766   7.718573
                    6          7          8          9         10
     6  C    0.000000
     7  C    1.538810   0.000000
     8  C    2.564063   1.540920   0.000000
     9  C    3.954067   2.588538   1.541602   0.000000
    10  C    4.626093   3.200094   2.587983   1.540264   0.000000
    11  C    6.101112   4.622553   3.949189   2.559000   1.535163
    12  O    4.317995   5.284827   6.493109   7.670551   7.641645
    13  H    5.391904   6.402320   7.242263   8.482039   8.387028
    14  H    4.146980   5.638249   6.562452   8.035815   8.544804
    15  H    2.893201   4.340220   5.048313   6.545223   7.056555
    16  H    2.823932   4.224497   5.269489   6.649873   7.409153
    17  H    3.512005   4.716800   6.041591   7.299148   7.756403
    18  H    2.158328   2.752661   4.199699   5.221047   5.747581
    19  H    2.167354   2.806728   4.236534   5.305703   5.460630
    20  H    1.090839   2.155974   2.776129   4.239445   4.769038
    21  H    1.091375   2.163100   2.789242   4.213344   5.179246
    22  H    2.163159   1.091546   2.164412   2.788342   3.507930
    23  H    2.156742   1.090970   2.168785   2.853844   2.895918
    24  H    2.755074   2.157778   1.091455   2.151736   3.502501
    25  H    2.810662   2.168464   1.091477   2.165882   2.811375
    26  H    4.707413   3.503354   2.152064   1.091485   2.156995
    27  H    4.224259   2.812192   2.166229   1.091531   2.167735
    28  H    4.337992   2.901420   2.858470   2.171452   1.090795
    29  H    4.732888   3.512267   2.792878   2.167170   1.091418
    30  H    6.341991   4.810540   4.286692   2.825961   2.182806
    31  H    6.718480   5.271775   4.757495   3.506359   2.178243
    32  H    6.627887   5.211655   4.249689   2.828452   2.183449
                   11         12         13         14         15
    11  C    0.000000
    12  O    9.071664   0.000000
    13  H    9.836246   2.250797   0.000000
    14  H   10.067252   3.033547   3.503320   0.000000
    15  H    8.589959   3.202397   3.430160   1.741948   0.000000
    16  H    8.846586   3.992120   5.301849   2.437350   2.531491
    17  H    9.173880   2.827437   4.638831   2.500450   3.076957
    18  H    7.059133   4.074482   5.887859   4.312335   3.873841
    19  H    6.868396   2.704004   4.427499   3.876386   3.240612
    20  H    6.296273   4.063951   4.698678   3.870456   2.318403
    21  H    6.591232   5.059655   6.063051   4.230466   3.073017
    22  H    4.724963   5.799967   7.181097   6.131550   5.038232
    23  H    4.329569   4.937497   6.059668   5.872534   4.604633
    24  H    4.701964   6.974410   7.710286   6.571574   5.104462
    25  H    4.219011   6.332354   6.748714   6.414647   4.767865
    26  H    2.749362   8.534586   9.173230   8.689194   7.128190
    27  H    2.806051   8.032273   9.080797   8.369772   7.009740
    28  H    2.151237   6.972977   7.911067   8.156404   6.793270
    29  H    2.156668   7.458000   7.920987   8.393365   6.822805
    30  H    1.090724   9.432555  10.406119  10.399599   9.010254
    31  H    1.090543   9.250930   9.957833  10.530963   9.076147
    32  H    1.090722   9.804420  10.417753  10.595176   9.039511
                   16         17         18         19         20
    16  H    0.000000
    17  H    1.732687   0.000000
    18  H    2.476432   2.418440   0.000000
    19  H    3.061838   2.508128   1.735544   0.000000
    20  H    3.211924   3.858365   3.059301   2.506369   0.000000
    21  H    2.582217   3.758014   2.532902   3.064491   1.746544
    22  H    4.366123   4.824358   2.530632   3.134536   3.056275
    23  H    4.750316   4.883706   3.042361   2.574125   2.503758
    24  H    5.113308   6.161666   4.394361   4.737425   3.047918
    25  H    5.513350   6.265577   4.738850   4.425135   2.579261
    26  H    7.350269   8.152987   6.147043   6.256075   4.879556
    27  H    6.718101   7.355489   5.099503   5.486544   4.749916
    28  H    7.018640   7.149688   5.135055   4.771742   4.576758
    29  H    7.549639   7.890369   6.114250   5.562758   4.622337
    30  H    8.965515   9.282540   7.032608   7.065754   6.709475
    31  H    9.461500   9.627302   7.597474   7.219038   6.842861
    32  H    9.398728   9.876347   7.789676   7.632570   6.747421
                   21         22         23         24         25
    21  H    0.000000
    22  H    2.513904   0.000000
    23  H    3.056758   1.745335   0.000000
    24  H    2.533156   2.529606   3.059855   0.000000
    25  H    3.138569   3.064847   2.508540   1.739914   0.000000
    26  H    4.810316   3.743887   3.857103   2.398805   2.505861
    27  H    4.381204   2.569517   3.180062   2.505924   3.064259
    28  H    5.041014   3.116998   2.318027   3.861401   3.184007
    29  H    5.348456   4.096386   3.115358   3.748183   2.574156
    30  H    6.765252   4.660388   4.602863   4.931617   4.791120
    31  H    7.328680   5.429457   4.777353   5.612589   4.901606
    32  H    7.007506   5.377780   5.060126   4.850765   4.411661
                   26         27         28         29         30
    26  H    0.000000
    27  H    1.739801   0.000000
    28  H    3.061373   2.510690   0.000000
    29  H    2.531854   3.066627   1.744912   0.000000
    30  H    3.097081   2.633697   2.517631   3.071939   0.000000
    31  H    3.757218   3.801492   2.482411   2.491409   1.759852
    32  H    2.575674   3.178808   3.068137   2.521799   1.762972
                   31         32
    31  H    0.000000
    32  H    1.759747   0.000000
 Stoichiometry    C10H20O2
 Framework group  C1[X(C10H20O2)]
 Deg. of freedom    90
 Full point group                 C1      NOp   1
 Largest Abelian subgroup         C1      NOp   1
 Largest concise Abelian subgroup C1      NOp   1
                         Standard orientation:                         
 ---------------------------------------------------------------------
 Center     Atomic      Atomic             Coordinates (Angstroms)
 Number     Number       Type             X           Y           Z
 ---------------------------------------------------------------------
      1          8           0        3.982250    1.684247   -1.003504
      2          6           0        3.582172    0.854443   -0.017009
      3          6           0        3.260136   -0.542773   -0.547994
      4          6           0        2.551794   -1.495366    0.451115
      5          6           0        1.127566   -1.078339    0.880616
      6          6           0        0.106433   -1.034347   -0.272224
      7          6           0       -1.319093   -0.713267    0.210186
      8          6           0       -2.340028   -0.660740   -0.942796
      9          6           0       -3.795544   -0.432499   -0.489019
     10          6           0       -4.052124    0.949923    0.139861
     11          6           0       -5.529578    1.173681    0.491694
     12          8           0        3.517708    1.194672    1.155975
     13          1           0        4.159136    2.510953   -0.553429
     14          1           0        4.213858   -0.980111   -0.841048
     15          1           0        2.676841   -0.445747   -1.462672
     16          1           0        2.506445   -2.494633    0.014311
     17          1           0        3.171640   -1.605187    1.344201
     18          1           0        0.777633   -1.782086    1.637949
     19          1           0        1.159226   -0.108669    1.380704
     20          1           0        0.409855   -0.284936   -1.004513
     21          1           0        0.106487   -1.992168   -0.795366
     22          1           0       -1.633594   -1.461818    0.939730
     23          1           0       -1.308830    0.241189    0.738507
     24          1           0       -2.295411   -1.599442   -1.497885
     25          1           0       -2.053897    0.116580   -1.653588
     26          1           0       -4.449701   -0.554135   -1.354250
     27          1           0       -4.085925   -1.216316    0.212942
     28          1           0       -3.453197    1.066789    1.043997
     29          1           0       -3.723525    1.732724   -0.546025
     30          1           0       -5.883754    0.431182    1.207888
     31          1           0       -5.680305    2.158007    0.936293
     32          1           0       -6.163055    1.112176   -0.394082
 ---------------------------------------------------------------------
 Rotational constants (GHZ):           1.6325991           0.2544875           0.2399105
 Standard basis: 6-31G(d,p) (6D, 7F)
 There are   280 symmetry adapted cartesian basis functions of A   symmetry.
 There are   280 symmetry adapted basis functions of A   symmetry.
   280 basis functions,   476 primitive gaussians,   280 cartesian basis functions
    48 alpha electrons       48 beta electrons
       nuclear repulsion energy       695.5535922897 Hartrees.
 NAtoms=   32 NActive=   32 NUniq=   32 SFac= 1.00D+00 NAtFMM=   60 NAOKFM=F Big=F
 Integral buffers will be    131072 words long.
 Raffenetti 2 integral format.
 Two-electron integral symmetry is turned on.
 Nuclear repulsion after empirical dispersion term =      695.5069739582 Hartrees.
 One-electron integrals computed using PRISM.
 NBasis=   280 RedAO= T EigKep=  2.75D-03  NBF=   280
 NBsUse=   280 1.00D-06 EigRej= -1.00D+00 NBFU=   280
 ExpMin= 1.61D-01 ExpMax= 5.48D+03 ExpMxC= 8.25D+02 IAcc=3 IRadAn=         5 AccDes= 0.00D+00
 Harris functional with IExCor=  402 and IRadAn=       5 diagonalized for initial guess.
 HarFok:  IExCor=  402 AccDes= 0.00D+00 IRadAn=         5 IDoV= 1 UseB2=F ITyADJ=14
 ICtDFT=  3500011 ScaDFX=  1.000000  1.000000  1.000000  1.000000
 FoFCou: FMM=F IPFlag=           0 FMFlag=      100000 FMFlg1=           0
         NFxFlg=           0 DoJE=T BraDBF=F KetDBF=T FulRan=T
         wScrn=  0.000000 ICntrl=       500 IOpCl=  0 I1Cent=   200000004 NGrid=           0
         NMat0=    1 NMatS0=      1 NMatT0=    0 NMatD0=    1 NMtDS0=    0 NMtDT0=    0
 Petite list used in FoFCou.
 Requested convergence on RMS density matrix=1.00D-08 within 128 cycles.
 Requested convergence on MAX density matrix=1.00D-06.
 Requested convergence on             energy=1.00D-06.
 No special actions if energy rises.
 Integral accuracy reduced to 1.0D-05 until final iterations.
 Initial convergence to 1.0D-05 achieved.  Increase integral accuracy.
 SCF Done:  E(RB3LYP) =  -543.666235454     A.U. after   13 cycles
            NFock= 13  Conv=0.24D-08     -V/T= 2.0096

 **********************************************************************

            Population analysis using the SCF Density.

 **********************************************************************

 Orbital symmetries:
       Occupied  (A) (A) (A) (A) (A) (A) (A) (A) (A) (A) (A) (A)
                 (A) (A) (A) (A) (A) (A) (A) (A) (A) (A) (A) (A)
                 (A) (A) (A) (A) (A) (A) (A) (A) (A) (A) (A) (A)
                 (A) (A) (A) (A) (A) (A) (A) (A) (A) (A) (A) (A)
       Virtual   (A) (A) (A) (A) (A) (A) (A) (A) (A) (A) (A) (A)
                 (A) (A) (A) (A) (A) (A) (A) (A) (A) (A) (A) (A)
                 (A) (A) (A) (A) (A) (A) (A) (A) (A) (A) (A) (A)
                 (A) (A) (A) (A) (A) (A) (A) (A) (A) (A) (A) (A)
                 (A) (A) (A) (A) (A) (A) (A) (A) (A) (A) (A) (A)
                 (A) (A) (A) (A) (A) (A) (A) (A) (A) (A) (A) (A)
                 (A) (A) (A) (A) (A) (A) (A) (A) (A) (A) (A) (A)
                 (A) (A) (A) (A) (A) (A) (A) (A) (A) (A) (A) (A)
                 (A) (A) (A) (A) (A) (A) (A) (A) (A) (A) (A) (A)
                 (A) (A) (A) (A) (A) (A) (A) (A) (A) (A) (A) (A)
                 (A) (A) (A) (A) (A) (A) (A) (A) (A) (A) (A) (A)
                 (A) (A) (A) (A) (A) (A) (A) (A) (A) (A) (A) (A)
                 (A) (A) (A) (A) (A) (A) (A) (A) (A) (A) (A) (A)
                 (A) (A) (A) (A) (A) (A) (A) (A) (A) (A) (A) (A)
                 (A) (A) (A) (A) (A) (A) (A) (A) (A) (A) (A) (A)
                 (A) (A) (A) (A) (A) (A) (A) (A) (A) (A) (A) (A)
                 (A) (A) (A) (A) (A) (A) (A) (A) (A) (A) (A) (A)
                 (A) (A) (A) (A) (A) (A) (A) (A) (A) (A) (A) (A)
                 (A) (A) (A) (A) (A) (A) (A) (A) (A) (A) (A) (A)
                 (A) (A) (A) (A)
 The electronic state is 1-A.
 Alpha  occ. eigenvalues --  -19.19950 -19.13909 -10.32244 -10.20092 -10.18553
 Alpha  occ. eigenvalues --  -10.17486 -10.17447 -10.17375 -10.17355 -10.17327
 Alpha  occ. eigenvalues --  -10.17304 -10.16826  -1.10894  -1.01188  -0.80908
 Alpha  occ. eigenvalues --   -0.79307  -0.76441  -0.72820  -0.68876  -0.64235
 Alpha  occ. eigenvalues --   -0.60943  -0.59139  -0.56287  -0.55914  -0.49187
 Alpha  occ. eigenvalues --   -0.47978  -0.47843  -0.46694  -0.45407  -0.43265
 Alpha  occ. eigenvalues --   -0.42517  -0.41617  -0.40711  -0.39676  -0.39317
 Alpha  occ. eigenvalues --   -0.37734  -0.36596  -0.36149  -0.34907  -0.34132
 Alpha  occ. eigenvalues --   -0.33214  -0.32754  -0.32065  -0.31777  -0.31532
 Alpha  occ. eigenvalues --   -0.30646  -0.29696  -0.27272
 Alpha virt. eigenvalues --    0.00867   0.08193   0.08916   0.09503   0.11432
 Alpha virt. eigenvalues --    0.11639   0.12064   0.13878   0.14473   0.15243
 Alpha virt. eigenvalues --    0.16342   0.17106   0.17323   0.17845   0.18384
 Alpha virt. eigenvalues --    0.19085   0.19571   0.20262   0.20458   0.21595
 Alpha virt. eigenvalues --    0.22269   0.22475   0.22717   0.23455   0.24726
 Alpha virt. eigenvalues --    0.25933   0.26618   0.27273   0.29322   0.30458
 Alpha virt. eigenvalues --    0.30837   0.36359   0.49001   0.49375   0.50246
 Alpha virt. eigenvalues --    0.50779   0.52921   0.53293   0.54760   0.55237
 Alpha virt. eigenvalues --    0.57437   0.57960   0.59338   0.59413   0.61375
 Alpha virt. eigenvalues --    0.62904   0.64741   0.65470   0.67329   0.67637
 Alpha virt. eigenvalues --    0.68197   0.69066   0.70350   0.72834   0.74619
 Alpha virt. eigenvalues --    0.75781   0.77867   0.78560   0.80639   0.81372
 Alpha virt. eigenvalues --    0.82893   0.83940   0.84478   0.85765   0.86325
 Alpha virt. eigenvalues --    0.87315   0.88379   0.89551   0.90028   0.90610
 Alpha virt. eigenvalues --    0.90792   0.91906   0.92625   0.93143   0.94035
 Alpha virt. eigenvalues --    0.94634   0.94916   0.95515   0.96397   0.96837
 Alpha virt. eigenvalues --    0.97256   0.98270   0.99498   1.01169   1.02817
 Alpha virt. eigenvalues --    1.04784   1.09879   1.12348   1.13924   1.17578
 Alpha virt. eigenvalues --    1.21226   1.27907   1.29545   1.31656   1.35885
 Alpha virt. eigenvalues --    1.38104   1.39678   1.40680   1.44761   1.45347
 Alpha virt. eigenvalues --    1.47086   1.50608   1.55824   1.57291   1.58867
 Alpha virt. eigenvalues --    1.59382   1.62001   1.64540   1.64895   1.68874
 Alpha virt. eigenvalues --    1.69853   1.70497   1.70928   1.72441   1.74300
 Alpha virt. eigenvalues --    1.76242   1.76998   1.78973   1.80877   1.83311
 Alpha virt. eigenvalues --    1.85384   1.87445   1.87695   1.88143   1.89076
 Alpha virt. eigenvalues --    1.89531   1.90698   1.91309   1.92831   1.96252
 Alpha virt. eigenvalues --    1.98812   2.01502   2.03681   2.05808   2.07942
 Alpha virt. eigenvalues --    2.09665   2.11673   2.12047   2.12705   2.13135
 Alpha virt. eigenvalues --    2.14736   2.16058   2.18124   2.18477   2.19473
 Alpha virt. eigenvalues --    2.22419   2.23115   2.24187   2.24840   2.25632
 Alpha virt. eigenvalues --    2.27144   2.28944   2.30170   2.31100   2.32069
 Alpha virt. eigenvalues --    2.33307   2.34643   2.39263   2.39713   2.41549
 Alpha virt. eigenvalues --    2.42241   2.43048   2.45625   2.48164   2.51328
 Alpha virt. eigenvalues --    2.52210   2.53994   2.55653   2.57361   2.58044
 Alpha virt. eigenvalues --    2.60793   2.61952   2.64019   2.64553   2.65762
 Alpha virt. eigenvalues --    2.69636   2.71066   2.72149   2.74659   2.75572
 Alpha virt. eigenvalues --    2.75771   2.80280   2.80792   2.82564   2.83238
 Alpha virt. eigenvalues --    2.84972   2.86360   2.87471   2.88664   2.89105
 Alpha virt. eigenvalues --    2.90904   2.91568   2.91857   2.92362   2.93117
 Alpha virt. eigenvalues --    2.93410   2.95249   2.97809   3.01186   3.14936
 Alpha virt. eigenvalues --    3.19839   3.24889   3.28348   3.30903   3.31369
 Alpha virt. eigenvalues --    3.32821   3.33514   3.34958   3.37353   3.38625
 Alpha virt. eigenvalues --    3.42080   3.44579   3.45400   3.48437   3.49599
 Alpha virt. eigenvalues --    3.53060   3.55433   3.58247   3.60203   3.60737
 Alpha virt. eigenvalues --    3.92602   4.14210   4.24922   4.27688   4.33112
 Alpha virt. eigenvalues --    4.43650   4.51310   4.56730   4.62876   4.66318
 Alpha virt. eigenvalues --    4.69560   4.77815
          Condensed to atoms (all electrons):
               1          2          3          4          5          6
     1  O    8.112615   0.257910  -0.094446   0.002619  -0.000049   0.000003
     2  C    0.257910   4.381807   0.323947  -0.033638  -0.002698  -0.000706
     3  C   -0.094446   0.323947   5.141496   0.344934  -0.039267  -0.004741
     4  C    0.002619  -0.033638   0.344934   4.914504   0.367308  -0.040115
     5  C   -0.000049  -0.002698  -0.039267   0.367308   4.917300   0.372078
     6  C    0.000003  -0.000706  -0.004741  -0.040115   0.372078   4.907126
     7  C    0.000000  -0.000000   0.000132   0.003500  -0.034790   0.375543
     8  C    0.000000  -0.000000   0.000002  -0.000126   0.003349  -0.034783
     9  C    0.000000  -0.000000   0.000000   0.000001  -0.000115   0.003517
    10  C   -0.000000   0.000000   0.000000   0.000000   0.000000   0.000172
    11  C   -0.000000   0.000000  -0.000000   0.000000  -0.000000  -0.000001
    12  O   -0.080346   0.564562  -0.084470   0.005065  -0.004415   0.000022
    13  H    0.267683  -0.009416   0.011283  -0.000319   0.000012  -0.000001
    14  H    0.001786  -0.026607   0.366916  -0.027159   0.003819   0.000106
    15  H    0.003309  -0.026445   0.365293  -0.036242  -0.005603   0.003569
    16  H   -0.000048   0.004769  -0.031706   0.372953  -0.039466  -0.006995
    17  H    0.000091  -0.006147  -0.036051   0.377235  -0.027530   0.004330
    18  H   -0.000000   0.000011   0.004867  -0.032311   0.378091  -0.040779
    19  H   -0.000034   0.004576  -0.009055  -0.034885   0.383412  -0.038476
    20  H   -0.000036   0.000564   0.001672  -0.004626  -0.038887   0.381755
    21  H   -0.000000   0.000043  -0.000698  -0.002741  -0.040860   0.380710
    22  H   -0.000000  -0.000000   0.000002   0.000016  -0.004104  -0.039220
    23  H    0.000000  -0.000002  -0.000010   0.000086  -0.002732  -0.038705
    24  H   -0.000000  -0.000000  -0.000000   0.000002   0.000076  -0.004698
    25  H   -0.000000   0.000000  -0.000002   0.000002   0.000026  -0.004000
    26  H   -0.000000  -0.000000   0.000000  -0.000000   0.000001  -0.000137
    27  H    0.000000   0.000000  -0.000000   0.000000  -0.000001   0.000048
    28  H   -0.000000   0.000000   0.000000  -0.000000   0.000004  -0.000088
    29  H    0.000000   0.000000  -0.000000  -0.000000  -0.000000  -0.000026
    30  H    0.000000   0.000000  -0.000000  -0.000000   0.000000  -0.000000
    31  H   -0.000000  -0.000000  -0.000000  -0.000000   0.000000  -0.000000
    32  H    0.000000   0.000000   0.000000  -0.000000   0.000000   0.000000
               7          8          9         10         11         12
     1  O    0.000000   0.000000   0.000000  -0.000000  -0.000000  -0.080346
     2  C   -0.000000  -0.000000  -0.000000   0.000000   0.000000   0.564562
     3  C    0.000132   0.000002   0.000000   0.000000  -0.000000  -0.084470
     4  C    0.003500  -0.000126   0.000001   0.000000   0.000000   0.005065
     5  C   -0.034790   0.003349  -0.000115   0.000000  -0.000000  -0.004415
     6  C    0.375543  -0.034783   0.003517   0.000172  -0.000001   0.000022
     7  C    4.896608   0.374974  -0.037738  -0.005202   0.000155   0.000001
     8  C    0.374974   4.914288   0.363755  -0.038876   0.003886  -0.000000
     9  C   -0.037738   0.363755   4.899832   0.387456  -0.042149  -0.000000
    10  C   -0.005202  -0.038876   0.387456   4.865980   0.369861   0.000000
    11  C    0.000155   0.003886  -0.042149   0.369861   4.918094   0.000000
    12  O    0.000001  -0.000000  -0.000000   0.000000   0.000000   8.045341
    13  H   -0.000000  -0.000000   0.000000  -0.000000  -0.000000   0.011335
    14  H   -0.000001  -0.000000   0.000000   0.000000  -0.000000   0.000323
    15  H   -0.000145   0.000005  -0.000000   0.000000  -0.000000   0.002076
    16  H    0.000041  -0.000001   0.000000  -0.000000   0.000000   0.000223
    17  H   -0.000125   0.000001  -0.000000  -0.000000  -0.000000   0.004662
    18  H   -0.004471   0.000069   0.000002  -0.000000  -0.000000   0.000060
    19  H   -0.003505   0.000023   0.000002  -0.000002   0.000000   0.007459
    20  H   -0.038232  -0.003423   0.000085  -0.000018  -0.000000   0.000044
    21  H   -0.038569  -0.003976   0.000009   0.000001   0.000000  -0.000003
    22  H    0.382995  -0.040486  -0.003240  -0.000791  -0.000024   0.000000
    23  H    0.384285  -0.038801  -0.003805   0.002485  -0.000115  -0.000004
    24  H   -0.040765   0.376343  -0.032028   0.004731  -0.000164  -0.000000
    25  H   -0.039454   0.380517  -0.037533  -0.007740   0.000059  -0.000000
    26  H    0.004521  -0.031262   0.376460  -0.041541  -0.004240  -0.000000
    27  H   -0.007701  -0.037477   0.381248  -0.040551  -0.003082  -0.000000
    28  H    0.002392  -0.003842  -0.039066   0.387942  -0.037819   0.000000
    29  H   -0.000797  -0.003400  -0.040790   0.386289  -0.038564  -0.000000
    30  H   -0.000018   0.000083  -0.004664  -0.034738   0.387372   0.000000
    31  H    0.000002  -0.000159   0.004174  -0.027645   0.379186  -0.000000
    32  H    0.000002   0.000013  -0.004954  -0.034687   0.386896  -0.000000
              13         14         15         16         17         18
     1  O    0.267683   0.001786   0.003309  -0.000048   0.000091  -0.000000
     2  C   -0.009416  -0.026607  -0.026445   0.004769  -0.006147   0.000011
     3  C    0.011283   0.366916   0.365293  -0.031706  -0.036051   0.004867
     4  C   -0.000319  -0.027159  -0.036242   0.372953   0.377235  -0.032311
     5  C    0.000012   0.003819  -0.005603  -0.039466  -0.027530   0.378091
     6  C   -0.000001   0.000106   0.003569  -0.006995   0.004330  -0.040779
     7  C   -0.000000  -0.000001  -0.000145   0.000041  -0.000125  -0.004471
     8  C   -0.000000  -0.000000   0.000005  -0.000001   0.000001   0.000069
     9  C    0.000000   0.000000  -0.000000   0.000000  -0.000000   0.000002
    10  C   -0.000000   0.000000   0.000000  -0.000000  -0.000000  -0.000000
    11  C   -0.000000  -0.000000  -0.000000   0.000000  -0.000000  -0.000000
    12  O    0.011335   0.000323   0.002076   0.000223   0.004662   0.000060
    13  H    0.401377  -0.000385  -0.000414   0.000004  -0.000008  -0.000000
    14  H   -0.000385   0.579176  -0.027607  -0.003620  -0.002580  -0.000137
    15  H   -0.000414  -0.027607   0.584687  -0.002502   0.005255   0.000007
    16  H    0.000004  -0.003620  -0.002502   0.646639  -0.038702  -0.003594
    17  H   -0.000008  -0.002580   0.005255  -0.038702   0.617751  -0.004085
    18  H   -0.000000  -0.000137   0.000007  -0.003594  -0.004085   0.644212
    19  H    0.000007   0.000068  -0.000142   0.005848  -0.003304  -0.037006
    20  H   -0.000001  -0.000038   0.002208  -0.000221  -0.000053   0.006147
    21  H    0.000000  -0.000045   0.000472   0.005322   0.000012  -0.005514
    22  H   -0.000000   0.000000   0.000001   0.000003  -0.000004   0.005428
    23  H    0.000000  -0.000000   0.000010   0.000008   0.000003  -0.000662
    24  H   -0.000000  -0.000000   0.000001  -0.000002   0.000000   0.000003
    25  H    0.000000   0.000000  -0.000002   0.000000  -0.000000   0.000007
    26  H    0.000000  -0.000000   0.000000   0.000000   0.000000   0.000000
    27  H    0.000000   0.000000  -0.000000   0.000000   0.000000  -0.000002
    28  H   -0.000000  -0.000000   0.000000  -0.000000   0.000000   0.000001
    29  H    0.000000  -0.000000  -0.000000   0.000000   0.000000  -0.000000
    30  H   -0.000000  -0.000000   0.000000   0.000000   0.000000  -0.000000
    31  H   -0.000000   0.000000   0.000000  -0.000000   0.000000   0.000000
    32  H    0.000000   0.000000  -0.000000  -0.000000   0.000000  -0.000000
              19         20         21         22         23         24
     1  O   -0.000034  -0.000036  -0.000000  -0.000000   0.000000  -0.000000
     2  C    0.004576   0.000564   0.000043  -0.000000  -0.000002  -0.000000
     3  C   -0.009055   0.001672  -0.000698   0.000002  -0.000010  -0.000000
     4  C   -0.034885  -0.004626  -0.002741   0.000016   0.000086   0.000002
     5  C    0.383412  -0.038887  -0.040860  -0.004104  -0.002732   0.000076
     6  C   -0.038476   0.381755   0.380710  -0.039220  -0.038705  -0.004698
     7  C   -0.003505  -0.038232  -0.038569   0.382995   0.384285  -0.040765
     8  C    0.000023  -0.003423  -0.003976  -0.040486  -0.038801   0.376343
     9  C    0.000002   0.000085   0.000009  -0.003240  -0.003805  -0.032028
    10  C   -0.000002  -0.000018   0.000001  -0.000791   0.002485   0.004731
    11  C    0.000000  -0.000000   0.000000  -0.000024  -0.000115  -0.000164
    12  O    0.007459   0.000044  -0.000003   0.000000  -0.000004  -0.000000
    13  H    0.000007  -0.000001   0.000000  -0.000000   0.000000  -0.000000
    14  H    0.000068  -0.000038  -0.000045   0.000000  -0.000000  -0.000000
    15  H   -0.000142   0.002208   0.000472   0.000001   0.000010   0.000001
    16  H    0.005848  -0.000221   0.005322   0.000003   0.000008  -0.000002
    17  H   -0.003304  -0.000053   0.000012  -0.000004   0.000003   0.000000
    18  H   -0.037006   0.006147  -0.005514   0.005428  -0.000662   0.000003
    19  H    0.605652  -0.005847   0.005788  -0.000512   0.004731   0.000006
    20  H   -0.005847   0.650085  -0.043592   0.006131  -0.006246  -0.000606
    21  H    0.005788  -0.043592   0.652370  -0.006045   0.006107   0.005436
    22  H   -0.000512   0.006131  -0.006045   0.645770  -0.041816  -0.005397
    23  H    0.004731  -0.006246   0.006107  -0.041816   0.636539   0.006121
    24  H    0.000006  -0.000606   0.005436  -0.005397   0.006121   0.654398
    25  H    0.000003   0.004954  -0.000507   0.006122  -0.006171  -0.041020
    26  H   -0.000000   0.000004  -0.000006   0.000044  -0.000038  -0.004710
    27  H    0.000000   0.000008   0.000004   0.005605  -0.000189  -0.003107
    28  H   -0.000004   0.000012  -0.000001   0.000470   0.002118  -0.000042
    29  H    0.000000   0.000000   0.000001   0.000079   0.000475   0.000043
    30  H    0.000000  -0.000000   0.000000   0.000000   0.000010   0.000003
    31  H   -0.000000   0.000000   0.000000  -0.000000   0.000007   0.000003
    32  H   -0.000000   0.000000  -0.000000   0.000000  -0.000000  -0.000006
              25         26         27         28         29         30
     1  O   -0.000000  -0.000000   0.000000  -0.000000   0.000000   0.000000
     2  C    0.000000  -0.000000   0.000000   0.000000   0.000000   0.000000
     3  C   -0.000002   0.000000  -0.000000   0.000000  -0.000000  -0.000000
     4  C    0.000002  -0.000000   0.000000  -0.000000  -0.000000  -0.000000
     5  C    0.000026   0.000001  -0.000001   0.000004  -0.000000   0.000000
     6  C   -0.004000  -0.000137   0.000048  -0.000088  -0.000026  -0.000000
     7  C   -0.039454   0.004521  -0.007701   0.002392  -0.000797  -0.000018
     8  C    0.380517  -0.031262  -0.037477  -0.003842  -0.003400   0.000083
     9  C   -0.037533   0.376460   0.381248  -0.039066  -0.040790  -0.004664
    10  C   -0.007740  -0.041541  -0.040551   0.387942   0.386289  -0.034738
    11  C    0.000059  -0.004240  -0.003082  -0.037819  -0.038564   0.387372
    12  O   -0.000000  -0.000000  -0.000000   0.000000  -0.000000   0.000000
    13  H    0.000000   0.000000   0.000000  -0.000000   0.000000  -0.000000
    14  H    0.000000  -0.000000   0.000000  -0.000000  -0.000000  -0.000000
    15  H   -0.000002   0.000000  -0.000000   0.000000  -0.000000   0.000000
    16  H    0.000000   0.000000   0.000000  -0.000000   0.000000   0.000000
    17  H   -0.000000   0.000000   0.000000   0.000000   0.000000   0.000000
    18  H    0.000007   0.000000  -0.000002   0.000001  -0.000000  -0.000000
    19  H    0.000003  -0.000000   0.000000  -0.000004   0.000000   0.000000
    20  H    0.004954   0.000004   0.000008   0.000012   0.000000  -0.000000
    21  H   -0.000507  -0.000006   0.000004  -0.000001   0.000001   0.000000
    22  H    0.006122   0.000044   0.005605   0.000470   0.000079   0.000000
    23  H   -0.006171  -0.000038  -0.000189   0.002118   0.000475   0.000010
    24  H   -0.041020  -0.004710  -0.003107  -0.000042   0.000043   0.000003
    25  H    0.648497  -0.003059   0.006104  -0.000196   0.005653   0.000009
    26  H   -0.003059   0.654035  -0.041089   0.006156  -0.005448  -0.000487
    27  H    0.006104  -0.041089   0.648159  -0.006249   0.006151   0.004611
    28  H   -0.000196   0.006156  -0.006249   0.634979  -0.041492  -0.005056
    29  H    0.005653  -0.005448   0.006151  -0.041492   0.643400   0.005508
    30  H    0.000009  -0.000487   0.004611  -0.005056   0.005508   0.611475
    31  H   -0.000001   0.000011  -0.000046  -0.003049  -0.003112  -0.032561
    32  H    0.000001   0.005233  -0.000455   0.005416  -0.005040  -0.033780
              31         32
     1  O   -0.000000   0.000000
     2  C   -0.000000   0.000000
     3  C   -0.000000   0.000000
     4  C   -0.000000  -0.000000
     5  C    0.000000   0.000000
     6  C   -0.000000   0.000000
     7  C    0.000002   0.000002
     8  C   -0.000159   0.000013
     9  C    0.004174  -0.004954
    10  C   -0.027645  -0.034687
    11  C    0.379186   0.386896
    12  O   -0.000000  -0.000000
    13  H   -0.000000   0.000000
    14  H    0.000000   0.000000
    15  H    0.000000  -0.000000
    16  H   -0.000000  -0.000000
    17  H    0.000000   0.000000
    18  H    0.000000  -0.000000
    19  H   -0.000000  -0.000000
    20  H    0.000000   0.000000
    21  H    0.000000  -0.000000
    22  H   -0.000000   0.000000
    23  H    0.000007  -0.000000
    24  H    0.000003  -0.000006
    25  H   -0.000001   0.000001
    26  H    0.000011   0.005233
    27  H   -0.000046  -0.000455
    28  H   -0.003049   0.005416
    29  H   -0.003112  -0.005040
    30  H   -0.032561  -0.033780
    31  H    0.617336  -0.032718
    32  H   -0.032718   0.612513
 Mulliken charges:
               1
     1  O   -0.471060
     2  C    0.567470
     3  C   -0.260101
     4  C   -0.176063
     5  C   -0.184958
     6  C   -0.175504
     7  C   -0.173639
     8  C   -0.180695
     9  C   -0.170459
    10  C   -0.173127
    11  C   -0.319350
    12  O   -0.471937
    13  H    0.318841
    14  H    0.135986
    15  H    0.132207
    16  H    0.091044
    17  H    0.109247
    18  H    0.089656
    19  H    0.115197
    20  H    0.088157
    21  H    0.086281
    22  H    0.088969
    23  H    0.096311
    24  H    0.085376
    25  H    0.087732
    26  H    0.085554
    27  H    0.088011
    28  H    0.097414
    29  H    0.091070
    30  H    0.102234
    31  H    0.098573
    32  H    0.101565
 Sum of Mulliken charges =  -0.00000
 Mulliken charges with hydrogens summed into heavy atoms:
               1
     1  O   -0.152218
     2  C    0.567470
     3  C    0.008092
     4  C    0.024228
     5  C    0.019895
     6  C   -0.001067
     7  C    0.011641
     8  C   -0.007588
     9  C    0.003105
    10  C    0.015356
    11  C   -0.016978
    12  O   -0.471937
 Electronic spatial extent (au):  <R**2>=           4645.1040
 Charge=             -0.0000 electrons
 Dipole moment (field-independent basis, Debye):
    X=              0.0962    Y=             -0.2859    Z=             -1.3331  Tot=              1.3668
 Quadrupole moment (field-independent basis, Debye-Ang):
   XX=            -75.2957   YY=            -71.5355   ZZ=            -80.3989
   XY=              0.3889   XZ=             -4.4845   YZ=             -1.8794
 Traceless Quadrupole moment (field-independent basis, Debye-Ang):
   XX=              0.4476   YY=              4.2079   ZZ=             -4.6556
   XY=              0.3889   XZ=             -4.4845   YZ=             -1.8794
 Octapole moment (field-independent basis, Debye-Ang**2):
  XXX=             58.4651  YYY=             28.6816  ZZZ=             -0.9476  XYY=             31.1980
  XXY=              9.5625  XXZ=            -15.5302  XZZ=             -5.5641  YZZ=             -2.5374
  YYZ=             -3.1627  XYZ=             -4.7585
 Hexadecapole moment (field-independent basis, Debye-Ang**3):
 XXXX=          -5067.5306 YYYY=           -596.0894 ZZZZ=           -351.1180 XXXY=            105.9175
 XXXZ=            -35.1263 YYYX=            121.9879 YYYZ=            -12.6443 ZZZX=             -3.8252
 ZZZY=             -4.7589 XXYY=           -869.7733 XXZZ=           -963.5762 YYZZ=           -172.6231
 XXYZ=            -22.7792 YYXZ=            -17.4777 ZZXY=             -8.5277
 N-N= 6.955069739582D+02 E-N=-2.654367101042D+03  KE= 5.384709573819D+02
 Calling FoFJK, ICntrl=      2127 FMM=F ISym2X=0 I1Cent= 0 IOpClX= 0 NMat=1 NMatS=1 NMatT=0.
 ***** Axes restored to original set *****
 -------------------------------------------------------------------
 Center     Atomic                   Forces (Hartrees/Bohr)
 Number     Number              X              Y              Z
 -------------------------------------------------------------------
      1        8          -0.006054043   -0.008298688    0.003242511
      2        6          -0.024215946    0.003169237   -0.000112269
      3        6          -0.008968835    0.004773687   -0.004757978
      4        6           0.004533666    0.006475263   -0.006325789
      5        6           0.006140983   -0.004707935    0.002167551
      6        6          -0.005512848    0.008620800   -0.002736518
      7        6           0.007413370   -0.007073137    0.002334516
      8        6          -0.007813689    0.005103057   -0.002222731
      9        6           0.008441583    0.005121636    0.001370419
     10        6          -0.007095380   -0.005711945   -0.001357292
     11        6           0.003027055    0.002184319    0.003547884
     12        8           0.010833461   -0.013959412    0.003831155
     13        1           0.009538591    0.012291271   -0.005393075
     14        1           0.002419121   -0.001180398    0.004802863
     15        1           0.003397168   -0.001999694   -0.001266469
     16        1           0.002179357   -0.004692899    0.001516343
     17        1           0.001755108    0.003262079   -0.000577764
     18        1          -0.004015080   -0.000857354    0.001280619
     19        1           0.003001269    0.002190806   -0.000467362
     20        1           0.004466996   -0.000716055   -0.000907744
     21        1          -0.001584671   -0.003872511    0.002491083
     22        1          -0.004465627   -0.000181262    0.000625140
     23        1           0.001235597    0.003219561   -0.001843943
     24        1          -0.001431587   -0.002794288    0.003186529
     25        1           0.004526128    0.000943427   -0.001079753
     26        1           0.001221757   -0.003567591   -0.002428278
     27        1          -0.004429730    0.001579601    0.000673476
     28        1          -0.000809669    0.003164823    0.001935850
     29        1           0.004283752   -0.000964140    0.000589380
     30        1          -0.003132053   -0.000254599    0.000642793
     31        1           0.000613559    0.001903597   -0.002166966
     32        1           0.000500636   -0.003171254   -0.000594181
 -------------------------------------------------------------------
 Cartesian Forces:  Max     0.024215946 RMS     0.005084258

 GradGradGradGradGradGradGradGradGradGradGradGradGradGradGradGradGradGrad
 Berny optimization.
 FormGI is forming the generalized inverse of G from B-inverse, IUseBI=4.
 Internal  Forces:  Max     0.017708417 RMS     0.003072008
 Search for a local minimum.
 Step number   1 out of a maximum of  179
 All quantities printed in internal units (Hartrees-Bohrs-Radians)
 Mixed Optimization -- RFO/linear search
 Second derivative matrix not updated -- first step.
 ITU=  0
     Eigenvalues ---    0.00230   0.00230   0.00230   0.00230   0.00230
     Eigenvalues ---    0.00233   0.00253   0.00301   0.00382   0.00859
     Eigenvalues ---    0.02357   0.03097   0.03229   0.03248   0.03248
     Eigenvalues ---    0.03411   0.03421   0.03440   0.03615   0.04639
     Eigenvalues ---    0.04678   0.04687   0.04688   0.04732   0.04737
     Eigenvalues ---    0.04749   0.05183   0.05408   0.05466   0.08288
     Eigenvalues ---    0.08302   0.08303   0.08562   0.08563   0.08580
     Eigenvalues ---    0.08837   0.09843   0.12184   0.12189   0.12195
     Eigenvalues ---    0.12386   0.12387   0.12400   0.12576   0.13142
     Eigenvalues ---    0.16000   0.16000   0.16000   0.16000   0.21890
     Eigenvalues ---    0.21893   0.21895   0.21897   0.21909   0.21909
     Eigenvalues ---    0.21916   0.21984   0.24996   0.25000   0.27517
     Eigenvalues ---    0.28087   0.28378   0.28438   0.28459   0.28496
     Eigenvalues ---    0.28625   0.28952   0.29515   0.34509   0.34635
     Eigenvalues ---    0.34636   0.34639   0.34641   0.34642   0.34642
     Eigenvalues ---    0.34645   0.34645   0.34649   0.34654   0.34701
     Eigenvalues ---    0.34716   0.34721   0.34729   0.34729   0.34750
     Eigenvalues ---    0.34885   0.34909   0.55076   0.55959   0.94053
 RFO step:  Lambda=-5.12639434D-03 EMin= 2.30000000D-03
 Linear search not attempted -- first point.
 Iteration  1 RMS(Cart)=  0.06250734 RMS(Int)=  0.00064545
 Iteration  2 RMS(Cart)=  0.00121571 RMS(Int)=  0.00010294
 Iteration  3 RMS(Cart)=  0.00000113 RMS(Int)=  0.00010293
 Iteration  4 RMS(Cart)=  0.00000000 RMS(Int)=  0.00010293
 Variable       Old X    -DE/DX   Delta X   Delta X   Delta X     New X
                                 (Linear)    (Quad)   (Total)
    R1        2.55065   0.00291   0.00000   0.00523   0.00523   2.55588
    R2        1.80990   0.01597   0.00000   0.02828   0.02828   1.83818
    R3        2.88940  -0.01074   0.00000  -0.03577  -0.03577   2.85364
    R4        2.31119  -0.01771   0.00000  -0.01873  -0.01873   2.29247
    R5        2.93206  -0.01286   0.00000  -0.04588  -0.04588   2.88618
    R6        2.05862   0.00530   0.00000   0.01497   0.01497   2.07358
    R7        2.05823   0.00343   0.00000   0.00969   0.00969   2.06791
    R8        2.91949  -0.00637   0.00000  -0.02226  -0.02226   2.89724
    R9        2.06265   0.00353   0.00000   0.01005   0.01005   2.07270
   R10        2.06480   0.00182   0.00000   0.00519   0.00519   2.06999
   R11        2.91146  -0.00411   0.00000  -0.01419  -0.01419   2.89727
   R12        2.06254   0.00396   0.00000   0.01126   0.01126   2.07381
   R13        2.06262   0.00294   0.00000   0.00837   0.00837   2.07099
   R14        2.90793  -0.00377   0.00000  -0.01295  -0.01295   2.89498
   R15        2.06139   0.00458   0.00000   0.01301   0.01301   2.07440
   R16        2.06240   0.00486   0.00000   0.01383   0.01383   2.07623
   R17        2.91192  -0.00447   0.00000  -0.01545  -0.01545   2.89647
   R18        2.06272   0.00448   0.00000   0.01274   0.01274   2.07546
   R19        2.06163   0.00390   0.00000   0.01108   0.01108   2.07271
   R20        2.91320  -0.00319   0.00000  -0.01105  -0.01105   2.90215
   R21        2.06255   0.00436   0.00000   0.01239   0.01239   2.07494
   R22        2.06259   0.00456   0.00000   0.01298   0.01298   2.07557
   R23        2.91068  -0.00443   0.00000  -0.01526  -0.01526   2.89542
   R24        2.06261   0.00435   0.00000   0.01239   0.01239   2.07500
   R25        2.06269   0.00456   0.00000   0.01296   0.01296   2.07566
   R26        2.90104  -0.00181   0.00000  -0.00613  -0.00613   2.89491
   R27        2.06130   0.00371   0.00000   0.01053   0.01053   2.07184
   R28        2.06248   0.00422   0.00000   0.01199   0.01199   2.07448
   R29        2.06117   0.00315   0.00000   0.00894   0.00894   2.07011
   R30        2.06083   0.00293   0.00000   0.00830   0.00830   2.06913
   R31        2.06117   0.00319   0.00000   0.00904   0.00904   2.07021
    A1        1.81517   0.00721   0.00000   0.04365   0.04365   1.85882
    A2        1.95025   0.00077   0.00000   0.00303   0.00303   1.95327
    A3        2.14786  -0.00458   0.00000  -0.01792  -0.01792   2.12994
    A4        2.18483   0.00381   0.00000   0.01495   0.01495   2.19978
    A5        2.01924  -0.01017   0.00000  -0.04764  -0.04755   1.97169
    A6        1.85031   0.00327   0.00000   0.01488   0.01523   1.86554
    A7        1.89973   0.00158   0.00000  -0.00712  -0.00703   1.89269
    A8        1.90332   0.00316   0.00000   0.02153   0.02149   1.92481
    A9        1.92940   0.00471   0.00000   0.02348   0.02291   1.95232
   A10        1.85324  -0.00208   0.00000  -0.00204  -0.00241   1.85083
   A11        2.01990  -0.00353   0.00000  -0.02357  -0.02373   1.99617
   A12        1.90006  -0.00121   0.00000  -0.01890  -0.01879   1.88127
   A13        1.90609   0.00028   0.00000  -0.00791  -0.00793   1.89817
   A14        1.89660   0.00263   0.00000   0.01750   0.01707   1.91367
   A15        1.89955   0.00114   0.00000   0.00558   0.00522   1.90478
   A16        1.83242   0.00114   0.00000   0.03309   0.03287   1.86529
   A17        1.99400   0.00052   0.00000  -0.00149  -0.00152   1.99248
   A18        1.89064  -0.00031   0.00000  -0.00189  -0.00188   1.88877
   A19        1.91818  -0.00125   0.00000  -0.01406  -0.01408   1.90410
   A20        1.90193  -0.00021   0.00000   0.00149   0.00148   1.90341
   A21        1.91420   0.00023   0.00000  -0.00010  -0.00018   1.91402
   A22        1.83817   0.00107   0.00000   0.01785   0.01784   1.85602
   A23        1.96640   0.00039   0.00000   0.00178   0.00178   1.96818
   A24        1.91514   0.00026   0.00000   0.00346   0.00346   1.91860
   A25        1.91090  -0.00009   0.00000   0.00025   0.00025   1.91115
   A26        1.90158  -0.00048   0.00000  -0.00386  -0.00386   1.89772
   A27        1.91074  -0.00018   0.00000  -0.00191  -0.00191   1.90884
   A28        1.85577   0.00008   0.00000   0.00016   0.00015   1.85592
   A29        1.96743   0.00093   0.00000   0.00390   0.00390   1.97133
   A30        1.91065  -0.00026   0.00000  -0.00253  -0.00252   1.90813
   A31        1.90249  -0.00047   0.00000  -0.00160  -0.00161   1.90088
   A32        1.90983  -0.00053   0.00000  -0.00437  -0.00436   1.90547
   A33        1.91640  -0.00002   0.00000   0.00223   0.00223   1.91862
   A34        1.85356   0.00031   0.00000   0.00227   0.00228   1.85583
   A35        1.99363   0.00026   0.00000  -0.00067  -0.00070   1.99293
   A36        1.90090  -0.00054   0.00000  -0.00144  -0.00145   1.89945
   A37        1.91544  -0.00055   0.00000  -0.00997  -0.01001   1.90542
   A38        1.89192   0.00062   0.00000   0.01000   0.01001   1.90193
   A39        1.91109  -0.00027   0.00000  -0.00544  -0.00550   1.90559
   A40        1.84480   0.00052   0.00000   0.00859   0.00860   1.85340
   A41        1.99363   0.00056   0.00000   0.00072   0.00069   1.99432
   A42        1.89233   0.00053   0.00000   0.00960   0.00960   1.90193
   A43        1.91151  -0.00028   0.00000  -0.00490  -0.00494   1.90657
   A44        1.90058  -0.00066   0.00000  -0.00234  -0.00236   1.89823
   A45        1.91518  -0.00071   0.00000  -0.01078  -0.01081   1.90437
   A46        1.84453   0.00058   0.00000   0.00866   0.00866   1.85319
   A47        1.96569   0.00039   0.00000   0.00143   0.00144   1.96714
   A48        1.92103  -0.00047   0.00000  -0.00428  -0.00429   1.91674
   A49        1.91452  -0.00107   0.00000  -0.01147  -0.01147   1.90304
   A50        1.89954   0.00031   0.00000   0.00616   0.00615   1.90569
   A51        1.90630   0.00062   0.00000   0.00611   0.00610   1.91240
   A52        1.85328   0.00022   0.00000   0.00229   0.00222   1.85550
   A53        1.94311  -0.00059   0.00000  -0.00490  -0.00492   1.93819
   A54        1.93693   0.00087   0.00000   0.00772   0.00772   1.94466
   A55        1.94402  -0.00067   0.00000  -0.00515  -0.00517   1.93885
   A56        1.87744   0.00009   0.00000   0.00266   0.00266   1.88010
   A57        1.88206   0.00013   0.00000  -0.00374  -0.00379   1.87827
   A58        1.87728   0.00019   0.00000   0.00365   0.00366   1.88093
    D1       -3.13328   0.00043   0.00000   0.01606   0.01608  -3.11720
    D2       -0.01440   0.00057   0.00000   0.01887   0.01885   0.00446
    D3       -2.95700   0.00003   0.00000   0.00643   0.00621  -2.95079
    D4        1.21441  -0.00004   0.00000  -0.00218  -0.00219   1.21222
    D5       -0.77265  -0.00001   0.00000  -0.00396  -0.00370  -0.77635
    D6        0.20788   0.00003   0.00000   0.00406   0.00383   0.21171
    D7       -1.90389  -0.00004   0.00000  -0.00455  -0.00458  -1.90847
    D8        2.39222  -0.00002   0.00000  -0.00633  -0.00608   2.38614
    D9        1.14231  -0.00089   0.00000  -0.02099  -0.02106   1.12126
   D10       -2.99945  -0.00090   0.00000  -0.02970  -0.02957  -3.02902
   D11       -1.00783  -0.00005   0.00000  -0.00481  -0.00492  -1.01275
   D12       -3.05792  -0.00108   0.00000  -0.01741  -0.01767  -3.07558
   D13       -0.91650  -0.00109   0.00000  -0.02613  -0.02618  -0.94267
   D14        1.07513  -0.00024   0.00000  -0.00124  -0.00153   1.07359
   D15       -1.02670   0.00096   0.00000   0.00624   0.00640  -1.02030
   D16        1.11473   0.00095   0.00000  -0.00248  -0.00211   1.11261
   D17        3.10635   0.00180   0.00000   0.02241   0.02253   3.12888
   D18        1.09656  -0.00034   0.00000  -0.01041  -0.01046   1.08610
   D19       -3.06333  -0.00048   0.00000  -0.01089  -0.01094  -3.07427
   D20       -1.06357  -0.00005   0.00000   0.00183   0.00174  -1.06183
   D21       -1.04668   0.00169   0.00000   0.01746   0.01766  -1.02903
   D22        1.07661   0.00155   0.00000   0.01699   0.01717   1.09378
   D23        3.07637   0.00199   0.00000   0.02971   0.02986   3.10622
   D24       -3.03305  -0.00161   0.00000  -0.03354  -0.03363  -3.06668
   D25       -0.90976  -0.00176   0.00000  -0.03401  -0.03412  -0.94387
   D26        1.09000  -0.00132   0.00000  -0.02130  -0.02143   1.06857
   D27        3.07031   0.00037   0.00000   0.00985   0.00985   3.08016
   D28       -1.09090   0.00020   0.00000   0.00859   0.00859  -1.08231
   D29        0.93964   0.00040   0.00000   0.01090   0.01090   0.95054
   D30        0.95324   0.00057   0.00000   0.01220   0.01221   0.96545
   D31        3.07522   0.00040   0.00000   0.01094   0.01095   3.08616
   D32       -1.17743   0.00060   0.00000   0.01325   0.01326  -1.16417
   D33       -1.05060  -0.00072   0.00000  -0.00986  -0.00987  -1.06047
   D34        1.07137  -0.00088   0.00000  -0.01113  -0.01114   1.06024
   D35        3.10191  -0.00068   0.00000  -0.00881  -0.00882   3.09309
   D36        3.13569   0.00022   0.00000   0.00047   0.00047   3.13616
   D37       -1.01747  -0.00001   0.00000  -0.00427  -0.00427  -1.02175
   D38        1.00311  -0.00005   0.00000  -0.00384  -0.00384   0.99927
   D39        1.00604  -0.00004   0.00000  -0.00239  -0.00238   1.00366
   D40        3.13606  -0.00026   0.00000  -0.00713  -0.00713   3.12893
   D41       -1.12654  -0.00030   0.00000  -0.00670  -0.00670  -1.13324
   D42       -1.01673   0.00024   0.00000   0.00064   0.00064  -1.01609
   D43        1.11329   0.00001   0.00000  -0.00410  -0.00411   1.10918
   D44        3.13387  -0.00003   0.00000  -0.00367  -0.00368   3.13019
   D45        3.07554   0.00038   0.00000   0.01043   0.01042   3.08596
   D46        0.95784  -0.00019   0.00000  -0.00094  -0.00094   0.95690
   D47       -1.05402  -0.00021   0.00000  -0.00494  -0.00493  -1.05895
   D48        0.94506   0.00046   0.00000   0.01414   0.01413   0.95919
   D49       -1.17264  -0.00012   0.00000   0.00277   0.00277  -1.16987
   D50        3.09869  -0.00013   0.00000  -0.00123  -0.00122   3.09746
   D51       -1.08291   0.00040   0.00000   0.01264   0.01263  -1.07028
   D52        3.08258  -0.00018   0.00000   0.00126   0.00127   3.08384
   D53        1.07072  -0.00019   0.00000  -0.00274  -0.00272   1.06800
   D54        1.15891  -0.00052   0.00000  -0.02515  -0.02516   1.13376
   D55       -3.00172  -0.00060   0.00000  -0.02064  -0.02063  -3.02235
   D56       -0.99704   0.00022   0.00000  -0.00772  -0.00773  -1.00477
   D57       -3.00162  -0.00059   0.00000  -0.02011  -0.02011  -3.02173
   D58       -0.87907  -0.00067   0.00000  -0.01559  -0.01558  -0.89465
   D59        1.12562   0.00016   0.00000  -0.00268  -0.00268   1.12294
   D60       -0.99706   0.00022   0.00000  -0.00736  -0.00737  -1.00443
   D61        1.12549   0.00014   0.00000  -0.00284  -0.00284   1.12265
   D62        3.13017   0.00096   0.00000   0.01007   0.01006   3.14023
   D63        3.07434   0.00039   0.00000   0.01095   0.01094   3.08528
   D64       -1.08576   0.00072   0.00000   0.01677   0.01675  -1.06902
   D65        0.94726   0.00009   0.00000   0.01034   0.01033   0.95759
   D66        0.95634  -0.00019   0.00000  -0.00018  -0.00017   0.95617
   D67        3.07942   0.00014   0.00000   0.00565   0.00564   3.08506
   D68       -1.17074  -0.00049   0.00000  -0.00079  -0.00078  -1.17152
   D69       -1.05487  -0.00013   0.00000  -0.00333  -0.00331  -1.05818
   D70        1.06821   0.00020   0.00000   0.00250   0.00249   1.07070
   D71        3.10123  -0.00043   0.00000  -0.00394  -0.00392   3.09731
   D72        1.04875  -0.00015   0.00000  -0.00249  -0.00247   1.04628
   D73        3.13946   0.00016   0.00000   0.00277   0.00277  -3.14095
   D74       -1.05261   0.00054   0.00000   0.00913   0.00912  -1.04349
   D75       -1.08648  -0.00004   0.00000  -0.00237  -0.00235  -1.08883
   D76        1.00423   0.00027   0.00000   0.00289   0.00289   1.00713
   D77        3.09534   0.00065   0.00000   0.00925   0.00924   3.10459
   D78       -3.10270  -0.00081   0.00000  -0.01181  -0.01181  -3.11451
   D79       -1.01199  -0.00050   0.00000  -0.00655  -0.00656  -1.01855
   D80        1.07912  -0.00012   0.00000  -0.00018  -0.00021   1.07891
         Item               Value     Threshold  Converged?
 Maximum Force            0.017708     0.000450     NO 
 RMS     Force            0.003072     0.000300     NO 
 Maximum Displacement     0.354504     0.001800     NO 
 RMS     Displacement     0.062692     0.001200     NO 
 Predicted change in Energy=-2.646712D-03
 GradGradGradGradGradGradGradGradGradGradGradGradGradGradGradGradGradGrad

                          Input orientation:                          
 ---------------------------------------------------------------------
 Center     Atomic      Atomic             Coordinates (Angstroms)
 Number     Number       Type             X           Y           Z
 ---------------------------------------------------------------------
      1          8           0        6.273393   -0.641194   -0.166910
      2          6           0        4.939776   -0.453807   -0.041846
      3          6           0        4.261513   -1.640954    0.599232
      4          6           0        2.738055   -1.575058    0.513358
      5          6           0        2.181816   -1.631485   -0.914216
      6          6           0        2.503364   -2.930681   -1.662084
      7          6           0        1.861136   -2.989382   -3.051683
      8          6           0        2.186204   -4.283400   -3.806106
      9          6           0        1.494058   -4.406522   -5.171503
     10          6           0        1.939708   -3.361796   -6.199873
     11          6           0        1.286785   -3.565279   -7.570660
     12          8           0        4.398098    0.572238   -0.396078
     13          1           0        6.630622    0.171810   -0.563896
     14          1           0        4.582763   -1.663500    1.648204
     15          1           0        4.656260   -2.553589    0.142341
     16          1           0        2.332997   -2.408501    1.100150
     17          1           0        2.397709   -0.652041    0.995117
     18          1           0        1.092617   -1.507579   -0.863187
     19          1           0        2.563328   -0.775125   -1.481785
     20          1           0        3.590130   -3.040485   -1.771090
     21          1           0        2.164064   -3.789873   -1.067278
     22          1           0        0.771519   -2.893407   -2.952889
     23          1           0        2.195488   -2.122621   -3.634754
     24          1           0        1.898623   -5.139516   -3.181612
     25          1           0        3.273302   -4.356806   -3.944645
     26          1           0        1.685267   -5.407786   -5.579674
     27          1           0        0.406701   -4.334628   -5.033855
     28          1           0        1.703453   -2.355645   -5.833994
     29          1           0        3.031823   -3.403889   -6.302836
     30          1           0        0.195528   -3.500359   -7.500241
     31          1           0        1.620042   -2.808705   -8.288590
     32          1           0        1.534457   -4.549534   -7.983018
 ---------------------------------------------------------------------
                    Distance matrix (angstroms):
                    1          2          3          4          5
     1  O    0.000000
     2  C    1.352512   0.000000
     3  C    2.373637   1.510079   0.000000
     4  C    3.719339   2.532396   1.527299   0.000000
     5  C    4.275528   3.123186   2.572111   1.533151   0.000000
     6  C    4.657297   3.833559   3.141343   2.573974   1.533170
     7  C    5.770954   4.996627   4.572663   3.934312   2.552544
     8  C    6.573776   6.034699   5.540436   5.128101   3.923735
     9  C    7.878178   7.335551   6.971984   6.471658   5.128190
[...]
 Alpha virt. eigenvalues --    4.09176   4.11112   4.13250   4.15714   4.21154
 Alpha virt. eigenvalues --    4.22032   4.28081   4.28750   4.30602   4.31623
 Alpha virt. eigenvalues --    4.34992   4.35762   4.40423   4.43570   4.46159
 Alpha virt. eigenvalues --    4.47933   4.50369   4.52451   4.53073   4.55090
 Alpha virt. eigenvalues --    4.58064   4.58390   4.59241   4.60668   4.62185
 Alpha virt. eigenvalues --    4.64981   4.66953   4.67764   4.71516   4.72586
 Alpha virt. eigenvalues --    4.76827   4.80091   4.82697   4.84572   4.88756
 Alpha virt. eigenvalues --    4.99098   5.10304   5.16802   5.18416   5.21445
 Alpha virt. eigenvalues --    5.22243   5.38558   5.40830   5.50571   5.59310
 Alpha virt. eigenvalues --    5.74884   5.84567   5.86571   6.15005   6.19187
 Alpha virt. eigenvalues --    6.33255   6.33592   6.44388   6.48829   6.64193
 Alpha virt. eigenvalues --    6.68790   6.73862   6.82087   6.88338   7.07475
 Alpha virt. eigenvalues --    7.08807   7.26541  22.41015  22.46106  22.51258
 Alpha virt. eigenvalues --   22.56228  22.59411  22.60619  22.61090  22.62966
 Alpha virt. eigenvalues --   22.64087  23.27462  43.94526  44.02332
          Condensed to atoms (all electrons):
               1          2          3          4          5          6
     1  O    7.942483   0.373177  -0.125002   0.010416  -0.000622  -0.000149
     2  C    0.373177   4.492238   0.234786  -0.035771   0.020290  -0.010980
     3  C   -0.125002   0.234786   5.472918   0.169083  -0.056913   0.032555
     4  C    0.010416  -0.035771   0.169083   5.171975   0.239933  -0.050594
     5  C   -0.000622   0.020290  -0.056913   0.239933   5.315151   0.157378
     6  C   -0.000149  -0.010980   0.032555  -0.050594   0.157378   5.322012
     7  C   -0.000023   0.000674  -0.001411   0.009651  -0.036356   0.217698
     8  C    0.000003  -0.000028   0.000155  -0.000852   0.009390  -0.029548
     9  C    0.000000   0.000001   0.000002   0.000017  -0.000797   0.006815
    10  C   -0.000000  -0.000001   0.000004   0.000004  -0.000044   0.000598
    11  C   -0.000000  -0.000000   0.000000   0.000000  -0.000003   0.000004
    12  O   -0.088859   0.650554  -0.110136   0.025572  -0.010748  -0.000204
    13  H    0.288871  -0.028505   0.019548  -0.001780   0.000338  -0.000057
    14  H    0.003186  -0.016605   0.397165  -0.033612   0.007402  -0.000303
    15  H    0.005261  -0.036292   0.415640  -0.037395  -0.008776   0.000710
    16  H   -0.000100   0.009679  -0.063579   0.436796  -0.033759  -0.009733
    17  H    0.000174  -0.009051  -0.024195   0.438453  -0.059459   0.011621
    18  H   -0.000006  -0.000041   0.008885  -0.044173   0.425133  -0.043762
    19  H   -0.000167   0.000993  -0.011221  -0.033343   0.447455  -0.065888
    20  H    0.000638  -0.000874   0.006821  -0.010950  -0.042391   0.421436
    21  H    0.000008   0.000355  -0.004220   0.007327  -0.045950   0.424824
    22  H   -0.000000   0.000020  -0.000136  -0.000095  -0.005854  -0.048764
    23  H    0.000006  -0.000112   0.000203   0.000196  -0.001860  -0.040726
    24  H    0.000000  -0.000004   0.000047  -0.000066  -0.000108  -0.003692
    25  H   -0.000002   0.000014  -0.000089   0.000058  -0.000465  -0.003141
    26  H   -0.000000   0.000000   0.000000  -0.000000   0.000028  -0.000484
    27  H    0.000000   0.000000  -0.000001   0.000000   0.000004  -0.000220
    28  H   -0.000000   0.000001  -0.000001   0.000006   0.000008   0.000907
    29  H    0.000000   0.000000  -0.000000  -0.000001   0.000013  -0.000161
    30  H   -0.000000  -0.000000   0.000000  -0.000000   0.000001  -0.000010
    31  H   -0.000000  -0.000000   0.000000  -0.000000   0.000000  -0.000006
    32  H    0.000000   0.000000  -0.000000   0.000000  -0.000000   0.000006
               7          8          9         10         11         12
     1  O   -0.000023   0.000003   0.000000  -0.000000  -0.000000  -0.088859
     2  C    0.000674  -0.000028   0.000001  -0.000001  -0.000000   0.650554
     3  C   -0.001411   0.000155   0.000002   0.000004   0.000000  -0.110136
     4  C    0.009651  -0.000852   0.000017   0.000004   0.000000   0.025572
     5  C   -0.036356   0.009390  -0.000797  -0.000044  -0.000003  -0.010748
     6  C    0.217698  -0.029548   0.006815   0.000598   0.000004  -0.000204
     7  C    5.293242   0.188883  -0.045019   0.015017   0.000056   0.000259
     8  C    0.188883   5.205119   0.249962  -0.052048   0.009790  -0.000006
     9  C   -0.045019   0.249962   5.209337   0.232431  -0.050210  -0.000000
    10  C    0.015017  -0.052048   0.232431   5.189186   0.266077   0.000000
    11  C    0.000056   0.009790  -0.050210   0.266077   5.030215   0.000000
    12  O    0.000259  -0.000006  -0.000000   0.000000   0.000000   7.850099
    13  H   -0.000002   0.000000   0.000000  -0.000000  -0.000000   0.006140
    14  H    0.000059  -0.000004   0.000000   0.000000  -0.000000   0.001666
    15  H    0.000541   0.000019   0.000002  -0.000000   0.000000   0.003208
    16  H   -0.000131   0.000005   0.000001  -0.000000  -0.000000   0.000521
    17  H   -0.000709   0.000031  -0.000001   0.000000  -0.000000   0.002728
    18  H   -0.002328  -0.000207  -0.000046   0.000038   0.000000   0.000116
    19  H   -0.002292  -0.000486   0.000041  -0.000044  -0.000000   0.006849
    20  H   -0.035188  -0.003917   0.000434   0.000101  -0.000002  -0.000096
    21  H   -0.043424  -0.006359   0.000128  -0.000162   0.000004  -0.000049
    22  H    0.430324  -0.048651   0.006343  -0.002954  -0.000108  -0.000001
    23  H    0.432369  -0.045135  -0.006461  -0.000042   0.000724  -0.000065
    24  H   -0.044664   0.433243  -0.047167   0.009266  -0.000371   0.000000
    25  H   -0.067799   0.443532  -0.033842  -0.011326  -0.000228   0.000000
    26  H    0.012006  -0.052794   0.432814  -0.040671  -0.004707   0.000000
    27  H   -0.014327  -0.029241   0.428581  -0.058673  -0.003157  -0.000000
    28  H    0.004921  -0.010729  -0.048400   0.428308  -0.036983   0.000000
    29  H   -0.004970   0.008076  -0.055705   0.417809  -0.037699  -0.000000
    30  H   -0.000034   0.000049  -0.006208  -0.040562   0.413606  -0.000000
    31  H    0.000059  -0.000865   0.012516  -0.052076   0.422827   0.000000
    32  H   -0.000004  -0.000315  -0.007469  -0.044241   0.419291  -0.000000
              13         14         15         16         17         18
     1  O    0.288871   0.003186   0.005261  -0.000100   0.000174  -0.000006
     2  C   -0.028505  -0.016605  -0.036292   0.009679  -0.009051  -0.000041
     3  C    0.019548   0.397165   0.415640  -0.063579  -0.024195   0.008885
     4  C   -0.001780  -0.033612  -0.037395   0.436796   0.438453  -0.044173
     5  C    0.000338   0.007402  -0.008776  -0.033759  -0.059459   0.425133
     6  C   -0.000057  -0.000303   0.000710  -0.009733   0.011621  -0.043762
     7  C   -0.000002   0.000059   0.000541  -0.000131  -0.000709  -0.002328
     8  C    0.000000  -0.000004   0.000019   0.000005   0.000031  -0.000207
     9  C    0.000000   0.000000   0.000002   0.000001  -0.000001  -0.000046
    10  C   -0.000000   0.000000  -0.000000  -0.000000   0.000000   0.000038
    11  C   -0.000000  -0.000000   0.000000  -0.000000  -0.000000   0.000000
    12  O    0.006140   0.001666   0.003208   0.000521   0.002728   0.000116
    13  H    0.382381  -0.000601  -0.000835   0.000030  -0.000006  -0.000005
    14  H   -0.000601   0.489318  -0.015617  -0.004708  -0.003622  -0.000077
    15  H   -0.000835  -0.015617   0.492038  -0.000865   0.004861  -0.000678
    16  H    0.000030  -0.004708  -0.000865   0.528803  -0.018989  -0.003068
    17  H   -0.000006  -0.003622   0.004861  -0.018989   0.501288  -0.007519
    18  H   -0.000005  -0.000077  -0.000678  -0.003068  -0.007519   0.535698
    19  H    0.000012  -0.000177   0.001291   0.005088  -0.001329  -0.016379
    20  H    0.000000   0.000564  -0.009112   0.001525  -0.000623   0.005406
    21  H    0.000001  -0.000294   0.002180   0.001021   0.000257  -0.002129
    22  H    0.000000   0.000003  -0.000042   0.000140  -0.000042   0.000701
    23  H    0.000000  -0.000007   0.000099  -0.000035   0.000027   0.000846
    24  H   -0.000000   0.000000   0.000009  -0.000014   0.000001   0.000169
    25  H    0.000000   0.000000   0.000035   0.000003   0.000000  -0.000064
    26  H    0.000000   0.000000  -0.000000   0.000000  -0.000000   0.000001
    27  H    0.000000  -0.000000   0.000000  -0.000000   0.000000  -0.000024
    28  H    0.000000   0.000000  -0.000000   0.000000  -0.000000   0.000014
    29  H    0.000000  -0.000000   0.000000  -0.000000   0.000000  -0.000002
    30  H   -0.000000  -0.000000  -0.000000  -0.000000   0.000000   0.000000
    31  H   -0.000000  -0.000000  -0.000000   0.000000   0.000000   0.000000
    32  H    0.000000   0.000000  -0.000000  -0.000000  -0.000000  -0.000000
              19         20         21         22         23         24
     1  O   -0.000167   0.000638   0.000008  -0.000000   0.000006   0.000000
     2  C    0.000993  -0.000874   0.000355   0.000020  -0.000112  -0.000004
     3  C   -0.011221   0.006821  -0.004220  -0.000136   0.000203   0.000047
     4  C   -0.033343  -0.010950   0.007327  -0.000095   0.000196  -0.000066
     5  C    0.447455  -0.042391  -0.045950  -0.005854  -0.001860  -0.000108
     6  C   -0.065888   0.421436   0.424824  -0.048764  -0.040726  -0.003692
     7  C   -0.002292  -0.035188  -0.043424   0.430324   0.432369  -0.044664
     8  C   -0.000486  -0.003917  -0.006359  -0.048651  -0.045135   0.433243
     9  C    0.000041   0.000434   0.000128   0.006343  -0.006461  -0.047167
    10  C   -0.000044   0.000101  -0.000162  -0.002954  -0.000042   0.009266
    11  C   -0.000000  -0.000002   0.000004  -0.000108   0.000724  -0.000371
    12  O    0.006849  -0.000096  -0.000049  -0.000001  -0.000065   0.000000
    13  H    0.000012   0.000000   0.000001   0.000000   0.000000  -0.000000
    14  H   -0.000177   0.000564  -0.000294   0.000003  -0.000007   0.000000
    15  H    0.001291  -0.009112   0.002180  -0.000042   0.000099   0.000009
    16  H    0.005088   0.001525   0.001021   0.000140  -0.000035  -0.000014
    17  H   -0.001329  -0.000623   0.000257  -0.000042   0.000027   0.000001
    18  H   -0.016379   0.005406  -0.002129   0.000701   0.000846   0.000169
    19  H    0.480947  -0.000763   0.005126   0.001116   0.000772  -0.000047
    20  H   -0.000763   0.556879  -0.030550   0.006544  -0.004616   0.000773
    21  H    0.005126  -0.030550   0.545082  -0.003857   0.006468   0.001136
    22  H    0.001116   0.006544  -0.003857   0.543421  -0.028045  -0.002123
    23  H    0.000772  -0.004616   0.006468  -0.028045   0.538047   0.005293
    24  H   -0.000047   0.000773   0.001136  -0.002123   0.005293   0.541646
    25  H    0.000152   0.000547   0.001260   0.006263  -0.001068  -0.022277
    26  H    0.000000   0.000030  -0.000057   0.000330  -0.000628  -0.008246
    27  H    0.000003  -0.000066   0.000179   0.001307   0.001718  -0.002403
    28  H    0.000030   0.000076  -0.000047   0.001333  -0.007940  -0.000673
    29  H    0.000002  -0.000031   0.000020   0.000104   0.001312   0.000269
    30  H   -0.000000   0.000000   0.000000  -0.000021   0.000068   0.000022
    31  H   -0.000000   0.000000  -0.000000   0.000010  -0.000025   0.000015
    32  H    0.000000  -0.000000  -0.000000   0.000009  -0.000057  -0.000051
              25         26         27         28         29         30
     1  O   -0.000002  -0.000000   0.000000  -0.000000   0.000000  -0.000000
     2  C    0.000014   0.000000   0.000000   0.000001   0.000000  -0.000000
     3  C   -0.000089   0.000000  -0.000001  -0.000001  -0.000000   0.000000
     4  C    0.000058  -0.000000   0.000000   0.000006  -0.000001  -0.000000
     5  C   -0.000465   0.000028   0.000004   0.000008   0.000013   0.000001
     6  C   -0.003141  -0.000484  -0.000220   0.000907  -0.000161  -0.000010
     7  C   -0.067799   0.012006  -0.014327   0.004921  -0.004970  -0.000034
     8  C    0.443532  -0.052794  -0.029241  -0.010729   0.008076   0.000049
     9  C   -0.033842   0.432814   0.428581  -0.048400  -0.055705  -0.006208
    10  C   -0.011326  -0.040671  -0.058673   0.428308   0.417809  -0.040562
    11  C   -0.000228  -0.004707  -0.003157  -0.036983  -0.037699   0.413606
    12  O    0.000000   0.000000  -0.000000   0.000000  -0.000000  -0.000000
    13  H    0.000000   0.000000   0.000000   0.000000   0.000000  -0.000000
    14  H    0.000000   0.000000  -0.000000   0.000000  -0.000000  -0.000000
    15  H    0.000035  -0.000000   0.000000  -0.000000   0.000000  -0.000000
    16  H    0.000003   0.000000  -0.000000   0.000000  -0.000000  -0.000000
    17  H    0.000000  -0.000000   0.000000  -0.000000   0.000000   0.000000
    18  H   -0.000064   0.000001  -0.000024   0.000014  -0.000002   0.000000
    19  H    0.000152   0.000000   0.000003   0.000030   0.000002  -0.000000
    20  H    0.000547   0.000030  -0.000066   0.000076  -0.000031   0.000000
    21  H    0.001260  -0.000057   0.000179  -0.000047   0.000020   0.000000
    22  H    0.006263   0.000330   0.001307   0.001333   0.000104  -0.000021
    23  H   -0.001068  -0.000628   0.001718  -0.007940   0.001312   0.000068
    24  H   -0.022277  -0.008246  -0.002403  -0.000673   0.000269   0.000022
    25  H    0.534379  -0.002167   0.006144   0.001567   0.001483  -0.000041
    26  H   -0.002167   0.542923  -0.023888   0.006376  -0.003479   0.000152
    27  H    0.006144  -0.023888   0.543895  -0.002920   0.007622   0.002575
    28  H    0.001567   0.006376  -0.002920   0.564670  -0.033112  -0.006133
    29  H    0.001483  -0.003479   0.007622  -0.033112   0.570386   0.007704
    30  H   -0.000041   0.000152   0.002575  -0.006133   0.007704   0.549478
    31  H    0.000022  -0.000064  -0.000226  -0.004235  -0.004369  -0.024613
    32  H    0.000118   0.003233   0.000323   0.007946  -0.006289  -0.032289
              31         32
     1  O   -0.000000   0.000000
     2  C   -0.000000   0.000000
     3  C    0.000000  -0.000000
     4  C   -0.000000   0.000000
     5  C    0.000000  -0.000000
     6  C   -0.000006   0.000006
     7  C    0.000059  -0.000004
     8  C   -0.000865  -0.000315
     9  C    0.012516  -0.007469
    10  C   -0.052076  -0.044241
    11  C    0.422827   0.419291
    12  O    0.000000  -0.000000
    13  H   -0.000000   0.000000
    14  H   -0.000000   0.000000
    15  H   -0.000000  -0.000000
    16  H    0.000000  -0.000000
    17  H    0.000000  -0.000000
    18  H    0.000000  -0.000000
    19  H   -0.000000   0.000000
    20  H    0.000000  -0.000000
    21  H   -0.000000  -0.000000
    22  H    0.000010   0.000009
    23  H   -0.000025  -0.000057
    24  H    0.000015  -0.000051
    25  H    0.000022   0.000118
    26  H   -0.000064   0.003233
    27  H   -0.000226   0.000323
    28  H   -0.004235   0.007946
    29  H   -0.004369  -0.006289
    30  H   -0.024613  -0.032289
    31  H    0.534796  -0.025069
    32  H   -0.025069   0.548632
 Mulliken charges:
               1
     1  O   -0.409291
     2  C    0.355483
     3  C   -0.360909
     4  C   -0.260857
     5  C   -0.318420
     6  C   -0.288142
     7  C   -0.307074
     8  C   -0.267075
     9  C   -0.278100
    10  C   -0.255995
    11  C   -0.429127
    12  O   -0.337547
    13  H    0.334468
    14  H    0.176263
    15  H    0.183717
    16  H    0.151371
    17  H    0.166104
    18  H    0.143501
    19  H    0.182259
    20  H    0.137403
    21  H    0.141722
    22  H    0.142723
    23  H    0.148676
    24  H    0.140020
    25  H    0.146930
    26  H    0.139293
    27  H    0.142793
    28  H    0.135011
    29  H    0.131018
    30  H    0.136254
    31  H    0.141301
    32  H    0.136226
 Sum of Mulliken charges =  -0.00000
 Mulliken charges with hydrogens summed into heavy atoms:
               1
     1  O   -0.074823
     2  C    0.355483
     3  C   -0.000928
     4  C    0.056618
     5  C    0.007340
     6  C   -0.009017
     7  C   -0.015675
     8  C    0.019875
     9  C    0.003987
    10  C    0.010034
    11  C   -0.015346
    12  O   -0.337547
 Electronic spatial extent (au):  <R**2>=           4549.0940
 Charge=              0.0000 electrons
 Dipole moment (field-independent basis, Debye):
    X=             -0.0520    Y=             -0.4787    Z=             -1.3766  Tot=              1.4584
 Quadrupole moment (field-independent basis, Debye-Ang):
   XX=            -77.8845   YY=            -72.6715   ZZ=            -82.0532
   XY=             -0.4269   XZ=             -4.7642   YZ=             -1.7566
 Traceless Quadrupole moment (field-independent basis, Debye-Ang):
   XX=             -0.3481   YY=              4.8649   ZZ=             -4.5168
   XY=             -0.4269   XZ=             -4.7642   YZ=             -1.7566
 Octapole moment (field-independent basis, Debye-Ang**2):
  XXX=             54.2691  YYY=             28.7062  ZZZ=             -1.1457  XYY=             30.5217
  XXY=              5.8177  XXZ=            -18.8706  XZZ=             -6.7826  YZZ=             -3.3279
  YYZ=             -3.0346  XYZ=             -4.2115
 Hexadecapole moment (field-independent basis, Debye-Ang**3):
 XXXX=          -5102.2140 YYYY=           -602.7369 ZZZZ=           -366.4321 XXXY=             81.2919
 XXXZ=            -44.2947 YYYX=            121.2895 YYYZ=            -12.4699 ZZZX=             -2.4881
 ZZZY=             -5.9042 XXYY=           -873.9552 XXZZ=           -962.5911 YYZZ=           -177.6890
 XXYZ=            -22.9323 YYXZ=            -18.7868 ZZXY=            -11.4311
 N-N= 7.003623058429D+02 E-N=-2.665681492557D+03  KE= 5.405764099199D+02
 Unable to Open any file for archive entry.
 1\1\GINC-NOTCH075\SP\RM062X\def2TZVP\C10H20O2\U6032257\03-Feb-2022\0\\
 # M062X/def2tzvp int=(grid=ultrafine) nmr=giao guess=read geom=check\\
 Ac1.xyz\\0,1\O,0,6.2800382884,-0.6465915033,-0.1670969105\C,0,4.953551
 5106,-0.427444088,0.013885523\C,0,4.2658372326,-1.6355414442,0.6085993
 287\C,0,2.7395159013,-1.5699104466,0.5077713605\C,0,2.1931354453,-1.63
 04399249,-0.9254084049\C,0,2.5023494364,-2.9330385907,-1.6699273397\C,
 0,1.86431919,-2.991015998,-3.0606911979\C,0,2.1852980253,-4.2843588519
 ,-3.8166979729\C,0,1.4916906699,-4.4119681424,-5.1792468442\C,0,1.9251
 23034,-3.3669803033,-6.213386413\C,0,1.2711685922,-3.5812729834,-7.580
 055519\O,0,4.430194046,0.6309221114,-0.2595542577\H,0,6.6418054196,0.1
 840132119,-0.5198654654\H,0,4.5797952943,-1.6862467256,1.65935405\H,0,
 4.675861734,-2.5332001843,0.1362140838\H,0,2.3215784653,-2.397876879,1
 .0934071332\H,0,2.4023956795,-0.6416099773,0.9796545432\H,0,1.10450944
 45,-1.4968726223,-0.884221095\H,0,2.5829131616,-0.7777830971,-1.493037
 2754\H,0,3.5881574631,-3.059292666,-1.7761792382\H,0,2.1543697352,-3.7
 885297912,-1.073236309\H,0,0.774013089,-2.888530239,-2.964937917\H,0,2
 .200638289,-2.1230183483,-3.6415297429\H,0,1.8989120727,-5.13938618,-3
 .1899189031\H,0,3.2730854189,-4.3611948032,-3.955463906\H,0,1.68869339
 77,-5.4125596296,-5.5868254006\H,0,0.4029944778,-4.3508585273,-5.03945
 152\H,0,1.6829492808,-2.3609209927,-5.8505854576\H,0,3.0182777761,-3.3
 981407446,-6.3183789536\H,0,0.1791078769,-3.5282258607,-7.5062549597\H
 ,0,1.5929017492,-2.8256451569,-8.3036929112\H,0,1.5254188028,-4.565580
 6216,-7.9891421078\\Version=ES64L-G16RevC.01\State=1-A\HF=-543.5433902
 \RMSD=2.388e-09\Dipole=0.2076426,-0.51748,0.1352762\Quadrupole=2.93800
 33,-4.5612397,1.6232364,2.1687836,-0.1793016,-2.4070675\PG=C01 [X(C10H
 20O2)]\\@
 The archive entry for this job was punched.


 The chemist is a guest at the physicist's table and
 frequently dines well.
                   -- Richard Bersohn
 Job cpu time:       0 days  0 hours 35 minutes  8.9 seconds.
 Elapsed time:       0 days  0 hours  1 minutes 16.7 seconds.
 File lengths (MBytes):  RWF=    140 Int=      0 D2E=      0 Chk=     24 Scr=      1
 Normal termination of Gaussian 16 at Thu Feb  3 08:09:46 2022.
