 Entering Gaussian System, Link 0=/uufs/chpc.utah.edu/sys/installdir/gaussian16/C01/AVX2/g16/g16
 Input=Ac1_clust-1.com
 Output=Ac1_clust-1.log
 Initial command:
 /uufs/chpc.utah.edu/sys/installdir/gaussian16/C01/AVX2/g16/l1.exe "/scratch/general/lustre/u6032257/3857475/notchpeak.peaks/Gau-204453.inp" -scrdir="/scratch/general/lustre/u6032257/3857475/notchpeak.peaks/"
 Entering Link 1 = /uufs/chpc.utah.edu/sys/installdir/gaussian16/C01/AVX2/g16/l1.exe PID=    204455.
  
 Copyright (c) 1988-2019, Gaussian, Inc.  All Rights Reserved.
  
 This is part of the Gaussian(R) 16 program.  It is based on
 the Gaussian(R) 09 system (copyright 2009, Gaussian, Inc.),
 the Gaussian(R) 03 system (copyright 2003, Gaussian, Inc.),
 the Gaussian(R) 98 system (copyright 1998, Gaussian, Inc.),
 the Gaussian(R) 94 system (copyright 1995, Gaussian, Inc.),
 the Gaussian 92(TM) system (copyright 1992, Gaussian, Inc.),
 the Gaussian 90(TM) system (copyright 1990, Gaussian, Inc.),
 the Gaussian 88(TM) system (copyright 1988, Gaussian, Inc.),
 the Gaussian 86(TM) system (copyright 1986, Carnegie Mellon
 University), and the Gaussian 82(TM) system (copyright 1983,
 Carnegie Mellon University). Gaussian is a federally registered
 trademark of Gaussian, Inc.
  
 This software contains proprietary and confidential information,
 including trade secrets, belonging to Gaussian, Inc.
  
 This software is provided under written license and may be
 used, copied, transmitted, or stored only in accord with that
 written license.
  
 The following legend is applicable only to US Government
 contracts under FAR:
  
                    RESTRICTED RIGHTS LEGEND
  
 Use, reproduction and disclosure by the US Government is
 subject to restrictions as set forth in subparagraphs (a)
 and (c) of the Commercial Computer Software - Restricted
 Rights clause in FAR 52.227-19.
  
 Gaussian, Inc.
 340 Quinnipiac St., Bldg. 40, Wallingford CT 06492
  
  
 ---------------------------------------------------------------
 Warning -- This program may not be used in any manner that
 competes with the business of Gaussian, Inc. or will provide
 assistance to any competitor of Gaussian, Inc.  The licensee
 of this program is prohibited from giving any competitor of
 Gaussian, Inc. access to this program.  By using this program,
 the user acknowledges that Gaussian, Inc. is engaged in the
 business of creating and licensing software in the field of
 computational chemistry and represents and warrants to the
 licensee that it is not a competitor of Gaussian, Inc. and that
 it will not use this program in any manner prohibited above.
 ---------------------------------------------------------------
  

 Cite this work as:
 Gaussian 16, Revision C.01,
 M. J. Frisch, G. W. Trucks, H. B. Schlegel, G. E. Scuseria, 
 M. A. Robb, J. R. Cheeseman, G. Scalmani, V. Barone, 
 G. A. Petersson, H. Nakatsuji, X. Li, M. Caricato, A. V. Marenich, 
 J. Bloino, B. G. Janesko, R. Gomperts, B. Mennucci, H. P. Hratchian, 
 J. V. Ortiz, A. F. Izmaylov, J. L. Sonnenberg, D. Williams-Young, 
 F. Ding, F. Lipparini, F. Egidi, J. Goings, B. Peng, A. Petrone, 
 T. Henderson, D. Ranasinghe, V. G. Zakrzewski, J. Gao, N. Rega, 
 G. Zheng, W. Liang, M. Hada, M. Ehara, K. Toyota, R. Fukuda, 
 J. Hasegawa, M. Ishida, T. Nakajima, Y. Honda, O. Kitao, H. Nakai, 
 T. Vreven, K. Throssell, J. A. Montgomery, Jr., J. E. Peralta, 
 F. Ogliaro, M. J. Bearpark, J. J. Heyd, E. N. Brothers, K. N. Kudin, 
 V. N. Staroverov, T. A. Keith, R. Kobayashi, J. Normand, 
 K. Raghavachari, A. P. Rendell, J. C. Burant, S. S. Iyengar, 
 J. Tomasi, M. Cossi, J. M. Millam, M. Klene, C. Adamo, R. Cammi, 
 J. W. Ochterski, R. L. Martin, K. Morokuma, O. Farkas, 
 J. B. Foresman, and D. J. Fox, Gaussian, Inc., Wallingford CT, 2019.
 
 ******************************************
 Gaussian 16:  ES64L-G16RevC.01  3-Jul-2019
                 3-Feb-2022 
 ******************************************
 %NProcShared=32
 Will use up to   32 processors via shared memory.
 %mem=16GB
 %chk=Ac1_clust-1.chk
 ----------------------------------------------------------------------
 # B3LYP/6-31G(d,p) empiricaldispersion=GD3BJ int=(grid=ultrafine) opt 
 freq=noraman
 ----------------------------------------------------------------------
 1/18=20,19=15,26=4,38=1/1,3;
 2/9=110,12=2,17=6,18=5,40=1/2;
 3/5=1,6=6,7=101,11=2,25=1,30=1,71=1,74=-5,75=-5,124=41/1,2,3;
 4//1;
 5/5=2,38=5/2;
 6/7=2,8=2,9=2,10=2,28=1/1;
 7//1,2,3,16;
 1/18=20,19=15,26=4/3(2);
 2/9=110/2;
 99//99;
 2/9=110/2;
 3/5=1,6=6,7=101,11=2,25=1,30=1,71=1,74=-5,75=-5,124=41/1,2,3;
 4/5=5,16=3,69=1/1;
 5/5=2,38=5/2;
 7//1,2,3,16;
 1/18=20,19=15,26=4/3(-5);
 2/9=110/2;
 6/7=2,8=2,9=2,10=2,19=2,28=1/1;
 99/9=1/99;
 -------
 Ac1.xyz
 -------
 Symbolic Z-matrix:
 Charge =  0 Multiplicity = 1
 O                     5.5458   -1.3318   -2.0196 
 C                     4.5132   -0.9992   -1.2165 
 C                     4.4109   -1.9353   -0.0108 
 C                     3.0958   -1.8449    0.8083 
 C                     1.9433   -2.7688    0.3474 
 C                     1.3253   -2.4442   -1.0298 
 C                     1.9477   -3.2268   -2.2025 
 C                     1.4049   -2.7725   -3.5703 
 C                     2.0421   -3.4952   -4.7763 
 C                     3.553    -3.2504   -4.979 
 C                     3.9222   -1.7804   -5.2356 
 O                     3.7747   -0.0498   -1.4387 
 H                     5.5038   -0.6894   -2.7284 
 H                     5.2433   -1.6437    0.6287 
 H                     4.6021   -2.9615   -0.3239 
 H                     3.3287   -2.1135    1.8404 
 H                     2.7417   -0.8126    0.8663 
 H                     2.26     -3.8127    0.384 
 H                     1.1502   -2.6912    1.0935 
 H                     0.2583   -2.6719   -1. 
 H                     1.3833   -1.3698   -1.2151 
 H                     3.029    -3.1164   -2.1867 
 H                     1.7583   -4.2933   -2.0705 
 H                     1.5338   -1.6945   -3.678 
 H                     0.3265   -2.9378   -3.5939 
 H                     1.8661   -4.5679   -4.6802 
 H                     1.5136   -3.1961   -5.6831 
 H                     4.1147   -3.6243   -4.1222 
 H                     3.8911   -3.8478   -5.8273 
 H                     3.3859   -1.3825   -6.0979 
 H                     3.6863   -1.151    -4.3772 
 H                     4.9891   -1.6767   -5.4344 
 

 GradGradGradGradGradGradGradGradGradGradGradGradGradGradGradGradGradGrad
 Berny optimization.
 Initialization pass.
                           ----------------------------
                           !    Initial Parameters    !
                           ! (Angstroms and Degrees)  !
 --------------------------                            --------------------------
 ! Name  Definition              Value          Derivative Info.                !
 --------------------------------------------------------------------------------
 ! R1    R(1,2)                  1.3498         estimate D2E/DX2                !
 ! R2    R(1,13)                 0.9575         estimate D2E/DX2                !
 ! R3    R(2,3)                  1.5299         estimate D2E/DX2                !
 ! R4    R(2,12)                 1.2232         estimate D2E/DX2                !
 ! R5    R(3,4)                  1.552          estimate D2E/DX2                !
 ! R6    R(3,14)                 1.0894         estimate D2E/DX2                !
 ! R7    R(3,15)                 1.0898         estimate D2E/DX2                !
 ! R8    R(4,5)                  1.5473         estimate D2E/DX2                !
 ! R9    R(4,16)                 1.0916         estimate D2E/DX2                !
 ! R10   R(4,17)                 1.0929         estimate D2E/DX2                !
 ! R11   R(5,6)                  1.544          estimate D2E/DX2                !
 ! R12   R(5,18)                 1.0915         estimate D2E/DX2                !
 ! R13   R(5,19)                 1.0916         estimate D2E/DX2                !
 ! R14   R(6,7)                  1.5411         estimate D2E/DX2                !
 ! R15   R(6,20)                 1.0914         estimate D2E/DX2                !
 ! R16   R(6,21)                 1.0918         estimate D2E/DX2                !
 ! R17   R(7,8)                  1.5401         estimate D2E/DX2                !
 ! R18   R(7,22)                 1.087          estimate D2E/DX2                !
 ! R19   R(7,23)                 1.0912         estimate D2E/DX2                !
 ! R20   R(8,9)                  1.5436         estimate D2E/DX2                !
 ! R21   R(8,24)                 1.091          estimate D2E/DX2                !
 ! R22   R(8,25)                 1.0913         estimate D2E/DX2                !
 ! R23   R(9,10)                 1.544          estimate D2E/DX2                !
 ! R24   R(9,26)                 1.0913         estimate D2E/DX2                !
 ! R25   R(9,27)                 1.0914         estimate D2E/DX2                !
 ! R26   R(10,11)                1.5372         estimate D2E/DX2                !
 ! R27   R(10,28)                1.0906         estimate D2E/DX2                !
 ! R28   R(10,29)                1.0912         estimate D2E/DX2                !
 ! R29   R(11,30)                1.0906         estimate D2E/DX2                !
 ! R30   R(11,31)                1.0902         estimate D2E/DX2                !
 ! R31   R(11,32)                1.0902         estimate D2E/DX2                !
 ! A1    A(2,1,13)             103.979          estimate D2E/DX2                !
 ! A2    A(1,2,3)              111.6725         estimate D2E/DX2                !
 ! A3    A(1,2,12)             123.0295         estimate D2E/DX2                !
 ! A4    A(3,2,12)             125.2914         estimate D2E/DX2                !
 ! A5    A(2,3,4)              115.911          estimate D2E/DX2                !
 ! A6    A(2,3,14)             104.3445         estimate D2E/DX2                !
 ! A7    A(2,3,15)             109.7563         estimate D2E/DX2                !
 ! A8    A(4,3,14)             108.787          estimate D2E/DX2                !
 ! A9    A(4,3,15)             110.8026         estimate D2E/DX2                !
 ! A10   A(14,3,15)            106.6565         estimate D2E/DX2                !
 ! A11   A(3,4,5)              116.0503         estimate D2E/DX2                !
 ! A12   A(3,4,16)             107.6911         estimate D2E/DX2                !
 ! A13   A(3,4,17)             110.952          estimate D2E/DX2                !
 ! A14   A(5,4,16)             107.0748         estimate D2E/DX2                !
 ! A15   A(5,4,17)             109.7836         estimate D2E/DX2                !
 ! A16   A(16,4,17)            104.5585         estimate D2E/DX2                !
 ! A17   A(4,5,6)              115.9941         estimate D2E/DX2                !
 ! A18   A(4,5,18)             110.1787         estimate D2E/DX2                !
 ! A19   A(4,5,19)             107.1637         estimate D2E/DX2                !
 ! A20   A(6,5,18)             110.3106         estimate D2E/DX2                !
 ! A21   A(6,5,19)             107.6911         estimate D2E/DX2                !
 ! A22   A(18,5,19)            104.825          estimate D2E/DX2                !
 ! A23   A(5,6,7)              114.2251         estimate D2E/DX2                !
 ! A24   A(5,6,20)             108.8495         estimate D2E/DX2                !
 ! A25   A(5,6,21)             109.6943         estimate D2E/DX2                !
 ! A26   A(7,6,20)             108.0384         estimate D2E/DX2                !
 ! A27   A(7,6,21)             110.4332         estimate D2E/DX2                !
 ! A28   A(20,6,21)            105.1809         estimate D2E/DX2                !
 ! A29   A(6,7,8)              112.5615         estimate D2E/DX2                !
 ! A30   A(6,7,22)             109.8218         estimate D2E/DX2                !
 ! A31   A(6,7,23)             109.522          estimate D2E/DX2                !
 ! A32   A(8,7,22)             109.4835         estimate D2E/DX2                !
 ! A33   A(8,7,23)             109.5461         estimate D2E/DX2                !
 ! A34   A(22,7,23)            105.6737         estimate D2E/DX2                !
 ! A35   A(7,8,9)              114.2226         estimate D2E/DX2                !
 ! A36   A(7,8,24)             109.7244         estimate D2E/DX2                !
 ! A37   A(7,8,25)             108.8335         estimate D2E/DX2                !
 ! A38   A(9,8,24)             109.6764         estimate D2E/DX2                !
 ! A39   A(9,8,25)             108.6701         estimate D2E/DX2                !
 ! A40   A(24,8,25)            105.3249         estimate D2E/DX2                !
 ! A41   A(8,9,10)             115.6133         estimate D2E/DX2                !
 ! A42   A(8,9,26)             108.9557         estimate D2E/DX2                !
 ! A43   A(8,9,27)             108.7203         estimate D2E/DX2                !
 ! A44   A(10,9,26)            108.98           estimate D2E/DX2                !
 ! A45   A(10,9,27)            108.7447         estimate D2E/DX2                !
 ! A46   A(26,9,27)            105.3352         estimate D2E/DX2                !
 ! A47   A(9,10,11)            114.1146         estimate D2E/DX2                !
 ! A48   A(9,10,28)            110.2739         estimate D2E/DX2                !
 ! A49   A(9,10,29)            108.5694         estimate D2E/DX2                !
 ! A50   A(11,10,28)           109.59           estimate D2E/DX2                !
 ! A51   A(11,10,29)           108.6227         estimate D2E/DX2                !
 ! A52   A(28,10,29)           105.2754         estimate D2E/DX2                !
 ! A53   A(10,11,30)           111.2693         estimate D2E/DX2                !
 ! A54   A(10,11,31)           111.633          estimate D2E/DX2                !
 ! A55   A(10,11,32)           110.8816         estimate D2E/DX2                !
 ! A56   A(30,11,31)           107.7875         estimate D2E/DX2                !
 ! A57   A(30,11,32)           107.5982         estimate D2E/DX2                !
 ! A58   A(31,11,32)           107.482          estimate D2E/DX2                !
 ! D1    D(13,1,2,3)           179.6575         estimate D2E/DX2                !
 ! D2    D(13,1,2,12)           -1.2255         estimate D2E/DX2                !
 ! D3    D(1,2,3,4)           -167.2479         estimate D2E/DX2                !
 ! D4    D(1,2,3,14)            73.1615         estimate D2E/DX2                !
 ! D5    D(1,2,3,15)           -40.8052         estimate D2E/DX2                !
 ! D6    D(12,2,3,4)            13.6591         estimate D2E/DX2                !
 ! D7    D(12,2,3,14)         -105.9315         estimate D2E/DX2                !
 ! D8    D(12,2,3,15)          140.1018         estimate D2E/DX2                !
 ! D9    D(2,3,4,5)             89.1848         estimate D2E/DX2                !
 ! D10   D(2,3,4,16)          -150.8838         estimate D2E/DX2                !
 ! D11   D(2,3,4,17)           -37.0139         estimate D2E/DX2                !
 ! D12   D(14,3,4,5)          -153.673          estimate D2E/DX2                !
 ! D13   D(14,3,4,16)          -33.7415         estimate D2E/DX2                !
 ! D14   D(14,3,4,17)           80.1284         estimate D2E/DX2                !
 ! D15   D(15,3,4,5)           -36.7293         estimate D2E/DX2                !
 ! D16   D(15,3,4,16)           83.2022         estimate D2E/DX2                !
 ! D17   D(15,3,4,17)         -162.928          estimate D2E/DX2                !
 ! D18   D(3,4,5,6)            -67.285          estimate D2E/DX2                !
 ! D19   D(3,4,5,18)            58.9164         estimate D2E/DX2                !
 ! D20   D(3,4,5,19)           172.4204         estimate D2E/DX2                !
 ! D21   D(16,4,5,6)           172.4506         estimate D2E/DX2                !
 ! D22   D(16,4,5,18)          -61.348          estimate D2E/DX2                !
 ! D23   D(16,4,5,19)           52.156          estimate D2E/DX2                !
 ! D24   D(17,4,5,6)            59.5            estimate D2E/DX2                !
 ! D25   D(17,4,5,18)         -174.2986         estimate D2E/DX2                !
 ! D26   D(17,4,5,19)          -60.7946         estimate D2E/DX2                !
 ! D27   D(4,5,6,7)             93.4428         estimate D2E/DX2                !
 ! D28   D(4,5,6,20)          -145.7331         estimate D2E/DX2                !
 ! D29   D(4,5,6,21)           -31.1448         estimate D2E/DX2                !
 ! D30   D(18,5,6,7)           -32.6921         estimate D2E/DX2                !
 ! D31   D(18,5,6,20)           88.132          estimate D2E/DX2                !
 ! D32   D(18,5,6,21)         -157.2797         estimate D2E/DX2                !
 ! D33   D(19,5,6,7)          -146.5476         estimate D2E/DX2                !
 ! D34   D(19,5,6,20)          -25.7235         estimate D2E/DX2                !
 ! D35   D(19,5,6,21)           88.8648         estimate D2E/DX2                !
 ! D36   D(5,6,7,8)           -174.194          estimate D2E/DX2                !
 ! D37   D(5,6,7,22)           -51.9395         estimate D2E/DX2                !
 ! D38   D(5,6,7,23)            63.686          estimate D2E/DX2                !
 ! D39   D(20,6,7,8)            64.5325         estimate D2E/DX2                !
 ! D40   D(20,6,7,22)         -173.2129         estimate D2E/DX2                !
 ! D41   D(20,6,7,23)          -57.5875         estimate D2E/DX2                !
 ! D42   D(21,6,7,8)           -50.0008         estimate D2E/DX2                !
 ! D43   D(21,6,7,22)           72.2537         estimate D2E/DX2                !
 ! D44   D(21,6,7,23)         -172.1208         estimate D2E/DX2                !
 ! D45   D(6,7,8,9)            177.8161         estimate D2E/DX2                !
 ! D46   D(6,7,8,24)            54.2067         estimate D2E/DX2                !
 ! D47   D(6,7,8,25)           -60.5608         estimate D2E/DX2                !
 ! D48   D(22,7,8,9)            55.3708         estimate D2E/DX2                !
 ! D49   D(22,7,8,24)          -68.2386         estimate D2E/DX2                !
 ! D50   D(22,7,8,25)          176.9939         estimate D2E/DX2                !
 ! D51   D(23,7,8,9)           -60.0775         estimate D2E/DX2                !
 ! D52   D(23,7,8,24)          176.3131         estimate D2E/DX2                !
 ! D53   D(23,7,8,25)           61.5456         estimate D2E/DX2                !
 ! D54   D(7,8,9,10)           -64.1239         estimate D2E/DX2                !
 ! D55   D(7,8,9,26)            58.9705         estimate D2E/DX2                !
 ! D56   D(7,8,9,27)           173.2785         estimate D2E/DX2                !
 ! D57   D(24,8,9,10)           59.5113         estimate D2E/DX2                !
 ! D58   D(24,8,9,26)         -177.3943         estimate D2E/DX2                !
 ! D59   D(24,8,9,27)          -63.0863         estimate D2E/DX2                !
 ! D60   D(25,8,9,10)          174.163          estimate D2E/DX2                !
 ! D61   D(25,8,9,26)          -62.7425         estimate D2E/DX2                !
 ! D62   D(25,8,9,27)           51.5654         estimate D2E/DX2                !
 ! D63   D(8,9,10,11)          -61.3371         estimate D2E/DX2                !
 ! D64   D(8,9,10,28)           62.5085         estimate D2E/DX2                !
 ! D65   D(8,9,10,29)          177.3669         estimate D2E/DX2                !
 ! D66   D(26,9,10,11)         175.5812         estimate D2E/DX2                !
 ! D67   D(26,9,10,28)         -60.5732         estimate D2E/DX2                !
 ! D68   D(26,9,10,29)          54.2852         estimate D2E/DX2                !
 ! D69   D(27,9,10,11)          61.2475         estimate D2E/DX2                !
 ! D70   D(27,9,10,28)        -174.9069         estimate D2E/DX2                !
 ! D71   D(27,9,10,29)         -60.0484         estimate D2E/DX2                !
 ! D72   D(9,10,11,30)         -56.6368         estimate D2E/DX2                !
 ! D73   D(9,10,11,31)          63.8299         estimate D2E/DX2                !
 ! D74   D(9,10,11,32)        -176.356          estimate D2E/DX2                !
 ! D75   D(28,10,11,30)        179.1504         estimate D2E/DX2                !
 ! D76   D(28,10,11,31)        -60.3829         estimate D2E/DX2                !
 ! D77   D(28,10,11,32)         59.4311         estimate D2E/DX2                !
 ! D78   D(29,10,11,30)         64.6297         estimate D2E/DX2                !
 ! D79   D(29,10,11,31)       -174.9036         estimate D2E/DX2                !
 ! D80   D(29,10,11,32)        -55.0896         estimate D2E/DX2                !
 --------------------------------------------------------------------------------
 Trust Radius=3.00D-01 FncErr=1.00D-07 GrdErr=1.00D-06 EigMax=2.50D+02 EigMin=1.00D-04
 Number of steps in this run=    179 maximum allowed number of steps=    192.
 GradGradGradGradGradGradGradGradGradGradGradGradGradGradGradGradGradGrad

                          Input orientation:                          
 ---------------------------------------------------------------------
 Center     Atomic      Atomic             Coordinates (Angstroms)
 Number     Number       Type             X           Y           Z
 ---------------------------------------------------------------------
      1          8           0        5.545800   -1.331800   -2.019600
      2          6           0        4.513200   -0.999200   -1.216500
      3          6           0        4.410900   -1.935300   -0.010800
      4          6           0        3.095800   -1.844900    0.808300
      5          6           0        1.943300   -2.768800    0.347400
      6          6           0        1.325300   -2.444200   -1.029800
      7          6           0        1.947700   -3.226800   -2.202500
      8          6           0        1.404900   -2.772500   -3.570300
      9          6           0        2.042100   -3.495200   -4.776300
     10          6           0        3.553000   -3.250400   -4.979000
     11          6           0        3.922200   -1.780400   -5.235600
     12          8           0        3.774700   -0.049800   -1.438700
     13          1           0        5.503800   -0.689400   -2.728400
     14          1           0        5.243300   -1.643700    0.628700
     15          1           0        4.602100   -2.961500   -0.323900
     16          1           0        3.328700   -2.113500    1.840400
     17          1           0        2.741700   -0.812600    0.866300
     18          1           0        2.260000   -3.812700    0.384000
     19          1           0        1.150200   -2.691200    1.093500
     20          1           0        0.258300   -2.671900   -1.000000
     21          1           0        1.383300   -1.369800   -1.215100
     22          1           0        3.029000   -3.116400   -2.186700
     23          1           0        1.758300   -4.293300   -2.070500
     24          1           0        1.533800   -1.694500   -3.678000
     25          1           0        0.326500   -2.937800   -3.593900
     26          1           0        1.866100   -4.567900   -4.680200
     27          1           0        1.513600   -3.196100   -5.683100
     28          1           0        4.114700   -3.624300   -4.122200
     29          1           0        3.891100   -3.847800   -5.827300
     30          1           0        3.385900   -1.382500   -6.097900
     31          1           0        3.686300   -1.151000   -4.377200
     32          1           0        4.989100   -1.676700   -5.434400
 ---------------------------------------------------------------------
                    Distance matrix (angstroms):
                    1          2          3          4          5
     1  O    0.000000
     2  C    1.349761   0.000000
     3  C    2.384845   1.529857   0.000000
     4  C    3.776611   2.612288   1.551962   0.000000
     5  C    4.543750   3.490223   2.629083   1.547345   0.000000
     6  C    4.475462   3.505080   3.289113   2.621534   1.544011
     7  C    4.070725   3.537822   3.541027   3.506094   2.590709
     8  C    4.650520   4.283281   4.733601   4.784529   3.954524
     9  C    4.955362   5.000853   5.545673   5.917899   5.175879
    10  C    4.050966   4.488462   5.210421   5.973048   5.585124
    11  C    3.630424   4.136752   5.249891   6.100477   6.005237
    12  O    2.262248   1.223158   2.449236   2.955046   3.733248
    13  H    0.957517   1.833877   3.183088   4.431917   5.144085
    14  H    2.683707   2.086430   1.089440   2.164369   3.497854
    15  H    2.534145   2.157605   1.089805   2.190345   2.748999
    16  H    4.519534   3.462563   2.151709   1.091613   2.139579
    17  H    4.057211   2.740636   2.194536   1.092883   2.175642
    18  H    4.767456   3.943893   2.882164   2.179640   1.091497
    19  H    5.555237   4.416869   3.524632   2.140776   1.091648
    20  H    5.549154   4.577005   4.331880   3.464864   2.159653
    21  H    4.239702   3.151765   3.307037   2.693051   2.170762
    22  H    3.089822   2.761643   2.835346   3.254412   2.778711
    23  H    4.808142   4.378343   4.103513   4.008872   2.864361
    24  H    4.356373   3.926735   4.667338   4.752826   4.186365
    25  H    5.683199   5.190246   5.525028   5.314397   4.263385
    26  H    5.575960   5.633824   5.933792   6.249042   5.340364
    27  H    5.758080   5.811582   6.492992   6.816698   6.060871
    28  H    3.424110   3.936121   4.454668   5.339874   5.042240
    29  H    4.854572   5.455365   6.144878   6.976768   6.563923
    30  H    4.615221   5.024519   6.197499   6.927739   6.748690
    31  H    3.008107   3.270601   4.495066   5.264940   5.289345
    32  H    3.477029   4.298391   5.460460   6.525655   6.625616
                    6          7          8          9         10
     6  C    0.000000
     7  C    1.541126   0.000000
     8  C    2.562861   1.540096   0.000000
     9  C    3.956598   2.589478   1.543618   0.000000
    10  C    4.605300   3.207257   2.612883   1.543967   0.000000
    11  C    4.987311   3.897489   3.177151   2.585783   1.537222
    12  O    3.449625   3.743614   4.191988   5.100221   4.777731
    13  H    4.839879   4.400093   4.674300   4.904057   3.928046
    14  H    4.329220   4.624162   5.799923   6.549027   6.073294
    15  H    3.391653   3.262723   4.560364   5.163555   4.780589
    16  H    3.515825   4.414934   5.780222   6.880781   6.917158
    17  H    2.874631   3.984511   5.031070   6.286869   6.385030
    18  H    2.178368   2.670354   4.177284   5.174648   5.545250
    19  H    2.144778   3.433146   4.671457   5.991365   6.554495
    20  H    1.091432   2.146624   2.816248   4.256784   5.198283
    21  H    1.091804   2.177603   2.741350   4.199225   4.734047
    22  H    2.166302   1.087036   2.161092   2.797050   2.844200
    23  H    2.165575   1.091201   2.164977   2.835288   3.573228
    24  H    2.760160   2.167108   1.091008   2.169597   2.861921
    25  H    2.795684   2.155877   1.091250   2.156861   3.525127
    26  H    4.257697   2.818547   2.160566   1.091282   2.161185
    27  H    4.717416   3.507700   2.157586   1.091357   2.158207
    28  H    4.328548   2.922181   2.893644   2.177196   1.090603
    29  H    5.618668   4.159522   3.525835   2.155859   1.091243
    30  H    5.573053   4.543567   3.499317   2.831241   2.183783
    31  H    4.295553   3.472894   2.912926   2.891012   2.188016
    32  H    5.780397   4.700862   4.185945   3.524890   2.178601
                   11         12         13         14         15
    11  C    0.000000
    12  O    4.175306   0.000000
    13  H    3.158764   2.249934   0.000000
    14  H    6.012820   2.995237   3.499810   0.000000
    15  H    5.097260   3.225735   3.428866   1.747908   0.000000
    16  H    7.108655   3.900035   5.256715   2.314006   2.650443
    17  H    6.289944   2.638556   4.535002   2.646731   3.081466
    18  H    6.202665   4.447018   5.473963   3.696555   2.590578
    19  H    6.969293   4.503002   6.129270   4.250501   3.741350
    20  H    5.670912   4.408280   5.867959   5.344164   4.405630
    21  H    4.772738   2.740655   4.442020   4.286516   3.699786
    22  H    3.446519   3.243395   3.508333   3.872783   2.443084
    23  H    4.584211   4.740499   5.239246   5.143081   3.593258
    24  H    2.852709   3.569473   4.203911   5.684245   4.719083
    25  H    4.118715   4.987536   5.710414   6.609082   5.382770
    26  H    3.508015   5.879056   5.664375   6.938360   5.389208
    27  H    2.829455   5.746887   5.561968   7.493959   6.189903
    28  H    2.162564   4.482613   3.533541   5.269494   3.886379
    29  H    2.150632   5.805012   4.709509   6.954598   5.619472
    30  H    1.090644   4.861625   4.039730   6.983216   6.108311
    31  H    1.090249   3.139305   2.496983   5.265552   4.532752
    32  H    1.090207   4.481873   2.926109   6.068516   5.283719
                   16         17         18         19         20
    16  H    0.000000
    17  H    1.727941   0.000000
    18  H    2.480020   3.076564   0.000000
    19  H    2.374333   2.472576   1.729974   0.000000
    20  H    4.219839   3.620407   2.687691   2.275654   0.000000
    21  H    3.697804   2.547145   3.048522   2.670219   1.734173
    22  H    4.160909   3.835472   2.772128   3.803997   3.046739
    23  H    4.744768   4.659092   2.550931   3.598250   2.454569
    24  H    5.818072   4.784081   4.638317   4.889557   3.123123
    25  H    6.262930   5.499368   4.508610   4.765607   2.608385
    26  H    7.119094   6.755192   5.135329   6.113111   4.441138
    27  H    7.814708   7.077001   6.143860   6.805093   4.876678
    28  H    6.201041   5.888626   4.876602   6.071446   5.052427
    29  H    7.881479   7.438941   6.421991   7.533109   6.154901
    30  H    7.972091   7.017112   7.013455   7.643774   6.118253
    31  H    6.301812   5.338640   5.638085   6.223550   5.046761
    32  H    7.474653   6.745094   6.772316   7.640670   6.560091
                   21         22         23         24         25
    21  H    0.000000
    22  H    2.589005   0.000000
    23  H    3.069069   1.735879   0.000000
    24  H    2.488766   2.545859   3.064020   0.000000
    25  H    3.038773   3.052149   2.491622   1.735062   0.000000
    26  H    4.740027   3.110744   2.626321   3.061251   2.491514
    27  H    4.828600   3.811509   3.783465   2.505122   2.416750
    28  H    4.581981   2.276591   3.195255   3.253073   3.885980
    29  H    5.805337   3.812103   4.342908   3.848773   4.303783
    30  H    5.277528   4.293166   5.228938   3.063256   4.248400
    31  H    3.917979   3.015482   4.348804   2.327559   3.885160
    32  H    5.558640   4.057374   5.347942   3.876126   5.168912
                   26         27         28         29         30
    26  H    0.000000
    27  H    1.735483   0.000000
    28  H    2.501589   3.063574   0.000000
    29  H    2.436187   2.469415   1.734161   0.000000
    30  H    3.803477   2.639453   3.075745   2.531038   0.000000
    31  H    3.883316   3.257059   2.523047   3.068789   1.761999
    32  H    4.322150   3.801254   2.505911   2.464478   1.759840
                   31         32
    31  H    0.000000
    32  H    1.758215   0.000000
 Stoichiometry    C10H20O2
 Framework group  C1[X(C10H20O2)]
 Deg. of freedom    90
 Full point group                 C1      NOp   1
 Largest Abelian subgroup         C1      NOp   1
 Largest concise Abelian subgroup C1      NOp   1
                         Standard orientation:                         
 ---------------------------------------------------------------------
 Center     Atomic      Atomic             Coordinates (Angstroms)
 Number     Number       Type             X           Y           Z
 ---------------------------------------------------------------------
      1          8           0        0.538924    2.454874   -0.512300
      2          6           0        1.295627    1.572668    0.173972
      3          6           0        2.256037    0.816451   -0.745925
      4          6           0        2.949825   -0.426510   -0.127628
      5          6           0        2.195561   -1.769469   -0.275353
      6          6           0        0.869684   -1.890503    0.506549
      7          6           0       -0.381435   -1.505105   -0.306617
      8          6           0       -1.663207   -1.501828    0.547167
      9          6           0       -2.932393   -1.069137   -0.217491
     10          6           0       -2.936525    0.385563   -0.734853
     11          6           0       -2.834409    1.446428    0.372932
     12          8           0        1.216126    1.427138    1.385836
     13          1           0       -0.015265    2.855016    0.158222
     14          1           0        3.017745    1.551437   -1.003759
     15          1           0        1.747909    0.554546   -1.673765
     16          1           0        3.916651   -0.546046   -0.620151
     17          1           0        3.196210   -0.254266    0.923096
     18          1           0        2.035158   -1.997103   -1.330730
     19          1           0        2.864015   -2.555325    0.081429
     20          1           0        0.750594   -2.922524    0.841175
     21          1           0        0.926865   -1.297973    1.421794
     22          1           0       -0.242015   -0.524755   -0.755085
     23          1           0       -0.500898   -2.197078   -1.141854
     24          1           0       -1.523249   -0.861062    1.419021
     25          1           0       -1.821790   -2.504175    0.948389
     26          1           0       -3.086848   -1.745786   -1.059624
     27          1           0       -3.798242   -1.213170    0.431060
     28          1           0       -2.132345    0.532178   -1.456805
     29          1           0       -3.858699    0.553004   -1.293754
     30          1           0       -3.636399    1.334060    1.103472
     31          1           0       -1.886037    1.380230    0.906647
     32          1           0       -2.906365    2.451363   -0.043576
 ---------------------------------------------------------------------
 Rotational constants (GHZ):           1.0443267           0.6108681           0.4398927
 Standard basis: 6-31G(d,p) (6D, 7F)
 There are   280 symmetry adapted cartesian basis functions of A   symmetry.
 There are   280 symmetry adapted basis functions of A   symmetry.
   280 basis functions,   476 primitive gaussians,   280 cartesian basis functions
    48 alpha electrons       48 beta electrons
       nuclear repulsion energy       761.3410751023 Hartrees.
 NAtoms=   32 NActive=   32 NUniq=   32 SFac= 1.00D+00 NAtFMM=   60 NAOKFM=F Big=F
 Integral buffers will be    131072 words long.
 Raffenetti 2 integral format.
 Two-electron integral symmetry is turned on.
 Nuclear repulsion after empirical dispersion term =      761.2894508439 Hartrees.
 One-electron integrals computed using PRISM.
 NBasis=   280 RedAO= T EigKep=  3.31D-03  NBF=   280
 NBsUse=   280 1.00D-06 EigRej= -1.00D+00 NBFU=   280
 ExpMin= 1.61D-01 ExpMax= 5.48D+03 ExpMxC= 8.25D+02 IAcc=3 IRadAn=         5 AccDes= 0.00D+00
 Harris functional with IExCor=  402 and IRadAn=       5 diagonalized for initial guess.
 HarFok:  IExCor=  402 AccDes= 0.00D+00 IRadAn=         5 IDoV= 1 UseB2=F ITyADJ=14
 ICtDFT=  3500011 ScaDFX=  1.000000  1.000000  1.000000  1.000000
 FoFCou: FMM=F IPFlag=           0 FMFlag=      100000 FMFlg1=           0
         NFxFlg=           0 DoJE=T BraDBF=F KetDBF=T FulRan=T
         wScrn=  0.000000 ICntrl=       500 IOpCl=  0 I1Cent=   200000004 NGrid=           0
         NMat0=    1 NMatS0=      1 NMatT0=    0 NMatD0=    1 NMtDS0=    0 NMtDT0=    0
 Petite list used in FoFCou.
 Requested convergence on RMS density matrix=1.00D-08 within 128 cycles.
 Requested convergence on MAX density matrix=1.00D-06.
 Requested convergence on             energy=1.00D-06.
 No special actions if energy rises.
 Integral accuracy reduced to 1.0D-05 until final iterations.
 Initial convergence to 1.0D-05 achieved.  Increase integral accuracy.
 SCF Done:  E(RB3LYP) =  -543.665881454     A.U. after   13 cycles
            NFock= 13  Conv=0.76D-08     -V/T= 2.0097

 **********************************************************************

            Population analysis using the SCF Density.

 **********************************************************************

 Orbital symmetries:
       Occupied  (A) (A) (A) (A) (A) (A) (A) (A) (A) (A) (A) (A)
                 (A) (A) (A) (A) (A) (A) (A) (A) (A) (A) (A) (A)
                 (A) (A) (A) (A) (A) (A) (A) (A) (A) (A) (A) (A)
                 (A) (A) (A) (A) (A) (A) (A) (A) (A) (A) (A) (A)
       Virtual   (A) (A) (A) (A) (A) (A) (A) (A) (A) (A) (A) (A)
                 (A) (A) (A) (A) (A) (A) (A) (A) (A) (A) (A) (A)
                 (A) (A) (A) (A) (A) (A) (A) (A) (A) (A) (A) (A)
                 (A) (A) (A) (A) (A) (A) (A) (A) (A) (A) (A) (A)
                 (A) (A) (A) (A) (A) (A) (A) (A) (A) (A) (A) (A)
                 (A) (A) (A) (A) (A) (A) (A) (A) (A) (A) (A) (A)
                 (A) (A) (A) (A) (A) (A) (A) (A) (A) (A) (A) (A)
                 (A) (A) (A) (A) (A) (A) (A) (A) (A) (A) (A) (A)
                 (A) (A) (A) (A) (A) (A) (A) (A) (A) (A) (A) (A)
                 (A) (A) (A) (A) (A) (A) (A) (A) (A) (A) (A) (A)
                 (A) (A) (A) (A) (A) (A) (A) (A) (A) (A) (A) (A)
                 (A) (A) (A) (A) (A) (A) (A) (A) (A) (A) (A) (A)
                 (A) (A) (A) (A) (A) (A) (A) (A) (A) (A) (A) (A)
                 (A) (A) (A) (A) (A) (A) (A) (A) (A) (A) (A) (A)
                 (A) (A) (A) (A) (A) (A) (A) (A) (A) (A) (A) (A)
                 (A) (A) (A) (A) (A) (A) (A) (A) (A) (A) (A) (A)
                 (A) (A) (A) (A) (A) (A) (A) (A) (A) (A) (A) (A)
                 (A) (A) (A) (A) (A) (A) (A) (A) (A) (A) (A) (A)
                 (A) (A) (A) (A) (A) (A) (A) (A) (A) (A) (A) (A)
                 (A) (A) (A) (A)
 The electronic state is 1-A.
 Alpha  occ. eigenvalues --  -19.20101 -19.14109 -10.32381 -10.20196 -10.18559
 Alpha  occ. eigenvalues --  -10.17733 -10.17556 -10.17274 -10.17143 -10.17114
 Alpha  occ. eigenvalues --  -10.17027 -10.16938  -1.11039  -1.01349  -0.80801
 Alpha  occ. eigenvalues --   -0.79239  -0.76185  -0.72818  -0.68875  -0.64884
 Alpha  occ. eigenvalues --   -0.61437  -0.58933  -0.56093  -0.55080  -0.49417
 Alpha  occ. eigenvalues --   -0.48545  -0.48201  -0.46004  -0.45238  -0.43275
 Alpha  occ. eigenvalues --   -0.42665  -0.41666  -0.40777  -0.39716  -0.39125
 Alpha  occ. eigenvalues --   -0.37976  -0.37175  -0.35972  -0.35196  -0.34356
 Alpha  occ. eigenvalues --   -0.33120  -0.32456  -0.32158  -0.31488  -0.31157
 Alpha  occ. eigenvalues --   -0.30374  -0.29500  -0.27474
 Alpha virt. eigenvalues --    0.00701   0.06218   0.08879   0.10087   0.11087
 Alpha virt. eigenvalues --    0.12753   0.13191   0.14296   0.14837   0.15564
 Alpha virt. eigenvalues --    0.15819   0.16346   0.16655   0.17691   0.18099
 Alpha virt. eigenvalues --    0.19574   0.19841   0.20305   0.21108   0.21234
 Alpha virt. eigenvalues --    0.21903   0.23019   0.23456   0.24289   0.24452
 Alpha virt. eigenvalues --    0.26185   0.26407   0.29261   0.29740   0.30503
 Alpha virt. eigenvalues --    0.32328   0.36869   0.48994   0.49736   0.50461
 Alpha virt. eigenvalues --    0.51442   0.52076   0.53260   0.54228   0.55275
 Alpha virt. eigenvalues --    0.57075   0.60057   0.60243   0.61535   0.62256
 Alpha virt. eigenvalues --    0.63636   0.64968   0.65251   0.67233   0.67476
 Alpha virt. eigenvalues --    0.69607   0.70311   0.71481   0.73062   0.74244
 Alpha virt. eigenvalues --    0.75957   0.76864   0.79285   0.80849   0.81702
 Alpha virt. eigenvalues --    0.82823   0.83206   0.84675   0.85867   0.86062
 Alpha virt. eigenvalues --    0.87392   0.88011   0.89220   0.89565   0.90219
 Alpha virt. eigenvalues --    0.91708   0.92343   0.92827   0.93603   0.94338
 Alpha virt. eigenvalues --    0.94978   0.95378   0.95614   0.96927   0.98520
 Alpha virt. eigenvalues --    0.99177   1.00321   1.00851   1.02230   1.07198
 Alpha virt. eigenvalues --    1.08132   1.10922   1.14461   1.15129   1.18326
 Alpha virt. eigenvalues --    1.21102   1.24518   1.29237   1.32190   1.35417
 Alpha virt. eigenvalues --    1.38046   1.38694   1.41867   1.44452   1.48439
 Alpha virt. eigenvalues --    1.49768   1.52269   1.55572   1.56020   1.56714
 Alpha virt. eigenvalues --    1.58550   1.62893   1.65041   1.66214   1.68360
 Alpha virt. eigenvalues --    1.70126   1.71755   1.73739   1.74415   1.75194
 Alpha virt. eigenvalues --    1.77463   1.78274   1.80452   1.81536   1.82095
 Alpha virt. eigenvalues --    1.83158   1.85951   1.86781   1.88459   1.89886
 Alpha virt. eigenvalues --    1.90701   1.92503   1.94106   1.95037   1.95466
 Alpha virt. eigenvalues --    1.97627   1.98731   2.03425   2.05948   2.07155
 Alpha virt. eigenvalues --    2.10683   2.12017   2.12836   2.13875   2.15295
 Alpha virt. eigenvalues --    2.16272   2.17756   2.18482   2.19866   2.21484
 Alpha virt. eigenvalues --    2.22659   2.24056   2.25984   2.26701   2.27253
 Alpha virt. eigenvalues --    2.27930   2.28895   2.30551   2.31027   2.31865
 Alpha virt. eigenvalues --    2.34177   2.36907   2.37723   2.39382   2.40936
 Alpha virt. eigenvalues --    2.41641   2.43664   2.45235   2.47197   2.49723
 Alpha virt. eigenvalues --    2.51061   2.53785   2.54561   2.56631   2.59800
 Alpha virt. eigenvalues --    2.60390   2.61657   2.65444   2.65908   2.67133
 Alpha virt. eigenvalues --    2.68585   2.69405   2.70900   2.72384   2.75526
 Alpha virt. eigenvalues --    2.76020   2.78238   2.79537   2.81315   2.81833
 Alpha virt. eigenvalues --    2.82855   2.85934   2.86723   2.89147   2.89764
 Alpha virt. eigenvalues --    2.89977   2.91846   2.92253   2.92415   2.92779
 Alpha virt. eigenvalues --    2.94450   2.94462   2.96935   3.01246   3.14900
 Alpha virt. eigenvalues --    3.20936   3.26276   3.29826   3.31952   3.32284
 Alpha virt. eigenvalues --    3.33521   3.34934   3.36520   3.38523   3.41478
 Alpha virt. eigenvalues --    3.43658   3.43941   3.46573   3.47659   3.49426
 Alpha virt. eigenvalues --    3.52244   3.54744   3.57987   3.59593   3.62505
 Alpha virt. eigenvalues --    3.95133   4.14463   4.25203   4.30615   4.33159
 Alpha virt. eigenvalues --    4.42723   4.55009   4.60792   4.66328   4.67139
 Alpha virt. eigenvalues --    4.73051   4.76176
          Condensed to atoms (all electrons):
               1          2          3          4          5          6
     1  O    8.121016   0.247916  -0.091460   0.002360   0.000009  -0.000072
     2  C    0.247916   4.384792   0.329041  -0.030360  -0.002154   0.001970
     3  C   -0.091460   0.329041   5.128231   0.342182  -0.039377  -0.001908
     4  C    0.002360  -0.030360   0.342182   4.908530   0.382997  -0.040159
     5  C    0.000009  -0.002154  -0.039377   0.382997   4.909782   0.358532
     6  C   -0.000072   0.001970  -0.001908  -0.040159   0.358532   4.924785
     7  C   -0.000681  -0.000074   0.001119  -0.001975  -0.034351   0.377669
     8  C    0.000022  -0.000065  -0.000077  -0.000030   0.003635  -0.034462
     9  C    0.000004  -0.000017   0.000004   0.000000  -0.000133   0.003556
    10  C   -0.000681   0.000090   0.000007   0.000000  -0.000000   0.000161
    11  C    0.000842  -0.000674  -0.000048   0.000001  -0.000000  -0.000006
    12  O   -0.079985   0.553696  -0.081021   0.000317  -0.000679  -0.001939
    13  H    0.269383  -0.010912   0.010531  -0.000286   0.000005   0.000003
    14  H    0.001512  -0.026916   0.365322  -0.027861   0.003450  -0.000049
    15  H    0.002547  -0.026830   0.367687  -0.037116  -0.005177  -0.000854
    16  H   -0.000052   0.004467  -0.032652   0.369119  -0.034903   0.004971
    17  H    0.000206  -0.006595  -0.039625   0.384763  -0.032243  -0.006956
    18  H   -0.000001  -0.000217  -0.007272  -0.037925   0.382558  -0.044719
    19  H    0.000000  -0.000040   0.005089  -0.034518   0.374701  -0.031885
    20  H   -0.000000  -0.000006  -0.000112   0.004374  -0.033742   0.374298
    21  H    0.000029   0.000639  -0.001309  -0.007311  -0.040773   0.389097
    22  H    0.002085   0.000884  -0.000988   0.000275  -0.001803  -0.044121
    23  H    0.000001   0.000028  -0.000018  -0.000026  -0.004309  -0.035779
    24  H   -0.000039   0.000126   0.000012   0.000009   0.000053  -0.004183
    25  H   -0.000000  -0.000001   0.000000  -0.000003   0.000016  -0.003409
    26  H   -0.000000   0.000000   0.000000   0.000000   0.000000   0.000058
    27  H   -0.000000  -0.000000  -0.000000   0.000000   0.000002  -0.000140
    28  H    0.001372   0.000063  -0.000047  -0.000001   0.000010  -0.000123
    29  H   -0.000000  -0.000001  -0.000000   0.000000  -0.000000  -0.000002
    30  H    0.000036   0.000004   0.000000  -0.000000   0.000000   0.000001
    31  H   -0.000546   0.002007   0.000091  -0.000001   0.000001  -0.000046
    32  H   -0.000025  -0.000052  -0.000001  -0.000000   0.000000   0.000000
               7          8          9         10         11         12
     1  O   -0.000681   0.000022   0.000004  -0.000681   0.000842  -0.079985
     2  C   -0.000074  -0.000065  -0.000017   0.000090  -0.000674   0.553696
     3  C    0.001119  -0.000077   0.000004   0.000007  -0.000048  -0.081021
     4  C   -0.001975  -0.000030   0.000000   0.000000   0.000001   0.000317
     5  C   -0.034351   0.003635  -0.000133  -0.000000  -0.000000  -0.000679
     6  C    0.377669  -0.034462   0.003556   0.000161  -0.000006  -0.001939
     7  C    4.901109   0.375605  -0.038972  -0.004590  -0.001106   0.000415
     8  C    0.375605   4.912377   0.367216  -0.043639  -0.003932  -0.000261
     9  C   -0.038972   0.367216   4.908827   0.382542  -0.046667   0.000001
    10  C   -0.004590  -0.043639   0.382542   4.877503   0.371989   0.000024
    11  C   -0.001106  -0.003932  -0.046667   0.371989   4.940822  -0.000756
    12  O    0.000415  -0.000261   0.000001   0.000024  -0.000756   8.057385
    13  H    0.000004  -0.000010   0.000007  -0.000099   0.000796   0.010040
    14  H    0.000067  -0.000001  -0.000000  -0.000000  -0.000000   0.000284
    15  H    0.000007   0.000018  -0.000001  -0.000017   0.000014   0.002075
    16  H   -0.000068   0.000002  -0.000000   0.000000  -0.000000   0.000262
    17  H   -0.000118   0.000009  -0.000000  -0.000000   0.000000   0.008171
    18  H   -0.008106   0.000209  -0.000001  -0.000001  -0.000000  -0.000010
    19  H    0.004121  -0.000155   0.000002   0.000000   0.000000  -0.000017
    20  H   -0.039177  -0.003936  -0.000043   0.000002  -0.000001   0.000065
    21  H   -0.038882  -0.004150   0.000152  -0.000011  -0.000006   0.006655
    22  H    0.384542  -0.040253  -0.004770   0.002100   0.000383  -0.000655
    23  H    0.380134  -0.038351  -0.002329  -0.000680   0.000055   0.000010
    24  H   -0.040788   0.386261  -0.037885  -0.008024   0.003423   0.000512
    25  H   -0.040082   0.377718  -0.031988   0.004988   0.000059   0.000000
    26  H   -0.006929  -0.038532   0.377330  -0.035460   0.005201  -0.000000
    27  H    0.004626  -0.033103   0.375274  -0.039487  -0.006566  -0.000000
    28  H    0.002228  -0.006685  -0.037732   0.383961  -0.040007  -0.000013
    29  H    0.000140   0.004764  -0.032776   0.382213  -0.040078  -0.000000
    30  H    0.000062  -0.000712  -0.003910  -0.035797   0.384473  -0.000001
    31  H    0.000422   0.001981  -0.005093  -0.033678   0.382071   0.003277
    32  H   -0.000008   0.000136   0.004390  -0.028181   0.378866   0.000005
              13         14         15         16         17         18
     1  O    0.269383   0.001512   0.002547  -0.000052   0.000206  -0.000001
     2  C   -0.010912  -0.026916  -0.026830   0.004467  -0.006595  -0.000217
     3  C    0.010531   0.365322   0.367687  -0.032652  -0.039625  -0.007272
     4  C   -0.000286  -0.027861  -0.037116   0.369119   0.384763  -0.037925
     5  C    0.000005   0.003450  -0.005177  -0.034903  -0.032243   0.382558
     6  C    0.000003  -0.000049  -0.000854   0.004971  -0.006956  -0.044719
     7  C    0.000004   0.000067   0.000007  -0.000068  -0.000118  -0.008106
     8  C   -0.000010  -0.000001   0.000018   0.000002   0.000009   0.000209
     9  C    0.000007  -0.000000  -0.000001  -0.000000  -0.000000  -0.000001
    10  C   -0.000099  -0.000000  -0.000017   0.000000  -0.000000  -0.000001
    11  C    0.000796  -0.000000   0.000014  -0.000000   0.000000  -0.000000
    12  O    0.010040   0.000284   0.002075   0.000262   0.008171  -0.000010
    13  H    0.394926  -0.000435  -0.000310   0.000005  -0.000018   0.000000
    14  H   -0.000435   0.581900  -0.026289  -0.008262   0.000766   0.000043
    15  H   -0.000310  -0.026289   0.581730   0.000235   0.004827   0.004951
    16  H    0.000005  -0.008262   0.000235   0.653111  -0.038084  -0.003831
    17  H   -0.000018   0.000766   0.004827  -0.038084   0.598333   0.005404
    18  H    0.000000   0.000043   0.004951  -0.003831   0.005404   0.649428
    19  H   -0.000000  -0.000171   0.000013  -0.004910  -0.003888  -0.039159
    20  H   -0.000000   0.000004  -0.000013  -0.000220   0.000168   0.001055
    21  H   -0.000009  -0.000008   0.000160   0.000216   0.004050   0.005194
    22  H   -0.000058   0.000134   0.001653  -0.000092   0.000094   0.000132
    23  H    0.000000  -0.000004   0.000079   0.000009   0.000001   0.004770
    24  H   -0.000013  -0.000000  -0.000001   0.000000  -0.000005   0.000013
    25  H    0.000000   0.000000   0.000000  -0.000000   0.000000   0.000003
    26  H   -0.000000   0.000000   0.000000  -0.000000  -0.000000  -0.000001
    27  H    0.000000  -0.000000   0.000000   0.000000   0.000000   0.000000
    28  H   -0.000123  -0.000000   0.000085   0.000000   0.000000   0.000004
    29  H    0.000005   0.000000   0.000000  -0.000000   0.000000  -0.000000
    30  H   -0.000081   0.000000   0.000000   0.000000  -0.000000   0.000000
    31  H    0.003421   0.000002  -0.000034  -0.000000  -0.000001   0.000000
    32  H    0.000981  -0.000000  -0.000000   0.000000  -0.000000   0.000000
              19         20         21         22         23         24
     1  O    0.000000  -0.000000   0.000029   0.002085   0.000001  -0.000039
     2  C   -0.000040  -0.000006   0.000639   0.000884   0.000028   0.000126
     3  C    0.005089  -0.000112  -0.001309  -0.000988  -0.000018   0.000012
     4  C   -0.034518   0.004374  -0.007311   0.000275  -0.000026   0.000009
     5  C    0.374701  -0.033742  -0.040773  -0.001803  -0.004309   0.000053
     6  C   -0.031885   0.374298   0.389097  -0.044121  -0.035779  -0.004183
     7  C    0.004121  -0.039177  -0.038882   0.384542   0.380134  -0.040788
     8  C   -0.000155  -0.003936  -0.004150  -0.040253  -0.038351   0.386261
     9  C    0.000002  -0.000043   0.000152  -0.004770  -0.002329  -0.037885
    10  C    0.000000   0.000002  -0.000011   0.002100  -0.000680  -0.008024
    11  C    0.000000  -0.000001  -0.000006   0.000383   0.000055   0.003423
    12  O   -0.000017   0.000065   0.006655  -0.000655   0.000010   0.000512
    13  H   -0.000000  -0.000000  -0.000009  -0.000058   0.000000  -0.000013
    14  H   -0.000171   0.000004  -0.000008   0.000134  -0.000004  -0.000000
    15  H    0.000013  -0.000013   0.000160   0.001653   0.000079  -0.000001
    16  H   -0.004910  -0.000220   0.000216  -0.000092   0.000009   0.000000
    17  H   -0.003888   0.000168   0.004050   0.000094   0.000001  -0.000005
    18  H   -0.039159   0.001055   0.005194   0.000132   0.004770   0.000013
    19  H    0.648377  -0.010227   0.001040   0.000012   0.000038  -0.000000
    20  H   -0.010227   0.655943  -0.037695   0.006325  -0.007799  -0.000539
    21  H    0.001040  -0.037695   0.601078  -0.004473   0.005555   0.005272
    22  H    0.000012   0.006325  -0.004473   0.648786  -0.044099  -0.005491
    23  H    0.000038  -0.007799   0.005555  -0.044099   0.650880   0.006015
    24  H   -0.000000  -0.000539   0.005272  -0.005491   0.006015   0.628487
    25  H    0.000002   0.004860  -0.000534   0.006255  -0.006784  -0.039841
    26  H    0.000000  -0.000001   0.000008  -0.000374   0.004972   0.006006
    27  H   -0.000000  -0.000001   0.000000   0.000015  -0.000020  -0.003044
    28  H   -0.000000  -0.000001   0.000004   0.002772   0.000314   0.000016
    29  H    0.000000   0.000000  -0.000000  -0.000123  -0.000030   0.000011
    30  H   -0.000000  -0.000000  -0.000001  -0.000002  -0.000001   0.000350
    31  H   -0.000000   0.000002   0.000011   0.000152  -0.000004   0.001832
    32  H    0.000000  -0.000000   0.000000  -0.000028   0.000001  -0.000130
              25         26         27         28         29         30
     1  O   -0.000000  -0.000000  -0.000000   0.001372  -0.000000   0.000036
     2  C   -0.000001   0.000000  -0.000000   0.000063  -0.000001   0.000004
     3  C    0.000000   0.000000  -0.000000  -0.000047  -0.000000   0.000000
     4  C   -0.000003   0.000000   0.000000  -0.000001   0.000000  -0.000000
     5  C    0.000016   0.000000   0.000002   0.000010  -0.000000   0.000000
     6  C   -0.003409   0.000058  -0.000140  -0.000123  -0.000002   0.000001
     7  C   -0.040082  -0.006929   0.004626   0.002228   0.000140   0.000062
     8  C    0.377718  -0.038532  -0.033103  -0.006685   0.004764  -0.000712
     9  C   -0.031988   0.377330   0.375274  -0.037732  -0.032776  -0.003910
    10  C    0.004988  -0.035460  -0.039487   0.383961   0.382213  -0.035797
    11  C    0.000059   0.005201  -0.006566  -0.040007  -0.040078   0.384473
    12  O    0.000000  -0.000000  -0.000000  -0.000013  -0.000000  -0.000001
    13  H    0.000000  -0.000000   0.000000  -0.000123   0.000005  -0.000081
    14  H    0.000000   0.000000  -0.000000  -0.000000   0.000000   0.000000
    15  H    0.000000   0.000000   0.000000   0.000085   0.000000   0.000000
    16  H   -0.000000  -0.000000   0.000000   0.000000  -0.000000   0.000000
    17  H    0.000000  -0.000000   0.000000   0.000000   0.000000  -0.000000
    18  H    0.000003  -0.000001   0.000000   0.000004  -0.000000   0.000000
    19  H    0.000002   0.000000  -0.000000  -0.000000   0.000000  -0.000000
    20  H    0.004860  -0.000001  -0.000001  -0.000001   0.000000  -0.000000
    21  H   -0.000534   0.000008   0.000000   0.000004  -0.000000  -0.000001
    22  H    0.006255  -0.000374   0.000015   0.002772  -0.000123  -0.000002
    23  H   -0.006784   0.004972  -0.000020   0.000314  -0.000030  -0.000001
    24  H   -0.039841   0.006006  -0.003044   0.000016   0.000011   0.000350
    25  H    0.650076  -0.003731  -0.004233  -0.000023  -0.000163  -0.000038
    26  H   -0.003731   0.652398  -0.039393  -0.003580  -0.003577   0.000007
    27  H   -0.004233  -0.039393   0.653561   0.006071  -0.004343   0.005028
    28  H   -0.000023  -0.003580   0.006071   0.635552  -0.039237   0.005591
    29  H   -0.000163  -0.003577  -0.004343  -0.039237   0.646012  -0.004504
    30  H   -0.000038   0.000007   0.005028   0.005591  -0.004504   0.608558
    31  H   -0.000100  -0.000007  -0.000254  -0.005195   0.005441  -0.031640
    32  H   -0.000001  -0.000182  -0.000010  -0.002507  -0.004156  -0.032388
              31         32
     1  O   -0.000546  -0.000025
     2  C    0.002007  -0.000052
     3  C    0.000091  -0.000001
     4  C   -0.000001  -0.000000
     5  C    0.000001   0.000000
     6  C   -0.000046   0.000000
     7  C    0.000422  -0.000008
     8  C    0.001981   0.000136
     9  C   -0.005093   0.004390
    10  C   -0.033678  -0.028181
    11  C    0.382071   0.378866
    12  O    0.003277   0.000005
    13  H    0.003421   0.000981
    14  H    0.000002  -0.000000
    15  H   -0.000034  -0.000000
    16  H   -0.000000   0.000000
    17  H   -0.000001  -0.000000
    18  H    0.000000   0.000000
    19  H   -0.000000   0.000000
    20  H    0.000002  -0.000000
    21  H    0.000011   0.000000
    22  H    0.000152  -0.000028
    23  H   -0.000004   0.000001
    24  H    0.001832  -0.000130
    25  H   -0.000100  -0.000001
    26  H   -0.000007  -0.000182
    27  H   -0.000254  -0.000010
    28  H   -0.005195  -0.002507
    29  H    0.005441  -0.004156
    30  H   -0.031640  -0.032388
    31  H    0.602342  -0.034685
    32  H   -0.034685   0.624508
 Mulliken charges:
               1
     1  O   -0.475798
     2  C    0.579190
     3  C   -0.253402
     4  C   -0.177356
     5  C   -0.186106
     6  C   -0.184288
     7  C   -0.176364
     8  C   -0.181599
     9  C   -0.176989
    10  C   -0.175236
    11  C   -0.329146
    12  O   -0.477858
    13  H    0.322248
    14  H    0.136515
    15  H    0.130560
    16  H    0.090676
    17  H    0.120742
    18  H    0.087477
    19  H    0.091577
    20  H    0.086418
    21  H    0.115999
    22  H    0.090732
    23  H    0.087369
    24  H    0.101585
    25  H    0.086952
    26  H    0.085785
    27  H    0.086017
    28  H    0.097231
    29  H    0.090406
    30  H    0.104965
    31  H    0.108233
    32  H    0.093466
 Sum of Mulliken charges =  -0.00000
 Mulliken charges with hydrogens summed into heavy atoms:
               1
     1  O   -0.153550
     2  C    0.579190
     3  C    0.013673
     4  C    0.034062
     5  C   -0.007052
     6  C    0.018128
     7  C    0.001737
     8  C    0.006938
     9  C   -0.005188
    10  C    0.012401
    11  C   -0.022483
    12  O   -0.477858
 Electronic spatial extent (au):  <R**2>=           2731.6434
 Charge=              0.0000 electrons
 Dipole moment (field-independent basis, Debye):
    X=              0.1214    Y=              0.1650    Z=             -1.3217  Tot=              1.3375
 Quadrupole moment (field-independent basis, Debye-Ang):
   XX=            -72.9628   YY=            -73.2999   ZZ=            -80.2285
   XY=             -1.3288   XZ=             -3.1220   YZ=             -0.4280
 Traceless Quadrupole moment (field-independent basis, Debye-Ang):
   XX=              2.5343   YY=              2.1972   ZZ=             -4.7315
   XY=             -1.3288   XZ=             -3.1220   YZ=             -0.4280
 Octapole moment (field-independent basis, Debye-Ang**2):
  XXX=             18.9216  YYY=             29.1501  ZZZ=             -3.0093  XYY=              0.0819
  XXY=              8.5190  XXZ=             -2.9616  XZZ=             -0.8330  YZZ=             -1.6571
  YYZ=              5.2310  XYZ=             -3.8831
 Hexadecapole moment (field-independent basis, Debye-Ang**3):
 XXXX=          -2164.8183 YYYY=          -1083.0755 ZZZZ=           -315.1437 XXXY=             21.6093
 XXXZ=             -7.2878 YYYX=              0.8318 YYYZ=             17.9418 ZZZX=             -2.6045
 ZZZY=             -3.7259 XXYY=           -552.5362 XXZZ=           -420.0683 YYZZ=           -254.2709
 XXYZ=             -9.3335 YYXZ=              1.3234 ZZXY=             -1.7569
 N-N= 7.612894508439D+02 E-N=-2.785922253701D+03  KE= 5.384677849821D+02
 Calling FoFJK, ICntrl=      2127 FMM=F ISym2X=0 I1Cent= 0 IOpClX= 0 NMat=1 NMatS=1 NMatT=0.
 ***** Axes restored to original set *****
 -------------------------------------------------------------------
 Center     Atomic                   Forces (Hartrees/Bohr)
 Number     Number              X              Y              Z
 -------------------------------------------------------------------
      1        8          -0.002332294   -0.006424570    0.008440574
      2        6          -0.020885187    0.001157455    0.010803008
      3        6          -0.009507081    0.009751659    0.000030898
      4        6           0.000559783   -0.006031038   -0.004538423
      5        6          -0.000766676    0.009857688   -0.001789244
      6        6           0.003657403   -0.006038904   -0.001084678
      7        6          -0.005162001    0.010741275   -0.002591115
      8        6           0.005981616   -0.006064150    0.000051038
      9        6           0.003058843    0.003952290    0.004320344
     10        6          -0.004651241    0.004421130   -0.000840278
     11        6          -0.000753341   -0.005277093    0.003379845
     12        8           0.012263798   -0.012908166   -0.000350807
     13        1           0.003160319    0.009288646   -0.013917691
     14        1           0.005369263   -0.000470194    0.003002196
     15        1           0.002042552   -0.001734237   -0.002046306
     16        1           0.002824838   -0.002491951    0.002262542
     17        1           0.001261476    0.001982987   -0.005290985
     18        1           0.003198598   -0.003805876   -0.001559620
     19        1          -0.001142053    0.001454517    0.003794164
     20        1          -0.003797400   -0.002123277   -0.000211649
     21        1           0.003141115    0.002386415   -0.001135307
     22        1           0.006064561    0.001606675   -0.000193787
     23        1          -0.001290195   -0.004380427    0.000806915
     24        1           0.002000529    0.003798639    0.000844935
     25        1          -0.004153920   -0.001398176    0.000000552
     26        1           0.000250261   -0.004525399    0.001403394
     27        1          -0.001538443    0.002498906   -0.003640210
     28        1           0.001407612   -0.000111166    0.004114903
     29        1           0.000121428   -0.002230883   -0.003314629
     30        1          -0.001954061    0.001169446   -0.002130575
     31        1          -0.001861010    0.002052401    0.002354008
     32        1           0.003430909   -0.000104622   -0.000974010
 -------------------------------------------------------------------
 Cartesian Forces:  Max     0.020885187 RMS     0.005018682

 GradGradGradGradGradGradGradGradGradGradGradGradGradGradGradGradGradGrad
 Berny optimization.
 FormGI is forming the generalized inverse of G from B-inverse, IUseBI=4.
 Internal  Forces:  Max     0.017360754 RMS     0.003677773
 Search for a local minimum.
 Step number   1 out of a maximum of  179
 All quantities printed in internal units (Hartrees-Bohrs-Radians)
 Mixed Optimization -- RFO/linear search
 Second derivative matrix not updated -- first step.
 ITU=  0
     Eigenvalues ---    0.00230   0.00230   0.00230   0.00230   0.00230
     Eigenvalues ---    0.00230   0.00236   0.00274   0.00371   0.00848
     Eigenvalues ---    0.02356   0.03020   0.03038   0.03120   0.03220
     Eigenvalues ---    0.03236   0.03254   0.03397   0.03572   0.04651
     Eigenvalues ---    0.04656   0.04662   0.04679   0.04681   0.04697
     Eigenvalues ---    0.04714   0.05207   0.05371   0.05455   0.08293
     Eigenvalues ---    0.08571   0.08577   0.08582   0.08803   0.08887
     Eigenvalues ---    0.08908   0.09867   0.12189   0.12393   0.12397
     Eigenvalues ---    0.12405   0.12552   0.12634   0.12651   0.13171
     Eigenvalues ---    0.16000   0.16000   0.16000   0.16000   0.21868
     Eigenvalues ---    0.21889   0.21890   0.21895   0.21910   0.21919
     Eigenvalues ---    0.21927   0.22007   0.24998   0.25000   0.27485
     Eigenvalues ---    0.27878   0.28167   0.28170   0.28201   0.28419
     Eigenvalues ---    0.28510   0.28766   0.29437   0.34482   0.34605
     Eigenvalues ---    0.34623   0.34627   0.34640   0.34648   0.34656
     Eigenvalues ---    0.34665   0.34669   0.34669   0.34674   0.34696
     Eigenvalues ---    0.34738   0.34743   0.34784   0.34789   0.34835
     Eigenvalues ---    0.34877   0.35157   0.55072   0.56011   0.93998
 RFO step:  Lambda=-1.42523332D-02 EMin= 2.30000000D-03
 Linear search not attempted -- first point.
 Iteration  1 RMS(Cart)=  0.34872047 RMS(Int)=  0.01480218
 Iteration  2 RMS(Cart)=  0.06647073 RMS(Int)=  0.00083990
 Iteration  3 RMS(Cart)=  0.00195787 RMS(Int)=  0.00053668
 Iteration  4 RMS(Cart)=  0.00000345 RMS(Int)=  0.00053668
 Iteration  5 RMS(Cart)=  0.00000000 RMS(Int)=  0.00053668
 Variable       Old X    -DE/DX   Delta X   Delta X   Delta X     New X
                                 (Linear)    (Quad)   (Total)
    R1        2.55068   0.00319   0.00000   0.00564   0.00564   2.55632
    R2        1.80945   0.01640   0.00000   0.02855   0.02855   1.83799
    R3        2.89101  -0.00988   0.00000  -0.03201  -0.03201   2.85900
    R4        2.31143  -0.01736   0.00000  -0.01819  -0.01819   2.29324
    R5        2.93278  -0.01144   0.00000  -0.03958  -0.03958   2.89321
    R6        2.05874   0.00574   0.00000   0.01581   0.01581   2.07455
    R7        2.05943   0.00258   0.00000   0.00711   0.00711   2.06655
    R8        2.92406  -0.00908   0.00000  -0.03100  -0.03100   2.89306
    R9        2.06285   0.00336   0.00000   0.00931   0.00931   2.07216
   R10        2.06525   0.00118   0.00000   0.00330   0.00330   2.06855
   R11        2.91776  -0.00254   0.00000  -0.00857  -0.00857   2.90919
   R12        2.06263   0.00452   0.00000   0.01252   0.01252   2.07515
   R13        2.06292   0.00353   0.00000   0.00978   0.00978   2.07270
   R14        2.91231  -0.00548   0.00000  -0.01835  -0.01835   2.89396
   R15        2.06251   0.00415   0.00000   0.01150   0.01150   2.07401
   R16        2.06321   0.00271   0.00000   0.00752   0.00752   2.07073
   R17        2.91036  -0.00595   0.00000  -0.01989  -0.01989   2.89048
   R18        2.05420   0.00619   0.00000   0.01693   0.01693   2.07113
   R19        2.06207   0.00460   0.00000   0.01275   0.01275   2.07482
   R20        2.91701  -0.00554   0.00000  -0.01871  -0.01871   2.89830
   R21        2.06171   0.00391   0.00000   0.01082   0.01082   2.07252
   R22        2.06216   0.00432   0.00000   0.01196   0.01196   2.07413
   R23        2.91767  -0.00453   0.00000  -0.01529  -0.01529   2.90238
   R24        2.06222   0.00453   0.00000   0.01256   0.01256   2.07478
   R25        2.06237   0.00445   0.00000   0.01235   0.01235   2.07471
   R26        2.90493  -0.00278   0.00000  -0.00921  -0.00921   2.89572
   R27        2.06094   0.00400   0.00000   0.01105   0.01105   2.07199
   R28        2.06215   0.00384   0.00000   0.01063   0.01063   2.07278
   R29        2.06102   0.00307   0.00000   0.00850   0.00850   2.06951
   R30        2.06027   0.00344   0.00000   0.00950   0.00950   2.06977
   R31        2.06019   0.00352   0.00000   0.00973   0.00973   2.06993
    A1        1.81478   0.00830   0.00000   0.04762   0.04762   1.86240
    A2        1.94905   0.00047   0.00000   0.00188   0.00182   1.95088
    A3        2.14727  -0.00480   0.00000  -0.01807  -0.01813   2.12914
    A4        2.18675   0.00433   0.00000   0.01647   0.01641   2.20316
    A5        2.02303  -0.00846   0.00000  -0.03785  -0.03854   1.98449
    A6        1.82115   0.00496   0.00000   0.04665   0.04720   1.86835
    A7        1.91561  -0.00066   0.00000  -0.03453  -0.03544   1.88017
    A8        1.89869   0.00297   0.00000   0.03564   0.03589   1.93458
    A9        1.93387   0.00380   0.00000   0.00246   0.00075   1.93462
   A10        1.86151  -0.00214   0.00000  -0.00622  -0.00589   1.85562
   A11        2.02546  -0.01038   0.00000  -0.05479  -0.05598   1.96948
   A12        1.87956   0.00173   0.00000   0.01679   0.01799   1.89756
   A13        1.93648   0.00113   0.00000  -0.02657  -0.02876   1.90772
   A14        1.86881   0.00577   0.00000   0.05202   0.05249   1.92130
   A15        1.91609   0.00257   0.00000  -0.01094  -0.01393   1.90215
   A16        1.82489   0.00043   0.00000   0.03759   0.03767   1.86256
   A17        2.02448  -0.01227   0.00000  -0.06009  -0.06093   1.96355
   A18        1.92298   0.00173   0.00000  -0.02088  -0.02262   1.90036
   A19        1.87036   0.00403   0.00000   0.03176   0.03284   1.90320
   A20        1.92528   0.00380   0.00000  -0.00239  -0.00493   1.92035
   A21        1.87956   0.00485   0.00000   0.04187   0.04253   1.92210
   A22        1.82954  -0.00096   0.00000   0.02115   0.02115   1.85069
   A23        1.99360  -0.00119   0.00000  -0.00972  -0.01077   1.98283
   A24        1.89978   0.00104   0.00000   0.02773   0.02750   1.92729
   A25        1.91453   0.00003   0.00000  -0.02228  -0.02364   1.89088
   A26        1.88563   0.00216   0.00000   0.03389   0.03386   1.91948
   A27        1.92742  -0.00267   0.00000  -0.04362  -0.04450   1.88292
   A28        1.83575   0.00090   0.00000   0.01873   0.01950   1.85526
   A29        1.96457   0.00064   0.00000   0.00165   0.00149   1.96606
   A30        1.91675  -0.00097   0.00000  -0.01515  -0.01525   1.90150
   A31        1.91152   0.00032   0.00000   0.01079   0.01072   1.92224
   A32        1.91085  -0.00084   0.00000  -0.01404  -0.01414   1.89670
   A33        1.91194   0.00034   0.00000   0.01121   0.01113   1.92307
   A34        1.84435   0.00050   0.00000   0.00585   0.00597   1.85033
   A35        1.99356  -0.00196   0.00000  -0.01126  -0.01149   1.98206
   A36        1.91505  -0.00089   0.00000  -0.01984  -0.02011   1.89494
   A37        1.89950   0.00108   0.00000   0.01401   0.01408   1.91359
   A38        1.91421   0.00048   0.00000  -0.00806  -0.00849   1.90573
   A39        1.89665   0.00118   0.00000   0.01666   0.01668   1.91333
   A40        1.83827   0.00032   0.00000   0.01097   0.01111   1.84938
   A41        2.01783  -0.00605   0.00000  -0.03024  -0.03032   1.98751
   A42        1.90164   0.00223   0.00000   0.00950   0.00938   1.91102
   A43        1.89753   0.00144   0.00000   0.00345   0.00335   1.90088
   A44        1.90206   0.00117   0.00000   0.00110   0.00108   1.90314
   A45        1.89795   0.00185   0.00000   0.00555   0.00546   1.90341
   A46        1.83845  -0.00015   0.00000   0.01474   0.01466   1.85310
   A47        1.99168  -0.00135   0.00000  -0.00854  -0.00863   1.98304
   A48        1.92464   0.00029   0.00000  -0.00622  -0.00640   1.91824
   A49        1.89489  -0.00013   0.00000   0.00223   0.00226   1.89716
   A50        1.91271  -0.00052   0.00000  -0.01106  -0.01120   1.90150
   A51        1.89582   0.00143   0.00000   0.01459   0.01463   1.91045
   A52        1.83740   0.00046   0.00000   0.01119   0.01125   1.84865
   A53        1.94202  -0.00025   0.00000  -0.00325  -0.00326   1.93875
   A54        1.94836  -0.00012   0.00000  -0.00080  -0.00081   1.94755
   A55        1.93525  -0.00028   0.00000   0.00030   0.00030   1.93555
   A56        1.88125  -0.00031   0.00000  -0.00532  -0.00533   1.87591
   A57        1.87794   0.00031   0.00000   0.00194   0.00195   1.87989
   A58        1.87592   0.00070   0.00000   0.00743   0.00743   1.88334
    D1        3.13561   0.00006   0.00000  -0.00134  -0.00117   3.13445
    D2       -0.02139   0.00057   0.00000   0.01795   0.01778  -0.00361
    D3       -2.91903   0.00186   0.00000   0.05487   0.05427  -2.86476
    D4        1.27691  -0.00053   0.00000  -0.00093  -0.00101   1.27590
    D5       -0.71218  -0.00030   0.00000  -0.00224  -0.00141  -0.71359
    D6        0.23840   0.00144   0.00000   0.03543   0.03473   0.27312
    D7       -1.84885  -0.00095   0.00000  -0.02037  -0.02055  -1.86941
    D8        2.44524  -0.00072   0.00000  -0.02168  -0.02095   2.42429
    D9        1.55657  -0.00607   0.00000  -0.17927  -0.17854   1.37803
   D10       -2.63342  -0.00408   0.00000  -0.13526  -0.13504  -2.76846
   D11       -0.64601  -0.00201   0.00000  -0.09492  -0.09548  -0.74149
   D12       -2.68210  -0.00292   0.00000  -0.11784  -0.11735  -2.79945
   D13       -0.58890  -0.00093   0.00000  -0.07384  -0.07385  -0.66275
   D14        1.39850   0.00114   0.00000  -0.03350  -0.03429   1.36422
   D15       -0.64105  -0.00155   0.00000  -0.10262  -0.10205  -0.74310
   D16        1.45215   0.00044   0.00000  -0.05862  -0.05856   1.39360
   D17       -2.84363   0.00251   0.00000  -0.01828  -0.01899  -2.86262
   D18       -1.17435   0.00269   0.00000   0.05465   0.05348  -1.12086
   D19        1.02828  -0.00054   0.00000  -0.01568  -0.01563   1.01265
   D20        3.00930   0.00134   0.00000   0.01580   0.01527   3.02457
   D21        3.00983   0.00282   0.00000   0.02944   0.02916   3.03899
   D22       -1.07072  -0.00041   0.00000  -0.04090  -0.03996  -1.11068
   D23        0.91029   0.00147   0.00000  -0.00941  -0.00905   0.90124
   D24        1.03847  -0.00194   0.00000  -0.03626  -0.03667   1.00181
   D25       -3.04208  -0.00517   0.00000  -0.10659  -0.10578   3.13532
   D26       -1.06107  -0.00329   0.00000  -0.07511  -0.07488  -1.13594
   D27        1.63088  -0.00572   0.00000  -0.18231  -0.18182   1.44907
   D28       -2.54352  -0.00297   0.00000  -0.12512  -0.12464  -2.66816
   D29       -0.54358  -0.00131   0.00000  -0.09957  -0.09937  -0.64295
   D30       -0.57059  -0.00142   0.00000  -0.10250  -0.10253  -0.67311
   D31        1.53819   0.00132   0.00000  -0.04532  -0.04535   1.49284
   D32       -2.74505   0.00298   0.00000  -0.01977  -0.02008  -2.76513
   D33       -2.55774  -0.00487   0.00000  -0.14915  -0.14932  -2.70706
   D34       -0.44896  -0.00213   0.00000  -0.09197  -0.09214  -0.54110
   D35        1.55098  -0.00047   0.00000  -0.06642  -0.06687   1.48411
   D36       -3.04026   0.00277   0.00000   0.07400   0.07374  -2.96652
   D37       -0.90651   0.00143   0.00000   0.04623   0.04602  -0.86050
   D38        1.11153   0.00167   0.00000   0.05085   0.05056   1.16209
   D39        1.12631   0.00065   0.00000   0.02041   0.02018   1.14649
   D40       -3.02314  -0.00069   0.00000  -0.00736  -0.00754  -3.03068
   D41       -1.00509  -0.00045   0.00000  -0.00274  -0.00299  -1.00809
   D42       -0.87268  -0.00022   0.00000   0.00222   0.00269  -0.86999
   D43        1.26107  -0.00156   0.00000  -0.02555  -0.02504   1.23603
   D44       -3.00408  -0.00132   0.00000  -0.02093  -0.02049  -3.02457
   D45        3.10348  -0.00224   0.00000  -0.07186  -0.07176   3.03171
   D46        0.94609  -0.00075   0.00000  -0.03759  -0.03771   0.90838
   D47       -1.05699  -0.00125   0.00000  -0.04767  -0.04764  -1.10462
   D48        0.96640  -0.00084   0.00000  -0.04352  -0.04346   0.92294
   D49       -1.19099   0.00065   0.00000  -0.00924  -0.00941  -1.20039
   D50        3.08913   0.00015   0.00000  -0.01933  -0.01933   3.06979
   D51       -1.04855  -0.00116   0.00000  -0.04895  -0.04882  -1.09737
   D52        3.07724   0.00034   0.00000  -0.01467  -0.01476   3.06248
   D53        1.07417  -0.00017   0.00000  -0.02475  -0.02469   1.04949
   D54       -1.11917   0.00143   0.00000   0.03808   0.03808  -1.08109
   D55        1.02923   0.00039   0.00000   0.02526   0.02518   1.05441
   D56        3.02428   0.00216   0.00000   0.04950   0.04947   3.07375
   D57        1.03867  -0.00079   0.00000  -0.00252  -0.00245   1.03622
   D58       -3.09611  -0.00183   0.00000  -0.01535  -0.01535  -3.11146
   D59       -1.10106  -0.00007   0.00000   0.00890   0.00894  -1.09212
   D60        3.03972   0.00049   0.00000   0.01535   0.01538   3.05510
   D61       -1.09506  -0.00055   0.00000   0.00252   0.00249  -1.09258
   D62        0.89999   0.00122   0.00000   0.02677   0.02677   0.92676
   D63       -1.07053   0.00121   0.00000   0.03260   0.03261  -1.03793
   D64        1.09098  -0.00025   0.00000   0.00669   0.00674   1.09772
   D65        3.09564   0.00038   0.00000   0.01796   0.01798   3.11362
   D66        3.06447   0.00170   0.00000   0.04100   0.04095   3.10542
   D67       -1.05720   0.00023   0.00000   0.01509   0.01509  -1.04211
   D68        0.94746   0.00086   0.00000   0.02636   0.02633   0.97379
   D69        1.06897   0.00027   0.00000   0.02006   0.02004   1.08901
   D70       -3.05270  -0.00119   0.00000  -0.00585  -0.00582  -3.05852
   D71       -1.04804  -0.00056   0.00000   0.00542   0.00542  -1.04262
   D72       -0.98850  -0.00016   0.00000  -0.01011  -0.01007  -0.99857
   D73        1.11404  -0.00081   0.00000  -0.01968  -0.01964   1.09440
   D74       -3.07799  -0.00019   0.00000  -0.01061  -0.01057  -3.08856
   D75        3.12676   0.00086   0.00000   0.01303   0.01298   3.13974
   D76       -1.05388   0.00021   0.00000   0.00346   0.00341  -1.05047
   D77        1.03727   0.00083   0.00000   0.01253   0.01249   1.04975
   D78        1.12800  -0.00018   0.00000  -0.00232  -0.00232   1.12568
   D79       -3.05264  -0.00083   0.00000  -0.01189  -0.01188  -3.06453
   D80       -0.96149  -0.00021   0.00000  -0.00281  -0.00281  -0.96430
         Item               Value     Threshold  Converged?
 Maximum Force            0.017361     0.000450     NO 
 RMS     Force            0.003678     0.000300     NO 
 Maximum Displacement     1.673566     0.001800     NO 
 RMS     Displacement     0.399764     0.001200     NO 
 Predicted change in Energy=-9.224213D-03
 GradGradGradGradGradGradGradGradGradGradGradGradGradGradGradGradGradGrad

                          Input orientation:                          
 ---------------------------------------------------------------------
 Center     Atomic      Atomic             Coordinates (Angstroms)
 Number     Number       Type             X           Y           Z
 ---------------------------------------------------------------------
      1          8           0        4.954280   -2.017067   -2.609634
      2          6           0        4.123327   -1.468064   -1.694190
      3          6           0        4.309871   -2.085039   -0.325446
      4          6           0        3.161976   -1.790713    0.643951
      5          6           0        1.937492   -2.677148    0.401782
      6          6           0        1.293832   -2.429601   -0.974592
      7          6           0        1.974236   -3.191235   -2.115733
      8          6           0        1.483188   -2.747878   -3.494827
      9          6           0        2.257205   -3.385288   -4.655384
     10          6           0        3.750930   -3.028574   -4.676623
     11          6           0        4.021428   -1.524469   -4.788830
     12          8           0        3.336654   -0.590791   -1.984349
     13          1           0        4.769140   -1.575013   -3.455983
     14          1           0        5.261878   -1.708082    0.070488
     15          1           0        4.438429   -3.162576   -0.460661
     16          1           0        3.525296   -1.922649    1.670102
     17          1           0        2.866587   -0.741161    0.547027
     18          1           0        2.237057   -3.729670    0.493043
     19          1           0        1.204590   -2.500533    1.198453
     20          1           0        0.224077   -2.673290   -0.946558
     21          1           0        1.359572   -1.358937   -1.198415
     22          1           0        3.056172   -3.025848   -2.058611
     23          1           0        1.825927   -4.271848   -1.990161
     24          1           0        1.567731   -1.656443   -3.561473
     25          1           0        0.414062   -2.974543   -3.596187
     26          1           0        2.150252   -4.477100   -4.611235
     27          1           0        1.800150   -3.071279   -5.602940
     28          1           0        4.239141   -3.411656   -3.772689
     29          1           0        4.224789   -3.548853   -5.517981
     30          1           0        3.549552   -1.105032   -5.683668
     31          1           0        3.629468   -0.978915   -3.923745
     32          1           0        5.096409   -1.324604   -4.854233
 ---------------------------------------------------------------------
                    Distance matrix (angstroms):
                    1          2          3          4          5
     1  O    0.000000
     2  C    1.352748   0.000000
     3  C    2.374321   1.512916   0.000000
     4  C    3.721479   2.548568   1.531019   0.000000
     5  C    4.313392   3.260806   2.551007   1.530939   0.000000
     6  C    4.030189   3.073827   3.104288   2.553003   1.539475
     7  C    3.240876   2.786685   3.143881   3.314822   2.569731
     8  C    3.655972   3.442464   4.298194   4.567711   3.923641
[...]
 Alpha virt. eigenvalues --    4.07251   4.09864   4.10261   4.16607   4.20810
 Alpha virt. eigenvalues --    4.22450   4.25244   4.27828   4.31194   4.33195
 Alpha virt. eigenvalues --    4.36622   4.37329   4.40146   4.41523   4.45636
 Alpha virt. eigenvalues --    4.46319   4.51172   4.52376   4.53741   4.55698
 Alpha virt. eigenvalues --    4.57260   4.58479   4.60698   4.62941   4.64725
 Alpha virt. eigenvalues --    4.67148   4.67510   4.72802   4.74332   4.76804
 Alpha virt. eigenvalues --    4.78987   4.82451   4.84635   4.86171   4.89250
 Alpha virt. eigenvalues --    4.92592   5.06825   5.08699   5.17443   5.22448
 Alpha virt. eigenvalues --    5.22793   5.39993   5.40907   5.51249   5.59506
 Alpha virt. eigenvalues --    5.75700   5.85619   5.87794   6.15248   6.20621
 Alpha virt. eigenvalues --    6.34487   6.35210   6.45771   6.49818   6.65303
 Alpha virt. eigenvalues --    6.72030   6.75821   6.85160   6.90179   7.08832
 Alpha virt. eigenvalues --    7.09813   7.28155  22.47015  22.54444  22.58807
 Alpha virt. eigenvalues --   22.59462  22.60214  22.62874  22.63255  22.64329
 Alpha virt. eigenvalues --   22.66162  23.32073  44.03849  44.12041
          Condensed to atoms (all electrons):
               1          2          3          4          5          6
     1  O    7.953123   0.337473  -0.118715   0.009571   0.000508   0.000664
     2  C    0.337473   4.602845   0.231091  -0.019385  -0.000518   0.004606
     3  C   -0.118715   0.231091   5.440636   0.160654  -0.023993   0.010544
     4  C    0.009571  -0.019385   0.160654   5.195491   0.238542  -0.024944
     5  C    0.000508  -0.000518  -0.023993   0.238542   5.179955   0.203624
     6  C    0.000664   0.004606   0.010544  -0.024944   0.203624   5.320667
     7  C   -0.009558   0.013134  -0.002612  -0.004153  -0.026595   0.175155
     8  C   -0.000394  -0.001062   0.001375  -0.001177   0.009877  -0.032524
     9  C   -0.000469  -0.002375   0.000579   0.000005  -0.000845   0.009793
    10  C   -0.005091  -0.001462  -0.000674   0.000101   0.000108  -0.002122
    11  C    0.008739   0.009809  -0.000970  -0.000070   0.000134   0.000850
    12  O   -0.087992   0.626661  -0.103134   0.018079  -0.003037  -0.005902
    13  H    0.288818  -0.026125   0.017780  -0.001267  -0.000085   0.000183
    14  H    0.002545  -0.020122   0.395814  -0.031607   0.005362  -0.000767
    15  H    0.005112  -0.038723   0.412632  -0.045109   0.003634  -0.003368
    16  H   -0.000124   0.007211  -0.049038   0.434970  -0.049188   0.009664
    17  H    0.000421  -0.006207  -0.041804   0.429718  -0.036556  -0.011503
    18  H   -0.000078  -0.000442  -0.010059  -0.040838   0.435950  -0.064315
    19  H    0.000015  -0.000322   0.009006  -0.050677   0.440155  -0.047077
    20  H   -0.000018   0.000587  -0.000996   0.006348  -0.036207   0.418349
    21  H    0.000189  -0.005277  -0.002874   0.002074  -0.051222   0.438768
    22  H    0.005956  -0.000051  -0.003879  -0.004472   0.008962  -0.076260
    23  H    0.000059  -0.000647  -0.000473   0.001415  -0.008359  -0.028428
    24  H    0.000118  -0.000451   0.000115  -0.000080  -0.000325  -0.001241
    25  H   -0.000038   0.000110  -0.000058   0.000006   0.000097  -0.005879
    26  H    0.000010   0.000073   0.000028  -0.000012   0.000027  -0.000073
    27  H   -0.000013  -0.000023  -0.000012   0.000002   0.000024  -0.000811
    28  H    0.005410  -0.002815  -0.000499   0.000059   0.000028   0.000554
    29  H    0.000275   0.000218   0.000001  -0.000002   0.000002   0.000073
    30  H    0.000392  -0.000152   0.000012  -0.000002   0.000000   0.000014
    31  H   -0.006757   0.007815   0.001825  -0.000154   0.000049   0.000311
    32  H   -0.001789  -0.001709  -0.000109   0.000011  -0.000005  -0.000033
               7          8          9         10         11         12
     1  O   -0.009558  -0.000394  -0.000469  -0.005091   0.008739  -0.087992
     2  C    0.013134  -0.001062  -0.002375  -0.001462   0.009809   0.626661
     3  C   -0.002612   0.001375   0.000579  -0.000674  -0.000970  -0.103134
     4  C   -0.004153  -0.001177   0.000005   0.000101  -0.000070   0.018079
     5  C   -0.026595   0.009877  -0.000845   0.000108   0.000134  -0.003037
     6  C    0.175155  -0.032524   0.009793  -0.002122   0.000850  -0.005902
     7  C    5.415678   0.138116  -0.039990   0.039058  -0.017151   0.006098
     8  C    0.138116   5.366898   0.201616  -0.091154   0.044851  -0.001558
     9  C   -0.039990   0.201616   5.210586   0.244190  -0.068343   0.000143
    10  C    0.039058  -0.091154   0.244190   5.280981   0.161754   0.001265
    11  C   -0.017151   0.044851  -0.068343   0.161754   5.299948  -0.013806
    12  O    0.006098  -0.001558   0.000143   0.001265  -0.013806   7.868682
    13  H    0.000787  -0.000944   0.000628   0.001054  -0.004539   0.005486
    14  H    0.000712  -0.000058   0.000001  -0.000000  -0.000007   0.001272
    15  H   -0.003889   0.000423  -0.000024  -0.000131   0.000187   0.003413
    16  H   -0.000839   0.000060  -0.000003   0.000004  -0.000001   0.000489
    17  H    0.001128   0.000106   0.000013  -0.000020   0.000031   0.004429
    18  H   -0.000674  -0.000453   0.000096  -0.000001  -0.000014  -0.000068
    19  H    0.007379  -0.000586   0.000017   0.000000   0.000001   0.000073
    20  H   -0.041296  -0.005650  -0.000013  -0.000100   0.000023   0.000366
    21  H   -0.053125  -0.004397   0.000324   0.000213  -0.000270   0.003599
    22  H    0.428404  -0.062996  -0.000787   0.002492  -0.000805  -0.010069
    23  H    0.406507  -0.027214  -0.002379  -0.000868  -0.000096   0.000189
    24  H   -0.067002   0.451466  -0.041204  -0.009490  -0.003013   0.001282
    25  H   -0.041202   0.425695  -0.036154   0.007443  -0.000262   0.000059
    26  H   -0.009820  -0.029763   0.425603  -0.056727   0.009753   0.000000
    27  H    0.013420  -0.074356   0.445391  -0.036222  -0.007747  -0.000001
    28  H    0.002399  -0.016204  -0.038018   0.432855  -0.054246   0.000116
    29  H   -0.001283   0.013137  -0.055689   0.431014  -0.034580  -0.000036
    30  H    0.000712  -0.005456   0.004061  -0.028999   0.390294   0.000168
    31  H   -0.003876   0.011385  -0.012183  -0.046397   0.416734   0.010838
    32  H    0.000477  -0.002063   0.013014  -0.058659   0.421510   0.000362
              13         14         15         16         17         18
     1  O    0.288818   0.002545   0.005112  -0.000124   0.000421  -0.000078
     2  C   -0.026125  -0.020122  -0.038723   0.007211  -0.006207  -0.000442
     3  C    0.017780   0.395814   0.412632  -0.049038  -0.041804  -0.010059
     4  C   -0.001267  -0.031607  -0.045109   0.434970   0.429718  -0.040838
     5  C   -0.000085   0.005362   0.003634  -0.049188  -0.036556   0.435950
     6  C    0.000183  -0.000767  -0.003368   0.009664  -0.011503  -0.064315
     7  C    0.000787   0.000712  -0.003889  -0.000839   0.001128  -0.000674
     8  C   -0.000944  -0.000058   0.000423   0.000060   0.000106  -0.000453
     9  C    0.000628   0.000001  -0.000024  -0.000003   0.000013   0.000096
    10  C    0.001054  -0.000000  -0.000131   0.000004  -0.000020  -0.000001
    11  C   -0.004539  -0.000007   0.000187  -0.000001   0.000031  -0.000014
    12  O    0.005486   0.001272   0.003413   0.000489   0.004429  -0.000068
    13  H    0.374330  -0.000639  -0.000522   0.000031  -0.000024   0.000017
    14  H   -0.000639   0.496966  -0.014377  -0.007961  -0.001283  -0.000308
    15  H   -0.000522  -0.014377   0.485512   0.000239   0.005491   0.003251
    16  H    0.000031  -0.007961   0.000239   0.540274  -0.019118  -0.001794
    17  H   -0.000024  -0.001283   0.005491  -0.019118   0.493548   0.005622
    18  H    0.000017  -0.000308   0.003251  -0.001794   0.005622   0.534921
    19  H   -0.000004  -0.000208  -0.000020  -0.007959  -0.002428  -0.020389
    20  H   -0.000001   0.000041  -0.000180  -0.000254  -0.000132  -0.000313
    21  H    0.000008  -0.000127   0.000607   0.000119   0.002591   0.006423
    22  H   -0.001025   0.000491  -0.000848   0.000073   0.000365   0.000422
    23  H   -0.000007  -0.000019   0.000600  -0.000038  -0.000001   0.002919
    24  H    0.000001   0.000003  -0.000021  -0.000005  -0.000011  -0.000018
    25  H    0.000006   0.000001  -0.000009   0.000001  -0.000001   0.000052
    26  H   -0.000018   0.000000  -0.000006  -0.000000   0.000000  -0.000017
    27  H    0.000002  -0.000000   0.000002   0.000000  -0.000000   0.000001
    28  H   -0.000687  -0.000022   0.000271  -0.000001  -0.000001   0.000019
    29  H   -0.000190  -0.000000  -0.000002  -0.000000   0.000000  -0.000001
    30  H    0.000413  -0.000000  -0.000000   0.000000   0.000000   0.000000
    31  H    0.000087  -0.000027  -0.000107   0.000000  -0.000005   0.000006
    32  H    0.002304   0.000003  -0.000007   0.000000  -0.000001   0.000000
              19         20         21         22         23         24
     1  O    0.000015  -0.000018   0.000189   0.005956   0.000059   0.000118
     2  C   -0.000322   0.000587  -0.005277  -0.000051  -0.000647  -0.000451
     3  C    0.009006  -0.000996  -0.002874  -0.003879  -0.000473   0.000115
     4  C   -0.050677   0.006348   0.002074  -0.004472   0.001415  -0.000080
     5  C    0.440155  -0.036207  -0.051222   0.008962  -0.008359  -0.000325
     6  C   -0.047077   0.418349   0.438768  -0.076260  -0.028428  -0.001241
     7  C    0.007379  -0.041296  -0.053125   0.428404   0.406507  -0.067002
     8  C   -0.000586  -0.005650  -0.004397  -0.062996  -0.027214   0.451466
     9  C    0.000017  -0.000013   0.000324  -0.000787  -0.002379  -0.041204
    10  C    0.000000  -0.000100   0.000213   0.002492  -0.000868  -0.009490
    11  C    0.000001   0.000023  -0.000270  -0.000805  -0.000096  -0.003013
    12  O    0.000073   0.000366   0.003599  -0.010069   0.000189   0.001282
    13  H   -0.000004  -0.000001   0.000008  -0.001025  -0.000007   0.000001
    14  H   -0.000208   0.000041  -0.000127   0.000491  -0.000019   0.000003
    15  H   -0.000020  -0.000180   0.000607  -0.000848   0.000600  -0.000021
    16  H   -0.007959  -0.000254   0.000119   0.000073  -0.000038  -0.000005
    17  H   -0.002428  -0.000132   0.002591   0.000365  -0.000001  -0.000011
    18  H   -0.020389  -0.000313   0.006423   0.000422   0.002919  -0.000018
    19  H    0.538246  -0.010147   0.001219  -0.000366   0.000145  -0.000009
    20  H   -0.010147   0.541478  -0.020111   0.007040  -0.004968   0.000970
    21  H    0.001219  -0.020111   0.493388   0.002369   0.005361   0.000129
    22  H   -0.000366   0.007040   0.002369   0.607621  -0.030124  -0.000645
    23  H    0.000145  -0.004968   0.005361  -0.030124   0.529326   0.005781
    24  H   -0.000009   0.000970   0.000129  -0.000645   0.005781   0.511027
    25  H   -0.000010   0.001819   0.001076   0.006667  -0.003430  -0.020087
    26  H   -0.000001   0.000120  -0.000055   0.000515   0.001659   0.005653
    27  H   -0.000000  -0.000038   0.000022  -0.000596   0.000219  -0.000002
    28  H    0.000001  -0.000064   0.000040  -0.009459   0.001821   0.002528
    29  H    0.000000   0.000002  -0.000008   0.000657  -0.000324  -0.000951
    30  H   -0.000000  -0.000002   0.000009  -0.000183   0.000022   0.001585
    31  H   -0.000001   0.000013   0.000014   0.000180  -0.000200  -0.011112
    32  H    0.000000  -0.000000   0.000003   0.000138   0.000018   0.000615
              25         26         27         28         29         30
     1  O   -0.000038   0.000010  -0.000013   0.005410   0.000275   0.000392
     2  C    0.000110   0.000073  -0.000023  -0.002815   0.000218  -0.000152
     3  C   -0.000058   0.000028  -0.000012  -0.000499   0.000001   0.000012
     4  C    0.000006  -0.000012   0.000002   0.000059  -0.000002  -0.000002
     5  C    0.000097   0.000027   0.000024   0.000028   0.000002   0.000000
     6  C   -0.005879  -0.000073  -0.000811   0.000554   0.000073   0.000014
     7  C   -0.041202  -0.009820   0.013420   0.002399  -0.001283   0.000712
     8  C    0.425695  -0.029763  -0.074356  -0.016204   0.013137  -0.005456
     9  C   -0.036154   0.425603   0.445391  -0.038018  -0.055689   0.004061
    10  C    0.007443  -0.056727  -0.036222   0.432855   0.431014  -0.028999
    11  C   -0.000262   0.009753  -0.007747  -0.054246  -0.034580   0.390294
    12  O    0.000059   0.000000  -0.000001   0.000116  -0.000036   0.000168
    13  H    0.000006  -0.000018   0.000002  -0.000687  -0.000190   0.000413
    14  H    0.000001   0.000000  -0.000000  -0.000022  -0.000000  -0.000000
    15  H   -0.000009  -0.000006   0.000002   0.000271  -0.000002  -0.000000
    16  H    0.000001  -0.000000   0.000000  -0.000001  -0.000000   0.000000
    17  H   -0.000001   0.000000  -0.000000  -0.000001   0.000000   0.000000
    18  H    0.000052  -0.000017   0.000001   0.000019  -0.000001   0.000000
    19  H   -0.000010  -0.000001  -0.000000   0.000001   0.000000  -0.000000
    20  H    0.001819   0.000120  -0.000038  -0.000064   0.000002  -0.000002
    21  H    0.001076  -0.000055   0.000022   0.000040  -0.000008   0.000009
    22  H    0.006667   0.000515  -0.000596  -0.009459   0.000657  -0.000183
    23  H   -0.003430   0.001659   0.000219   0.001821  -0.000324   0.000022
    24  H   -0.020087   0.005653  -0.000002   0.002528  -0.000951   0.001585
    25  H    0.531052  -0.003193  -0.008007  -0.000907  -0.000098  -0.000352
    26  H   -0.003193   0.542264  -0.018247  -0.001094  -0.007035   0.000114
    27  H   -0.008007  -0.018247   0.533618   0.005933  -0.003367   0.002415
    28  H   -0.000907  -0.001094   0.005933   0.529114  -0.019118   0.005918
    29  H   -0.000098  -0.007035  -0.003367  -0.019118   0.540214  -0.003091
    30  H   -0.000352   0.000114   0.002415   0.005918  -0.003091   0.512585
    31  H    0.000563  -0.000526   0.001018  -0.000772   0.005346  -0.019017
    32  H    0.000029  -0.000331  -0.000315  -0.001967  -0.006885  -0.014391
              31         32
     1  O   -0.006757  -0.001789
     2  C    0.007815  -0.001709
     3  C    0.001825  -0.000109
     4  C   -0.000154   0.000011
     5  C    0.000049  -0.000005
     6  C    0.000311  -0.000033
     7  C   -0.003876   0.000477
     8  C    0.011385  -0.002063
     9  C   -0.012183   0.013014
    10  C   -0.046397  -0.058659
    11  C    0.416734   0.421510
    12  O    0.010838   0.000362
    13  H    0.000087   0.002304
    14  H   -0.000027   0.000003
    15  H   -0.000107  -0.000007
    16  H    0.000000   0.000000
    17  H   -0.000005  -0.000001
    18  H    0.000006   0.000000
    19  H   -0.000001   0.000000
    20  H    0.000013  -0.000000
    21  H    0.000014   0.000003
    22  H    0.000180   0.000138
    23  H   -0.000200   0.000018
    24  H   -0.011112   0.000615
    25  H    0.000563   0.000029
    26  H   -0.000526  -0.000331
    27  H    0.001018  -0.000315
    28  H   -0.000772  -0.001967
    29  H    0.005346  -0.006885
    30  H   -0.019017  -0.014391
    31  H    0.503763  -0.034939
    32  H   -0.034939   0.526418
 Mulliken charges:
               1
     1  O   -0.388362
     2  C    0.286232
     3  C   -0.322193
     4  C   -0.273097
     5  C   -0.290105
     6  C   -0.288573
     7  C   -0.326098
     8  C   -0.306996
     9  C   -0.257585
    10  C   -0.264415
    11  C   -0.558699
    12  O   -0.327468
    13  H    0.344141
    14  H    0.174320
    15  H    0.185968
    16  H    0.143190
    17  H    0.175631
    18  H    0.150083
    19  H    0.143945
    20  H    0.143333
    21  H    0.178920
    22  H    0.130214
    23  H    0.151533
    24  H    0.174392
    25  H    0.145011
    26  H    0.141099
    27  H    0.147692
    28  H    0.158807
    29  H    0.141721
    30  H    0.152931
    31  H    0.176123
    32  H    0.158303
 Sum of Mulliken charges =  -0.00000
 Mulliken charges with hydrogens summed into heavy atoms:
               1
     1  O   -0.044221
     2  C    0.286232
     3  C    0.038095
     4  C    0.045725
     5  C    0.003923
     6  C    0.033680
     7  C   -0.044351
     8  C    0.012407
     9  C    0.031207
    10  C    0.036113
    11  C   -0.071342
    12  O   -0.327468
 Electronic spatial extent (au):  <R**2>=           2570.5398
 Charge=              0.0000 electrons
 Dipole moment (field-independent basis, Debye):
    X=              0.3061    Y=             -0.0191    Z=             -1.3528  Tot=              1.3872
 Quadrupole moment (field-independent basis, Debye-Ang):
   XX=            -72.0388   YY=            -75.7713   ZZ=            -82.0584
   XY=             -0.8099   XZ=             -2.4564   YZ=             -0.7680
 Traceless Quadrupole moment (field-independent basis, Debye-Ang):
   XX=              4.5840   YY=              0.8516   ZZ=             -5.4356
   XY=             -0.8099   XZ=             -2.4564   YZ=             -0.7680
 Octapole moment (field-independent basis, Debye-Ang**2):
  XXX=             14.2038  YYY=             19.9653  ZZZ=             -3.5555  XYY=             -0.4742
  XXY=             12.0241  XXZ=             -1.4063  XZZ=              0.2952  YZZ=             -2.5277
  YYZ=              2.6345  XYZ=             -3.1114
 Hexadecapole moment (field-independent basis, Debye-Ang**3):
 XXXX=          -2084.1545 YYYY=          -1041.8238 ZZZZ=           -320.5417 XXXY=             16.0905
 XXXZ=             -7.5979 YYYX=             -6.3198 YYYZ=              8.9839 ZZZX=             -1.5336
 ZZZY=             -2.7980 XXYY=           -519.9757 XXZZ=           -407.5024 YYZZ=           -246.5020
 XXYZ=            -10.2946 YYXZ=              1.0487 ZZXY=              0.7106
 N-N= 7.780127055166D+02 E-N=-2.820963189535D+03  KE= 5.405663582495D+02
 Unable to Open any file for archive entry.
 1\1\GINC-NOTCH075\SP\RM062X\def2TZVP\C10H20O2\U6032257\03-Feb-2022\0\\
 # M062X/def2tzvp int=(grid=ultrafine) nmr=giao guess=read geom=check\\
 Ac1.xyz\\0,1\O,0,5.4101465523,-1.7759156021,-2.1565483789\C,0,4.439280
 4045,-1.2876335335,-1.3454427224\C,0,4.4031583697,-2.0252703107,-0.025
 9386617\C,0,3.1094842917,-1.8328703814,0.7733949332\C,0,1.9161291964,-
 2.7155429765,0.3679497786\C,0,1.3063655117,-2.4400977002,-1.0189584338
 \C,0,1.9573920744,-3.2049123741,-2.1779655323\C,0,1.4323151361,-2.7529
 366452,-3.5435786375\C,0,2.116714239,-3.4279770197,-4.7407744404\C,0,3
 .6089864881,-3.098704776,-4.9084911887\C,0,3.8907484853,-1.6120310027,
 -5.1508929979\O,0,3.7330279246,-0.3557794986,-1.6678967087\H,0,5.37474
 24887,-1.2513075793,-2.9746024295\H,0,5.2603135512,-1.645583322,0.5464
 549844\H,0,4.6167876111,-3.0828202169,-0.2120533027\H,0,3.3371864582,-
 2.0355524456,1.8260122718\H,0,2.8199188805,-0.7782056758,0.7111247855\
 H,0,2.2045275579,-3.7740465752,0.4404687497\H,0,1.1404159634,-2.565783
 5123,1.1284163842\H,0,0.2403123404,-2.7003013117,-0.9986992374\H,0,1.3
 578068174,-1.3648415847,-1.2241583658\H,0,3.043774714,-3.0867316383,-2
 .1511085214\H,0,1.7774165013,-4.281858879,-2.0512733523\H,0,1.54140959
 38,-1.6641011204,-3.6197217228\H,0,0.3532227334,-2.9495887453,-3.59242
 601\H,0,2.0014193299,-4.5165861545,-4.6528163386\H,0,1.5897391852,-3.1
 384873054,-5.6598154569\H,0,4.169033915,-3.4338310974,-4.0276767143\H,
 0,4.0004012122,-3.6791596741,-5.7529144081\H,0,3.353434526,-1.24623611
 3,-6.0331026604\H,0,3.5803868094,-0.991122694,-4.3042291503\H,0,4.9587
 011376,-1.4380825342,-5.3320365143\\Version=ES64L-G16RevC.01\State=1-A
 \HF=-543.5434409\RMSD=2.823e-09\Dipole=0.2294182,-0.4602594,0.1826897\
 Quadrupole=0.2000154,-4.0008283,3.8008129,1.4757358,0.1281954,-0.87008
 79\PG=C01 [X(C10H20O2)]\\@
 The archive entry for this job was punched.


 There ain't no surer way to find out whether you
 like people or hate them than to travel with them.
                                     -- Mark Twain
 Job cpu time:       0 days  0 hours 47 minutes  2.9 seconds.
 Elapsed time:       0 days  0 hours  1 minutes 40.0 seconds.
 File lengths (MBytes):  RWF=    140 Int=      0 D2E=      0 Chk=     24 Scr=      1
 Normal termination of Gaussian 16 at Thu Feb  3 08:02:10 2022.
