 Entering Gaussian System, Link 0=/uufs/chpc.utah.edu/sys/installdir/gaussian16/C01/AVX2/g16/g16
 Input=Ac1_clust-16.com
 Output=Ac1_clust-16.log
 Initial command:
 /uufs/chpc.utah.edu/sys/installdir/gaussian16/C01/AVX2/g16/l1.exe "/scratch/general/lustre/u6032257/3857471/notchpeak.peaks/Gau-175726.inp" -scrdir="/scratch/general/lustre/u6032257/3857471/notchpeak.peaks/"
 Entering Link 1 = /uufs/chpc.utah.edu/sys/installdir/gaussian16/C01/AVX2/g16/l1.exe PID=    175728.
  
 Copyright (c) 1988-2019, Gaussian, Inc.  All Rights Reserved.
  
 This is part of the Gaussian(R) 16 program.  It is based on
 the Gaussian(R) 09 system (copyright 2009, Gaussian, Inc.),
 the Gaussian(R) 03 system (copyright 2003, Gaussian, Inc.),
 the Gaussian(R) 98 system (copyright 1998, Gaussian, Inc.),
 the Gaussian(R) 94 system (copyright 1995, Gaussian, Inc.),
 the Gaussian 92(TM) system (copyright 1992, Gaussian, Inc.),
 the Gaussian 90(TM) system (copyright 1990, Gaussian, Inc.),
 the Gaussian 88(TM) system (copyright 1988, Gaussian, Inc.),
 the Gaussian 86(TM) system (copyright 1986, Carnegie Mellon
 University), and the Gaussian 82(TM) system (copyright 1983,
 Carnegie Mellon University). Gaussian is a federally registered
 trademark of Gaussian, Inc.
  
 This software contains proprietary and confidential information,
 including trade secrets, belonging to Gaussian, Inc.
  
 This software is provided under written license and may be
 used, copied, transmitted, or stored only in accord with that
 written license.
  
 The following legend is applicable only to US Government
 contracts under FAR:
  
                    RESTRICTED RIGHTS LEGEND
  
 Use, reproduction and disclosure by the US Government is
 subject to restrictions as set forth in subparagraphs (a)
 and (c) of the Commercial Computer Software - Restricted
 Rights clause in FAR 52.227-19.
  
 Gaussian, Inc.
 340 Quinnipiac St., Bldg. 40, Wallingford CT 06492
  
  
 ---------------------------------------------------------------
 Warning -- This program may not be used in any manner that
 competes with the business of Gaussian, Inc. or will provide
 assistance to any competitor of Gaussian, Inc.  The licensee
 of this program is prohibited from giving any competitor of
 Gaussian, Inc. access to this program.  By using this program,
 the user acknowledges that Gaussian, Inc. is engaged in the
 business of creating and licensing software in the field of
 computational chemistry and represents and warrants to the
 licensee that it is not a competitor of Gaussian, Inc. and that
 it will not use this program in any manner prohibited above.
 ---------------------------------------------------------------
  

 Cite this work as:
 Gaussian 16, Revision C.01,
 M. J. Frisch, G. W. Trucks, H. B. Schlegel, G. E. Scuseria, 
 M. A. Robb, J. R. Cheeseman, G. Scalmani, V. Barone, 
 G. A. Petersson, H. Nakatsuji, X. Li, M. Caricato, A. V. Marenich, 
 J. Bloino, B. G. Janesko, R. Gomperts, B. Mennucci, H. P. Hratchian, 
 J. V. Ortiz, A. F. Izmaylov, J. L. Sonnenberg, D. Williams-Young, 
 F. Ding, F. Lipparini, F. Egidi, J. Goings, B. Peng, A. Petrone, 
 T. Henderson, D. Ranasinghe, V. G. Zakrzewski, J. Gao, N. Rega, 
 G. Zheng, W. Liang, M. Hada, M. Ehara, K. Toyota, R. Fukuda, 
 J. Hasegawa, M. Ishida, T. Nakajima, Y. Honda, O. Kitao, H. Nakai, 
 T. Vreven, K. Throssell, J. A. Montgomery, Jr., J. E. Peralta, 
 F. Ogliaro, M. J. Bearpark, J. J. Heyd, E. N. Brothers, K. N. Kudin, 
 V. N. Staroverov, T. A. Keith, R. Kobayashi, J. Normand, 
 K. Raghavachari, A. P. Rendell, J. C. Burant, S. S. Iyengar, 
 J. Tomasi, M. Cossi, J. M. Millam, M. Klene, C. Adamo, R. Cammi, 
 J. W. Ochterski, R. L. Martin, K. Morokuma, O. Farkas, 
 J. B. Foresman, and D. J. Fox, Gaussian, Inc., Wallingford CT, 2019.
 
 ******************************************
 Gaussian 16:  ES64L-G16RevC.01  3-Jul-2019
                 3-Feb-2022 
 ******************************************
 %NProcShared=32
 Will use up to   32 processors via shared memory.
 %mem=16GB
 %chk=Ac1_clust-16.chk
 ----------------------------------------------------------------------
 # B3LYP/6-31G(d,p) empiricaldispersion=GD3BJ int=(grid=ultrafine) opt 
 freq=noraman
 ----------------------------------------------------------------------
 1/18=20,19=15,26=4,38=1/1,3;
 2/9=110,12=2,17=6,18=5,40=1/2;
 3/5=1,6=6,7=101,11=2,25=1,30=1,71=1,74=-5,75=-5,124=41/1,2,3;
 4//1;
 5/5=2,38=5/2;
 6/7=2,8=2,9=2,10=2,28=1/1;
 7//1,2,3,16;
 1/18=20,19=15,26=4/3(2);
 2/9=110/2;
 99//99;
 2/9=110/2;
 3/5=1,6=6,7=101,11=2,25=1,30=1,71=1,74=-5,75=-5,124=41/1,2,3;
 4/5=5,16=3,69=1/1;
 5/5=2,38=5/2;
 7//1,2,3,16;
 1/18=20,19=15,26=4/3(-5);
 2/9=110/2;
 6/7=2,8=2,9=2,10=2,19=2,28=1/1;
 99/9=1/99;
 -------
 Ac1.xyz
 -------
 Symbolic Z-matrix:
 Charge =  0 Multiplicity = 1
 O                     4.9655   -0.2026    0.2602 
 C                     4.5543   -0.4335   -1.0057 
 C                     3.0407   -0.606    -1.1162 
 C                     2.4152   -1.6505   -0.1563 
 C                     2.9162   -3.1079   -0.2926 
 C                     2.5564   -3.8087   -1.6213 
 C                     3.6356   -3.6896   -2.7189 
 C                     3.2448   -4.3438   -4.0623 
 C                     2.598    -3.3949   -5.0943 
 C                     1.2463   -2.7931   -4.6707 
 C                     0.5791   -1.988    -5.7945 
 O                     5.3158   -0.4639   -1.9611 
 H                     5.9148   -0.1063    0.182 
 H                     2.7918   -0.8399   -2.1502 
 H                     2.6029    0.3734   -0.9279 
 H                     2.572    -1.3224    0.8738 
 H                     1.3316   -1.6395   -0.2873 
 H                     3.9908   -3.164    -0.1099 
 H                     2.4669   -3.6811    0.5203 
 H                     2.4053   -4.8708   -1.4197 
 H                     1.5906   -3.4513   -1.9764 
 H                     3.9168   -2.6518   -2.8903 
 H                     4.5444   -4.1684   -2.3501 
 H                     2.6023   -5.2096   -3.8928 
 H                     4.1504   -4.7497   -4.5167 
 H                     3.2954   -2.5886   -5.3296 
 H                     2.4628   -3.9468   -6.0262 
 H                     0.5725   -3.5882   -4.3472 
 H                     1.389    -2.1377   -3.8111 
 H                    -0.3709   -1.5676   -5.463 
 H                     1.2111   -1.1597   -6.1176 
 H                     0.3768   -2.6129   -6.6652 
 

 GradGradGradGradGradGradGradGradGradGradGradGradGradGradGradGradGradGrad
 Berny optimization.
 Initialization pass.
                           ----------------------------
                           !    Initial Parameters    !
                           ! (Angstroms and Degrees)  !
 --------------------------                            --------------------------
 ! Name  Definition              Value          Derivative Info.                !
 --------------------------------------------------------------------------------
 ! R1    R(1,2)                  1.3509         estimate D2E/DX2                !
 ! R2    R(1,13)                 0.9574         estimate D2E/DX2                !
 ! R3    R(2,3)                  1.5274         estimate D2E/DX2                !
 ! R4    R(2,12)                 1.2221         estimate D2E/DX2                !
 ! R5    R(3,4)                  1.5504         estimate D2E/DX2                !
 ! R6    R(3,14)                 1.089          estimate D2E/DX2                !
 ! R7    R(3,15)                 1.0892         estimate D2E/DX2                !
 ! R8    R(4,5)                  1.5471         estimate D2E/DX2                !
 ! R9    R(4,16)                 1.0924         estimate D2E/DX2                !
 ! R10   R(4,17)                 1.0915         estimate D2E/DX2                !
 ! R11   R(5,6)                  1.5447         estimate D2E/DX2                !
 ! R12   R(5,18)                 1.0915         estimate D2E/DX2                !
 ! R13   R(5,19)                 1.0914         estimate D2E/DX2                !
 ! R14   R(6,7)                  1.5439         estimate D2E/DX2                !
 ! R15   R(6,20)                 1.0916         estimate D2E/DX2                !
 ! R16   R(6,21)                 1.0893         estimate D2E/DX2                !
 ! R17   R(7,8)                  1.5445         estimate D2E/DX2                !
 ! R18   R(7,22)                 1.0888         estimate D2E/DX2                !
 ! R19   R(7,23)                 1.0914         estimate D2E/DX2                !
 ! R20   R(8,9)                  1.544          estimate D2E/DX2                !
 ! R21   R(8,24)                 1.0914         estimate D2E/DX2                !
 ! R22   R(8,25)                 1.0915         estimate D2E/DX2                !
 ! R23   R(9,10)                 1.5391         estimate D2E/DX2                !
 ! R24   R(9,26)                 1.0917         estimate D2E/DX2                !
 ! R25   R(9,27)                 1.0915         estimate D2E/DX2                !
 ! R26   R(10,11)                1.535          estimate D2E/DX2                !
 ! R27   R(10,28)                1.0913         estimate D2E/DX2                !
 ! R28   R(10,29)                1.0903         estimate D2E/DX2                !
 ! R29   R(11,30)                1.0905         estimate D2E/DX2                !
 ! R30   R(11,31)                1.0908         estimate D2E/DX2                !
 ! R31   R(11,32)                1.0907         estimate D2E/DX2                !
 ! A1    A(2,1,13)             104.0327         estimate D2E/DX2                !
 ! A2    A(1,2,3)              112.8761         estimate D2E/DX2                !
 ! A3    A(1,2,12)             123.1721         estimate D2E/DX2                !
 ! A4    A(3,2,12)             123.9244         estimate D2E/DX2                !
 ! A5    A(2,3,4)              115.5375         estimate D2E/DX2                !
 ! A6    A(2,3,14)             108.63           estimate D2E/DX2                !
 ! A7    A(2,3,15)             106.5144         estimate D2E/DX2                !
 ! A8    A(4,3,14)             110.5469         estimate D2E/DX2                !
 ! A9    A(4,3,15)             109.6695         estimate D2E/DX2                !
 ! A10   A(14,3,15)            105.3922         estimate D2E/DX2                !
 ! A11   A(3,4,5)              116.7081         estimate D2E/DX2                !
 ! A12   A(3,4,16)             108.8793         estimate D2E/DX2                !
 ! A13   A(3,4,17)             108.6279         estimate D2E/DX2                !
 ! A14   A(5,4,16)             108.634          estimate D2E/DX2                !
 ! A15   A(5,4,17)             108.6865         estimate D2E/DX2                !
 ! A16   A(16,4,17)            104.6334         estimate D2E/DX2                !
 ! A17   A(4,5,6)              115.3235         estimate D2E/DX2                !
 ! A18   A(4,5,18)             110.64           estimate D2E/DX2                !
 ! A19   A(4,5,19)             107.2055         estimate D2E/DX2                !
 ! A20   A(6,5,18)             110.4871         estimate D2E/DX2                !
 ! A21   A(6,5,19)             107.8488         estimate D2E/DX2                !
 ! A22   A(18,5,19)            104.6926         estimate D2E/DX2                !
 ! A23   A(5,6,7)              114.4382         estimate D2E/DX2                !
 ! A24   A(5,6,20)             108.3497         estimate D2E/DX2                !
 ! A25   A(5,6,21)             109.7594         estimate D2E/DX2                !
 ! A26   A(7,6,20)             107.6452         estimate D2E/DX2                !
 ! A27   A(7,6,21)             111.2657         estimate D2E/DX2                !
 ! A28   A(20,6,21)            104.8752         estimate D2E/DX2                !
 ! A29   A(6,7,8)              114.1312         estimate D2E/DX2                !
 ! A30   A(6,7,22)             111.4678         estimate D2E/DX2                !
 ! A31   A(6,7,23)             107.9377         estimate D2E/DX2                !
 ! A32   A(8,7,22)             109.3997         estimate D2E/DX2                !
 ! A33   A(8,7,23)             108.5898         estimate D2E/DX2                !
 ! A34   A(22,7,23)            104.85           estimate D2E/DX2                !
 ! A35   A(7,8,9)              115.2816         estimate D2E/DX2                !
 ! A36   A(7,8,24)             110.4806         estimate D2E/DX2                !
 ! A37   A(7,8,25)             108.0406         estimate D2E/DX2                !
 ! A38   A(9,8,24)             110.1661         estimate D2E/DX2                !
 ! A39   A(9,8,25)             107.3293         estimate D2E/DX2                !
 ! A40   A(24,8,25)            104.9564         estimate D2E/DX2                !
 ! A41   A(8,9,10)             115.1047         estimate D2E/DX2                !
 ! A42   A(8,9,26)             109.2909         estimate D2E/DX2                !
 ! A43   A(8,9,27)             108.1689         estimate D2E/DX2                !
 ! A44   A(10,9,26)            109.3644         estimate D2E/DX2                !
 ! A45   A(10,9,27)            108.9003         estimate D2E/DX2                !
 ! A46   A(26,9,27)            105.5785         estimate D2E/DX2                !
 ! A47   A(9,10,11)            112.664          estimate D2E/DX2                !
 ! A48   A(9,10,28)            109.8147         estimate D2E/DX2                !
 ! A49   A(9,10,29)            109.6995         estimate D2E/DX2                !
 ! A50   A(11,10,28)           109.3175         estimate D2E/DX2                !
 ! A51   A(11,10,29)           108.5903         estimate D2E/DX2                !
 ! A52   A(28,10,29)           106.5627         estimate D2E/DX2                !
 ! A53   A(10,11,30)           110.9962         estimate D2E/DX2                !
 ! A54   A(10,11,31)           111.302          estimate D2E/DX2                !
 ! A55   A(10,11,32)           111.3813         estimate D2E/DX2                !
 ! A56   A(30,11,31)           107.5807         estimate D2E/DX2                !
 ! A57   A(30,11,32)           107.5768         estimate D2E/DX2                !
 ! A58   A(31,11,32)           107.8224         estimate D2E/DX2                !
 ! D1    D(13,1,2,3)          -179.3883         estimate D2E/DX2                !
 ! D2    D(13,1,2,12)           -1.2274         estimate D2E/DX2                !
 ! D3    D(1,2,3,4)            -52.1752         estimate D2E/DX2                !
 ! D4    D(1,2,3,14)          -177.0338         estimate D2E/DX2                !
 ! D5    D(1,2,3,15)            69.8806         estimate D2E/DX2                !
 ! D6    D(12,2,3,4)           129.68           estimate D2E/DX2                !
 ! D7    D(12,2,3,14)            4.8213         estimate D2E/DX2                !
 ! D8    D(12,2,3,15)         -108.2643         estimate D2E/DX2                !
 ! D9    D(2,3,4,5)            -60.0919         estimate D2E/DX2                !
 ! D10   D(2,3,4,16)            63.2803         estimate D2E/DX2                !
 ! D11   D(2,3,4,17)           176.673          estimate D2E/DX2                !
 ! D12   D(14,3,4,5)            63.769          estimate D2E/DX2                !
 ! D13   D(14,3,4,16)         -172.8588         estimate D2E/DX2                !
 ! D14   D(14,3,4,17)          -59.4662         estimate D2E/DX2                !
 ! D15   D(15,3,4,5)           179.5543         estimate D2E/DX2                !
 ! D16   D(15,3,4,16)          -57.0735         estimate D2E/DX2                !
 ! D17   D(15,3,4,17)           56.3191         estimate D2E/DX2                !
 ! D18   D(3,4,5,6)            -66.2515         estimate D2E/DX2                !
 ! D19   D(3,4,5,18)            60.0479         estimate D2E/DX2                !
 ! D20   D(3,4,5,19)           173.6489         estimate D2E/DX2                !
 ! D21   D(16,4,5,6)           170.2502         estimate D2E/DX2                !
 ! D22   D(16,4,5,18)          -63.4505         estimate D2E/DX2                !
 ! D23   D(16,4,5,19)           50.1506         estimate D2E/DX2                !
 ! D24   D(17,4,5,6)            56.9535         estimate D2E/DX2                !
 ! D25   D(17,4,5,18)         -176.7472         estimate D2E/DX2                !
 ! D26   D(17,4,5,19)          -63.1462         estimate D2E/DX2                !
 ! D27   D(4,5,6,7)             92.7419         estimate D2E/DX2                !
 ! D28   D(4,5,6,20)          -147.158          estimate D2E/DX2                !
 ! D29   D(4,5,6,21)           -33.1705         estimate D2E/DX2                !
 ! D30   D(18,5,6,7)           -33.6353         estimate D2E/DX2                !
 ! D31   D(18,5,6,20)           86.4648         estimate D2E/DX2                !
 ! D32   D(18,5,6,21)         -159.5478         estimate D2E/DX2                !
 ! D33   D(19,5,6,7)          -147.5114         estimate D2E/DX2                !
 ! D34   D(19,5,6,20)          -27.4113         estimate D2E/DX2                !
 ! D35   D(19,5,6,21)           86.5761         estimate D2E/DX2                !
 ! D36   D(5,6,7,8)           -177.6691         estimate D2E/DX2                !
 ! D37   D(5,6,7,22)           -53.1093         estimate D2E/DX2                !
 ! D38   D(5,6,7,23)            61.5217         estimate D2E/DX2                !
 ! D39   D(20,6,7,8)            61.8391         estimate D2E/DX2                !
 ! D40   D(20,6,7,22)         -173.6012         estimate D2E/DX2                !
 ! D41   D(20,6,7,23)          -58.9702         estimate D2E/DX2                !
 ! D42   D(21,6,7,8)           -52.5462         estimate D2E/DX2                !
 ! D43   D(21,6,7,22)           72.0136         estimate D2E/DX2                !
 ! D44   D(21,6,7,23)         -173.3554         estimate D2E/DX2                !
 ! D45   D(6,7,8,9)             93.834          estimate D2E/DX2                !
 ! D46   D(6,7,8,24)           -31.8553         estimate D2E/DX2                !
 ! D47   D(6,7,8,25)          -146.1476         estimate D2E/DX2                !
 ! D48   D(22,7,8,9)           -31.8218         estimate D2E/DX2                !
 ! D49   D(22,7,8,24)         -157.5112         estimate D2E/DX2                !
 ! D50   D(22,7,8,25)           88.1966         estimate D2E/DX2                !
 ! D51   D(23,7,8,9)          -145.7202         estimate D2E/DX2                !
 ! D52   D(23,7,8,24)           88.5905         estimate D2E/DX2                !
 ! D53   D(23,7,8,25)          -25.7018         estimate D2E/DX2                !
 ! D54   D(7,8,9,10)           -63.606          estimate D2E/DX2                !
 ! D55   D(7,8,9,26)            59.8943         estimate D2E/DX2                !
 ! D56   D(7,8,9,27)           174.3717         estimate D2E/DX2                !
 ! D57   D(24,8,9,10)           62.245          estimate D2E/DX2                !
 ! D58   D(24,8,9,26)         -174.2547         estimate D2E/DX2                !
 ! D59   D(24,8,9,27)          -59.7773         estimate D2E/DX2                !
 ! D60   D(25,8,9,10)          175.9861         estimate D2E/DX2                !
 ! D61   D(25,8,9,26)          -60.5136         estimate D2E/DX2                !
 ! D62   D(25,8,9,27)           53.9638         estimate D2E/DX2                !
 ! D63   D(8,9,10,11)         -173.5408         estimate D2E/DX2                !
 ! D64   D(8,9,10,28)          -51.434          estimate D2E/DX2                !
 ! D65   D(8,9,10,29)           65.3641         estimate D2E/DX2                !
 ! D66   D(26,9,10,11)          62.9978         estimate D2E/DX2                !
 ! D67   D(26,9,10,28)        -174.8953         estimate D2E/DX2                !
 ! D68   D(26,9,10,29)         -58.0973         estimate D2E/DX2                !
 ! D69   D(27,9,10,11)         -51.9136         estimate D2E/DX2                !
 ! D70   D(27,9,10,28)          70.1932         estimate D2E/DX2                !
 ! D71   D(27,9,10,29)        -173.0087         estimate D2E/DX2                !
 ! D72   D(9,10,11,30)        -179.5199         estimate D2E/DX2                !
 ! D73   D(9,10,11,31)         -59.7247         estimate D2E/DX2                !
 ! D74   D(9,10,11,32)          60.6369         estimate D2E/DX2                !
 ! D75   D(28,10,11,30)         58.0931         estimate D2E/DX2                !
 ! D76   D(28,10,11,31)        177.8883         estimate D2E/DX2                !
 ! D77   D(28,10,11,32)        -61.7501         estimate D2E/DX2                !
 ! D78   D(29,10,11,30)        -57.7943         estimate D2E/DX2                !
 ! D79   D(29,10,11,31)         62.001          estimate D2E/DX2                !
 ! D80   D(29,10,11,32)       -177.6374         estimate D2E/DX2                !
 --------------------------------------------------------------------------------
 Trust Radius=3.00D-01 FncErr=1.00D-07 GrdErr=1.00D-06 EigMax=2.50D+02 EigMin=1.00D-04
 Number of steps in this run=    179 maximum allowed number of steps=    192.
 GradGradGradGradGradGradGradGradGradGradGradGradGradGradGradGradGradGrad

                          Input orientation:                          
 ---------------------------------------------------------------------
 Center     Atomic      Atomic             Coordinates (Angstroms)
 Number     Number       Type             X           Y           Z
 ---------------------------------------------------------------------
      1          8           0        4.965500   -0.202600    0.260200
      2          6           0        4.554300   -0.433500   -1.005700
      3          6           0        3.040700   -0.606000   -1.116200
      4          6           0        2.415200   -1.650500   -0.156300
      5          6           0        2.916200   -3.107900   -0.292600
      6          6           0        2.556400   -3.808700   -1.621300
      7          6           0        3.635600   -3.689600   -2.718900
      8          6           0        3.244800   -4.343800   -4.062300
      9          6           0        2.598000   -3.394900   -5.094300
     10          6           0        1.246300   -2.793100   -4.670700
     11          6           0        0.579100   -1.988000   -5.794500
     12          8           0        5.315800   -0.463900   -1.961100
     13          1           0        5.914800   -0.106300    0.182000
     14          1           0        2.791800   -0.839900   -2.150200
     15          1           0        2.602900    0.373400   -0.927900
     16          1           0        2.572000   -1.322400    0.873800
     17          1           0        1.331600   -1.639500   -0.287300
     18          1           0        3.990800   -3.164000   -0.109900
     19          1           0        2.466900   -3.681100    0.520300
     20          1           0        2.405300   -4.870800   -1.419700
     21          1           0        1.590600   -3.451300   -1.976400
     22          1           0        3.916800   -2.651800   -2.890300
     23          1           0        4.544400   -4.168400   -2.350100
     24          1           0        2.602300   -5.209600   -3.892800
     25          1           0        4.150400   -4.749700   -4.516700
     26          1           0        3.295400   -2.588600   -5.329600
     27          1           0        2.462800   -3.946800   -6.026200
     28          1           0        0.572500   -3.588200   -4.347200
     29          1           0        1.389000   -2.137700   -3.811100
     30          1           0       -0.370900   -1.567600   -5.463000
     31          1           0        1.211100   -1.159700   -6.117600
     32          1           0        0.376800   -2.612900   -6.665200
 ---------------------------------------------------------------------
                    Distance matrix (angstroms):
                    1          2          3          4          5
     1  O    0.000000
     2  C    1.350890   0.000000
     3  C    2.400430   1.527400   0.000000
     4  C    2.962080   2.603520   1.550367   0.000000
     5  C    3.598053   3.216255   2.636915   1.547124   0.000000
     6  C    4.727342   3.970207   3.278256   2.612277   1.544675
     7  C    4.775232   3.792262   3.525783   3.494885   2.596698
     8  C    6.228511   5.133034   4.763645   4.816527   3.980712
     9  C    6.668321   5.414208   4.878445   5.240247   4.820782
    10  C    6.697530   5.472002   4.542879   4.801215   4.696320
    11  C    7.686843   6.414927   5.464054   5.939231   6.081703
    12  O    2.263882   1.222127   2.431076   3.616463   3.941156
    13  H    0.957371   1.835389   3.193035   3.840078   4.269245
    14  H    3.307741   2.140432   1.088952   2.185071   2.934276
    15  H    2.706517   2.113079   1.089197   2.174113   3.552635
    16  H    2.712803   2.872660   2.166335   1.092402   2.160318
    17  H    3.945842   3.515157   2.162457   1.091545   2.160367
    18  H    3.139571   2.928416   2.908383   2.185258   1.091463
    19  H    4.290759   4.151243   3.530385   2.140980   1.091437
    20  H    5.582901   4.947649   4.322541   3.459279   2.153878
    21  H    5.190990   4.339688   3.307335   2.689909   2.170327
    22  H    4.126015   2.979761   2.846099   3.275998   2.820864
    23  H    4.766399   3.969507   4.058857   3.960565   2.830018
    24  H    6.921140   5.912426   5.393963   5.163684   4.180564
    25  H    6.645245   5.578516   5.474037   5.623971   4.696997
    26  H    6.303023   4.992534   4.663509   5.330836   5.077877
    27  H    7.733134   6.474803   5.966826   6.303252   5.812357
    28  H    7.210331   6.080500   5.042310   4.971304   4.707802
    29  H    5.754255   4.560010   3.512364   3.827272   3.956447
    30  H    7.943262   6.738791   5.608775   5.994188   6.317483
    31  H    7.462432   6.151087   5.354253   6.101462   6.374439
    32  H    8.650253   7.364186   6.474211   6.888183   6.877762
                    6          7          8          9         10
     6  C    0.000000
     7  C    1.543886   0.000000
     8  C    2.592047   1.544482   0.000000
     9  C    3.497812   2.608829   1.543951   0.000000
    10  C    3.470828   3.212785   2.601696   1.539056   0.000000
    11  C    4.963896   4.657999   3.956800   2.558438   1.535014
    12  O    4.349418   3.715168   4.874188   5.078793   5.415527
    13  H    5.313992   5.142958   6.565012   7.046658   7.249999
    14  H    3.024718   3.025923   4.017294   3.902987   3.543512
    15  H    4.239449   4.558741   5.699866   5.617740   5.086810
    16  H    3.522422   4.431972   5.826371   6.317765   5.887437
    17  H    2.825795   3.927341   5.022370   5.271854   4.533461
    18  H    2.181163   2.685015   4.191648   5.180487   5.335798
    19  H    2.147264   3.443595   4.695159   5.623418   5.406005
    20  H    1.091572   2.144013   2.822379   3.964606   4.028538
    21  H    1.089312   2.188634   2.807831   3.277093   2.794821
    22  H    2.190769   1.088798   2.165186   2.673770   3.212687
    23  H    2.147714   1.091412   2.156700   3.452160   4.260763
    24  H    2.669146   2.180860   1.091396   2.176409   2.878079
    25  H    3.436518   2.149632   1.091488   2.139872   3.505110
    26  H    3.973192   2.853715   2.165488   1.091720   2.162124
    27  H    4.408058   3.518500   2.150822   1.091472   2.155986
    28  H    3.378611   3.470479   2.791646   2.167527   1.091257
    29  H    2.991703   2.940834   2.893782   2.165372   1.090332
    30  H    5.324497   5.299529   4.768913   3.505614   2.178285
    31  H    5.389225   4.881573   4.301010   2.822544   2.182374
    32  H    5.623302   5.229947   4.242231   2.830721   2.183239
                   11         12         13         14         15
    11  C    0.000000
    12  O    6.281255   0.000000
    13  H    8.229766   2.253787   0.000000
    14  H    4.415325   2.558850   3.966164   0.000000
    15  H    5.775446   3.021324   3.525716   1.732570   0.000000
    16  H    6.991488   4.037588   3.623782   3.070129   2.474432
    17  H    5.569287   4.478559   4.855581   2.498388   2.465429
    18  H    6.733302   3.531729   3.624432   3.316906   3.886977
    19  H    6.804930   4.962253   4.978118   3.912742   4.307522
    20  H    5.548371   5.308945   6.130456   4.114750   5.270915
    21  H    4.212157   4.775134   5.877620   2.879670   4.092974
    22  H    4.473841   2.758173   4.462130   2.257511   3.837862
    23  H    5.686971   3.803906   4.978974   3.767025   5.140041
    24  H    4.253059   5.797949   7.322590   4.708168   6.321433
    25  H    4.691902   5.124191   6.837547   4.767877   6.443632
    26  H    2.820485   4.465776   6.587929   3.663352   5.350511
    27  H    2.727436   6.065908   8.075116   4.978398   6.684042
    28  H    2.157629   6.160651   7.821601   4.159958   5.613235
    29  H    2.147609   4.652297   6.368226   2.531940   4.011486
    30  H    1.090472   6.769048   8.573882   4.637549   5.760043
    31  H    1.090825   5.882958   7.932175   4.282657   5.587530
    32  H    1.090662   7.151257   9.156235   5.418577   6.840330
                   16         17         18         19         20
    16  H    0.000000
    17  H    1.728380   0.000000
    18  H    2.524312   3.070328   0.000000
    19  H    2.387357   2.471691   1.728241   0.000000
    20  H    4.228365   3.588379   2.672555   2.276572   0.000000
    21  H    3.690393   2.490534   3.054067   2.655978   1.728766
    22  H    4.212391   3.805735   2.828153   3.846279   3.061251
    23  H    4.731132   4.579581   2.516702   3.576683   2.436136
    24  H    6.150749   5.230671   4.519153   4.672269   2.503960
    25  H    6.579910   5.958758   4.686129   5.417328   3.556887
    26  H    6.372499   5.493823   5.297163   6.008436   4.613896
    27  H    7.383048   6.287942   6.160371   6.551891   4.698609
    28  H    6.032470   4.566887   5.460717   5.223977   3.684355
    29  H    4.900254   3.559307   4.639131   4.722815   3.771140
    30  H    6.991124   5.448995   7.087214   6.951250   5.913264
    31  H    7.124479   5.851250   6.916387   7.210840   6.104805
    32  H    7.957438   6.522021   7.505775   7.559165   6.060379
                   21         22         23         24         25
    21  H    0.000000
    22  H    2.624046   0.000000
    23  H    3.062486   1.727939   0.000000
    24  H    2.790653   3.045531   2.689939   0.000000
    25  H    3.832955   2.664757   2.277565   1.731292   0.000000
    26  H    3.859345   2.517999   3.596274   3.068293   2.462150
    27  H    4.172186   3.691207   4.230352   2.483046   2.402339
    28  H    2.583788   3.766131   4.483417   2.637329   3.765525
    29  H    2.265461   2.738968   4.026762   3.303837   3.865973
    30  H    4.421786   5.116507   6.372949   4.956774   5.609224
    31  H    4.748156   4.467957   5.861503   4.825646   4.908204
    32  H    4.915391   5.175228   6.197464   4.402488   4.839631
                   26         27         28         29         30
    26  H    0.000000
    27  H    1.738730   0.000000
    28  H    3.062433   2.553599   0.000000
    29  H    2.478611   3.054923   1.748721   0.000000
    30  H    3.808148   3.742679   2.493559   2.480128   0.000000
    31  H    2.647075   3.056638   3.072416   2.511588   1.760002
    32  H    3.209773   2.557148   2.522426   3.065330   1.759827
                   31         32
    31  H    0.000000
    32  H    1.762871   0.000000
 Stoichiometry    C10H20O2
 Framework group  C1[X(C10H20O2)]
 Deg. of freedom    90
 Full point group                 C1      NOp   1
 Largest Abelian subgroup         C1      NOp   1
 Largest concise Abelian subgroup C1      NOp   1
                         Standard orientation:                         
 ---------------------------------------------------------------------
 Center     Atomic      Atomic             Coordinates (Angstroms)
 Number     Number       Type             X           Y           Z
 ---------------------------------------------------------------------
      1          8           0       -3.783164   -0.633417   -0.247802
      2          6           0       -2.492848   -0.997910   -0.412520
      3          6           0       -1.665744   -0.846797    0.862633
      4          6           0       -1.741485    0.541901    1.547774
      5          6           0       -1.270292    1.755973    0.712550
      6          6           0        0.235786    1.777809    0.370098
      7          6           0        0.591818    1.132078   -0.986316
      8          6           0        2.104750    1.106807   -1.295866
      9          6           0        2.839283   -0.189131   -0.889918
     10          6           0        2.856176   -0.484386    0.620457
     11          6           0        3.730970   -1.694336    0.976859
     12          8           0       -2.050611   -1.435285   -1.464530
     13          1           0       -4.178758   -0.785533   -1.106245
     14          1           0       -0.632131   -1.107141    0.639739
     15          1           0       -2.015294   -1.614899    1.551244
     16          1           0       -2.768944    0.719854    1.873357
     17          1           0       -1.161538    0.506877    2.471845
     18          1           0       -1.869703    1.855096   -0.194187
     19          1           0       -1.494617    2.653182    1.292145
     20          1           0        0.565925    2.817773    0.338281
     21          1           0        0.804852    1.328508    1.183051
     22          1           0        0.189630    0.123367   -1.065228
     23          1           0        0.085555    1.697233   -1.770840
     24          1           0        2.599396    1.973725   -0.854363
     25          1           0        2.231446    1.228504   -2.373123
     26          1           0        2.396988   -1.035321   -1.419249
     27          1           0        3.867951   -0.124030   -1.248963
     28          1           0        3.212759    0.391700    1.164668
     29          1           0        1.840792   -0.674830    0.969100
     30          1           0        3.716748   -1.884029    2.050610
     31          1           0        3.379262   -2.598341    0.477884
     32          1           0        4.769411   -1.534133    0.684424
 ---------------------------------------------------------------------
 Rotational constants (GHZ):           1.1680720           0.4248788           0.3991814
 Standard basis: 6-31G(d,p) (6D, 7F)
 There are   280 symmetry adapted cartesian basis functions of A   symmetry.
 There are   280 symmetry adapted basis functions of A   symmetry.
   280 basis functions,   476 primitive gaussians,   280 cartesian basis functions
    48 alpha electrons       48 beta electrons
       nuclear repulsion energy       741.1028831622 Hartrees.
 NAtoms=   32 NActive=   32 NUniq=   32 SFac= 1.00D+00 NAtFMM=   60 NAOKFM=F Big=F
 Integral buffers will be    131072 words long.
 Raffenetti 2 integral format.
 Two-electron integral symmetry is turned on.
 Nuclear repulsion after empirical dispersion term =      741.0528015705 Hartrees.
 One-electron integrals computed using PRISM.
 NBasis=   280 RedAO= T EigKep=  3.23D-03  NBF=   280
 NBsUse=   280 1.00D-06 EigRej= -1.00D+00 NBFU=   280
 ExpMin= 1.61D-01 ExpMax= 5.48D+03 ExpMxC= 8.25D+02 IAcc=3 IRadAn=         5 AccDes= 0.00D+00
 Harris functional with IExCor=  402 and IRadAn=       5 diagonalized for initial guess.
 HarFok:  IExCor=  402 AccDes= 0.00D+00 IRadAn=         5 IDoV= 1 UseB2=F ITyADJ=14
 ICtDFT=  3500011 ScaDFX=  1.000000  1.000000  1.000000  1.000000
 FoFCou: FMM=F IPFlag=           0 FMFlag=      100000 FMFlg1=           0
         NFxFlg=           0 DoJE=T BraDBF=F KetDBF=T FulRan=T
         wScrn=  0.000000 ICntrl=       500 IOpCl=  0 I1Cent=   200000004 NGrid=           0
         NMat0=    1 NMatS0=      1 NMatT0=    0 NMatD0=    1 NMtDS0=    0 NMtDT0=    0
 Petite list used in FoFCou.
 Requested convergence on RMS density matrix=1.00D-08 within 128 cycles.
 Requested convergence on MAX density matrix=1.00D-06.
 Requested convergence on             energy=1.00D-06.
 No special actions if energy rises.
 Integral accuracy reduced to 1.0D-05 until final iterations.
 Initial convergence to 1.0D-05 achieved.  Increase integral accuracy.
 SCF Done:  E(RB3LYP) =  -543.661114521     A.U. after   13 cycles
            NFock= 13  Conv=0.85D-08     -V/T= 2.0096

 **********************************************************************

            Population analysis using the SCF Density.

 **********************************************************************

 Orbital symmetries:
       Occupied  (A) (A) (A) (A) (A) (A) (A) (A) (A) (A) (A) (A)
                 (A) (A) (A) (A) (A) (A) (A) (A) (A) (A) (A) (A)
                 (A) (A) (A) (A) (A) (A) (A) (A) (A) (A) (A) (A)
                 (A) (A) (A) (A) (A) (A) (A) (A) (A) (A) (A) (A)
       Virtual   (A) (A) (A) (A) (A) (A) (A) (A) (A) (A) (A) (A)
                 (A) (A) (A) (A) (A) (A) (A) (A) (A) (A) (A) (A)
                 (A) (A) (A) (A) (A) (A) (A) (A) (A) (A) (A) (A)
                 (A) (A) (A) (A) (A) (A) (A) (A) (A) (A) (A) (A)
                 (A) (A) (A) (A) (A) (A) (A) (A) (A) (A) (A) (A)
                 (A) (A) (A) (A) (A) (A) (A) (A) (A) (A) (A) (A)
                 (A) (A) (A) (A) (A) (A) (A) (A) (A) (A) (A) (A)
                 (A) (A) (A) (A) (A) (A) (A) (A) (A) (A) (A) (A)
                 (A) (A) (A) (A) (A) (A) (A) (A) (A) (A) (A) (A)
                 (A) (A) (A) (A) (A) (A) (A) (A) (A) (A) (A) (A)
                 (A) (A) (A) (A) (A) (A) (A) (A) (A) (A) (A) (A)
                 (A) (A) (A) (A) (A) (A) (A) (A) (A) (A) (A) (A)
                 (A) (A) (A) (A) (A) (A) (A) (A) (A) (A) (A) (A)
                 (A) (A) (A) (A) (A) (A) (A) (A) (A) (A) (A) (A)
                 (A) (A) (A) (A) (A) (A) (A) (A) (A) (A) (A) (A)
                 (A) (A) (A) (A) (A) (A) (A) (A) (A) (A) (A) (A)
                 (A) (A) (A) (A) (A) (A) (A) (A) (A) (A) (A) (A)
                 (A) (A) (A) (A) (A) (A) (A) (A) (A) (A) (A) (A)
                 (A) (A) (A) (A) (A) (A) (A) (A) (A) (A) (A) (A)
                 (A) (A) (A) (A)
 The electronic state is 1-A.
 Alpha  occ. eigenvalues --  -19.20083 -19.13856 -10.32204 -10.19973 -10.19057
 Alpha  occ. eigenvalues --  -10.18014 -10.17447 -10.17379 -10.17076 -10.17026
 Alpha  occ. eigenvalues --  -10.16840 -10.16803  -1.10920  -1.01225  -0.81011
 Alpha  occ. eigenvalues --   -0.79188  -0.76159  -0.72851  -0.68563  -0.64360
 Alpha  occ. eigenvalues --   -0.61657  -0.59152  -0.56784  -0.55938  -0.48628
 Alpha  occ. eigenvalues --   -0.47961  -0.46977  -0.46477  -0.44916  -0.43669
 Alpha  occ. eigenvalues --   -0.42362  -0.42301  -0.40503  -0.39468  -0.39060
 Alpha  occ. eigenvalues --   -0.38208  -0.36936  -0.36314  -0.35648  -0.34194
 Alpha  occ. eigenvalues --   -0.33573  -0.32568  -0.31953  -0.31726  -0.31147
 Alpha  occ. eigenvalues --   -0.29834  -0.29531  -0.27047
 Alpha virt. eigenvalues --    0.00645   0.06743   0.08918   0.10178   0.10862
 Alpha virt. eigenvalues --    0.12073   0.12727   0.13640   0.14634   0.15312
 Alpha virt. eigenvalues --    0.16260   0.16715   0.17180   0.18148   0.18477
 Alpha virt. eigenvalues --    0.18786   0.19561   0.19813   0.20572   0.21108
 Alpha virt. eigenvalues --    0.21819   0.22615   0.23559   0.24686   0.25765
 Alpha virt. eigenvalues --    0.26161   0.27557   0.29066   0.29786   0.30988
 Alpha virt. eigenvalues --    0.32696   0.38648   0.48189   0.49032   0.51242
 Alpha virt. eigenvalues --    0.51701   0.53465   0.54716   0.54883   0.55608
 Alpha virt. eigenvalues --    0.56303   0.57438   0.58330   0.61560   0.63176
 Alpha virt. eigenvalues --    0.64458   0.65726   0.65866   0.66599   0.67079
 Alpha virt. eigenvalues --    0.68111   0.70312   0.71581   0.72266   0.74729
 Alpha virt. eigenvalues --    0.75776   0.76340   0.76739   0.79872   0.81424
 Alpha virt. eigenvalues --    0.83247   0.84032   0.84986   0.85714   0.86840
 Alpha virt. eigenvalues --    0.87327   0.87852   0.88830   0.89972   0.90485
 Alpha virt. eigenvalues --    0.91157   0.91815   0.92086   0.92836   0.93134
 Alpha virt. eigenvalues --    0.94467   0.95354   0.96449   0.97645   0.97929
 Alpha virt. eigenvalues --    0.99051   1.00647   1.00787   1.02666   1.03644
 Alpha virt. eigenvalues --    1.07479   1.08613   1.12401   1.15262   1.19987
 Alpha virt. eigenvalues --    1.22015   1.27620   1.29239   1.33053   1.35998
 Alpha virt. eigenvalues --    1.37764   1.39434   1.40511   1.44041   1.47941
 Alpha virt. eigenvalues --    1.48744   1.52237   1.52883   1.55245   1.59276
 Alpha virt. eigenvalues --    1.60324   1.62675   1.64774   1.66802   1.68629
 Alpha virt. eigenvalues --    1.69784   1.69953   1.71629   1.73024   1.74840
 Alpha virt. eigenvalues --    1.76718   1.79488   1.80076   1.81568   1.81722
 Alpha virt. eigenvalues --    1.84293   1.86386   1.87510   1.87885   1.89796
 Alpha virt. eigenvalues --    1.90588   1.91678   1.92834   1.95074   1.97630
 Alpha virt. eigenvalues --    1.99509   2.00943   2.03685   2.05064   2.05851
 Alpha virt. eigenvalues --    2.08012   2.11818   2.12830   2.13445   2.14656
 Alpha virt. eigenvalues --    2.15878   2.17135   2.17944   2.21267   2.23058
 Alpha virt. eigenvalues --    2.23878   2.24210   2.24499   2.25810   2.27181
 Alpha virt. eigenvalues --    2.27953   2.28421   2.30344   2.31047   2.33888
 Alpha virt. eigenvalues --    2.34840   2.36597   2.37309   2.38656   2.40883
 Alpha virt. eigenvalues --    2.44270   2.45254   2.46881   2.48484   2.49128
 Alpha virt. eigenvalues --    2.50693   2.52574   2.54492   2.56047   2.57631
 Alpha virt. eigenvalues --    2.59569   2.62193   2.62841   2.64730   2.67556
 Alpha virt. eigenvalues --    2.68737   2.71162   2.72437   2.73526   2.74960
 Alpha virt. eigenvalues --    2.75122   2.78275   2.79223   2.80470   2.81679
 Alpha virt. eigenvalues --    2.83682   2.84051   2.86792   2.88278   2.89450
 Alpha virt. eigenvalues --    2.90160   2.91534   2.91691   2.91872   2.93711
 Alpha virt. eigenvalues --    2.94176   2.95538   2.98143   3.02346   3.11820
 Alpha virt. eigenvalues --    3.19905   3.26728   3.28947   3.32276   3.32996
 Alpha virt. eigenvalues --    3.33524   3.35602   3.36526   3.38404   3.40188
 Alpha virt. eigenvalues --    3.42251   3.43798   3.45871   3.48930   3.50069
 Alpha virt. eigenvalues --    3.53261   3.55727   3.58069   3.59225   3.62559
 Alpha virt. eigenvalues --    3.92623   4.13336   4.25113   4.30084   4.35379
 Alpha virt. eigenvalues --    4.44267   4.50643   4.60517   4.65886   4.69921
 Alpha virt. eigenvalues --    4.73261   4.76038
          Condensed to atoms (all electrons):
               1          2          3          4          5          6
     1  O    8.115494   0.248860  -0.097748   0.004486  -0.001440   0.000055
     2  C    0.248860   4.380823   0.346981  -0.030029  -0.000396  -0.000903
     3  C   -0.097748   0.346981   5.110572   0.333267  -0.049016  -0.000911
     4  C    0.004486  -0.030029   0.333267   4.910011   0.381495  -0.040003
     5  C   -0.001440  -0.000396  -0.049016   0.381495   4.932118   0.355494
     6  C    0.000055  -0.000903  -0.000911  -0.040003   0.355494   4.923293
     7  C   -0.000036  -0.000539   0.001491  -0.001842  -0.036361   0.379453
     8  C   -0.000000   0.000014  -0.000043  -0.000045   0.003927  -0.033847
     9  C   -0.000000  -0.000005   0.000005   0.000011  -0.000039  -0.001526
    10  C   -0.000000   0.000010  -0.000344  -0.000009  -0.000031  -0.001071
    11  C    0.000000  -0.000000   0.000006  -0.000000  -0.000001   0.000105
    12  O   -0.081118   0.553101  -0.071780   0.001270   0.000467  -0.000029
    13  H    0.268862  -0.009392   0.010927  -0.000436  -0.000055  -0.000002
    14  H    0.003038  -0.033488   0.380808  -0.033428  -0.005269   0.003457
    15  H    0.000829  -0.025741   0.360865  -0.022579   0.004454  -0.000107
    16  H    0.005010  -0.008387  -0.034651   0.378216  -0.033367   0.004613
    17  H    0.000029   0.003787  -0.031593   0.377739  -0.039792  -0.007719
    18  H    0.001667   0.005207  -0.008538  -0.036597   0.381390  -0.042542
    19  H    0.000000  -0.000020   0.005422  -0.032120   0.372816  -0.032277
    20  H   -0.000000  -0.000005  -0.000034   0.004122  -0.032389   0.377343
    21  H   -0.000000   0.000109  -0.000454  -0.007879  -0.042129   0.385205
    22  H    0.000041   0.001245  -0.003397   0.000351  -0.000313  -0.042953
    23  H   -0.000002   0.000182  -0.000004  -0.000004  -0.005660  -0.038120
    24  H   -0.000000  -0.000000  -0.000004  -0.000001   0.000237  -0.008523
    25  H    0.000000  -0.000000   0.000001  -0.000000  -0.000171   0.004107
    26  H    0.000000  -0.000000  -0.000013  -0.000002   0.000010  -0.000123
    27  H   -0.000000  -0.000000  -0.000000  -0.000000   0.000003  -0.000116
    28  H    0.000000  -0.000000   0.000011  -0.000008   0.000023  -0.000378
    29  H   -0.000000   0.000003  -0.000207   0.000100   0.000058  -0.003062
    30  H    0.000000  -0.000000  -0.000000  -0.000000  -0.000000   0.000003
    31  H    0.000000  -0.000000   0.000001  -0.000000   0.000000  -0.000002
    32  H   -0.000000   0.000000  -0.000000   0.000000   0.000000  -0.000004
               7          8          9         10         11         12
     1  O   -0.000036  -0.000000  -0.000000  -0.000000   0.000000  -0.081118
     2  C   -0.000539   0.000014  -0.000005   0.000010  -0.000000   0.553101
     3  C    0.001491  -0.000043   0.000005  -0.000344   0.000006  -0.071780
     4  C   -0.001842  -0.000045   0.000011  -0.000009  -0.000000   0.001270
     5  C   -0.036361   0.003927  -0.000039  -0.000031  -0.000001   0.000467
     6  C    0.379453  -0.033847  -0.001526  -0.001071   0.000105  -0.000029
     7  C    4.932293   0.353305  -0.037718  -0.002184  -0.000036  -0.002460
     8  C    0.353305   4.928818   0.377034  -0.042531   0.004147   0.000046
     9  C   -0.037718   0.377034   4.879441   0.386162  -0.041300  -0.000013
    10  C   -0.002184  -0.042531   0.386162   4.874701   0.367764   0.000003
    11  C   -0.000036   0.004147  -0.041300   0.367764   4.924777  -0.000000
    12  O   -0.002460   0.000046  -0.000013   0.000003  -0.000000   8.052634
    13  H    0.000008  -0.000000   0.000000   0.000000  -0.000000   0.011238
    14  H   -0.001408  -0.000031   0.000077   0.000082  -0.000029  -0.000423
    15  H    0.000038  -0.000000  -0.000001   0.000008  -0.000000   0.001405
    16  H   -0.000080   0.000002  -0.000000  -0.000000   0.000000   0.000018
    17  H   -0.000021   0.000003  -0.000001  -0.000027  -0.000000  -0.000077
    18  H   -0.007288   0.000177  -0.000000  -0.000004   0.000000  -0.000373
    19  H    0.004075  -0.000171  -0.000000   0.000002   0.000000   0.000000
    20  H   -0.036929  -0.005769  -0.000017   0.000006  -0.000005  -0.000001
    21  H   -0.043212  -0.001814   0.000012   0.001455  -0.000030  -0.000004
    22  H    0.383877  -0.038591  -0.007316  -0.000592  -0.000069   0.009466
    23  H    0.378892  -0.032101   0.003967   0.000024   0.000001   0.000007
    24  H   -0.044286   0.380925  -0.036479  -0.007315   0.000030  -0.000000
    25  H   -0.032061   0.370558  -0.032160   0.005154  -0.000162   0.000000
    26  H   -0.007371  -0.036313   0.383538  -0.040036  -0.003085   0.000002
    27  H    0.004947  -0.034279   0.378695  -0.043030  -0.005208  -0.000000
    28  H   -0.001316  -0.003114  -0.040472   0.386880  -0.039220  -0.000000
    29  H    0.004518  -0.004058  -0.037519   0.385540  -0.038412  -0.000016
    30  H    0.000005  -0.000167   0.004177  -0.028148   0.378583  -0.000000
    31  H   -0.000009   0.000054  -0.004469  -0.033655   0.386527   0.000000
    32  H    0.000007  -0.000008  -0.005076  -0.033926   0.386474   0.000000
              13         14         15         16         17         18
     1  O    0.268862   0.003038   0.000829   0.005010   0.000029   0.001667
     2  C   -0.009392  -0.033488  -0.025741  -0.008387   0.003787   0.005207
     3  C    0.010927   0.380808   0.360865  -0.034651  -0.031593  -0.008538
     4  C   -0.000436  -0.033428  -0.022579   0.378216   0.377739  -0.036597
     5  C   -0.000055  -0.005269   0.004454  -0.033367  -0.039792   0.381390
     6  C   -0.000002   0.003457  -0.000107   0.004613  -0.007719  -0.042542
     7  C    0.000008  -0.001408   0.000038  -0.000080  -0.000021  -0.007288
     8  C   -0.000000  -0.000031  -0.000000   0.000002   0.000003   0.000177
     9  C    0.000000   0.000077  -0.000001  -0.000000  -0.000001  -0.000000
    10  C    0.000000   0.000082   0.000008  -0.000000  -0.000027  -0.000004
    11  C   -0.000000  -0.000029  -0.000000   0.000000  -0.000000   0.000000
    12  O    0.011238  -0.000423   0.001405   0.000018  -0.000077  -0.000373
    13  H    0.400349  -0.000286  -0.000426  -0.000143   0.000015   0.000091
    14  H   -0.000286   0.577051  -0.032305   0.005335  -0.004246  -0.000161
    15  H   -0.000426  -0.032305   0.592856  -0.004171  -0.004427  -0.000006
    16  H   -0.000143   0.005335  -0.004171   0.621496  -0.036894  -0.002580
    17  H    0.000015  -0.004246  -0.004427  -0.036894   0.636569   0.005881
    18  H    0.000091  -0.000161  -0.000006  -0.002580   0.005881   0.634041
    19  H    0.000002  -0.000003  -0.000155  -0.004879  -0.003521  -0.038268
    20  H   -0.000000  -0.000060   0.000003  -0.000223   0.000162   0.000769
    21  H    0.000000   0.000171  -0.000073   0.000179   0.005334   0.005386
    22  H   -0.000023   0.001742   0.000265  -0.000087  -0.000008  -0.000114
    23  H    0.000000   0.000019  -0.000005   0.000011   0.000008   0.005221
    24  H    0.000000   0.000004   0.000000  -0.000000   0.000001   0.000017
    25  H   -0.000000  -0.000002   0.000000  -0.000000  -0.000000  -0.000011
    26  H   -0.000000   0.000104  -0.000000   0.000000  -0.000000   0.000000
    27  H    0.000000   0.000001   0.000000   0.000000   0.000000  -0.000000
    28  H   -0.000000  -0.000019  -0.000000   0.000000  -0.000003   0.000000
    29  H    0.000000   0.003354  -0.000013   0.000001   0.000174   0.000001
    30  H    0.000000   0.000000   0.000000   0.000000   0.000000  -0.000000
    31  H   -0.000000   0.000010  -0.000000   0.000000  -0.000000  -0.000000
    32  H    0.000000   0.000001   0.000000   0.000000   0.000000  -0.000000
              19         20         21         22         23         24
     1  O    0.000000  -0.000000  -0.000000   0.000041  -0.000002  -0.000000
     2  C   -0.000020  -0.000005   0.000109   0.001245   0.000182  -0.000000
     3  C    0.005422  -0.000034  -0.000454  -0.003397  -0.000004  -0.000004
     4  C   -0.032120   0.004122  -0.007879   0.000351  -0.000004  -0.000001
     5  C    0.372816  -0.032389  -0.042129  -0.000313  -0.005660   0.000237
     6  C   -0.032277   0.377343   0.385205  -0.042953  -0.038120  -0.008523
     7  C    0.004075  -0.036929  -0.043212   0.383877   0.378892  -0.044286
     8  C   -0.000171  -0.005769  -0.001814  -0.038591  -0.032101   0.380925
     9  C   -0.000000  -0.000017   0.000012  -0.007316   0.003967  -0.036479
    10  C    0.000002   0.000006   0.001455  -0.000592   0.000024  -0.007315
    11  C    0.000000  -0.000005  -0.000030  -0.000069   0.000001   0.000030
    12  O    0.000000  -0.000001  -0.000004   0.009466   0.000007  -0.000000
    13  H    0.000002  -0.000000   0.000000  -0.000023   0.000000   0.000000
    14  H   -0.000003  -0.000060   0.000171   0.001742   0.000019   0.000004
    15  H   -0.000155   0.000003  -0.000073   0.000265  -0.000005   0.000000
    16  H   -0.004879  -0.000223   0.000179  -0.000087   0.000011  -0.000000
    17  H   -0.003521   0.000162   0.005334  -0.000008   0.000008   0.000001
    18  H   -0.038268   0.000769   0.005386  -0.000114   0.005221   0.000017
    19  H    0.645234  -0.009423   0.000802  -0.000009   0.000065  -0.000010
    20  H   -0.009423   0.648577  -0.039990   0.005762  -0.007729   0.005339
    21  H    0.000802  -0.039990   0.637617  -0.004092   0.006051   0.000572
    22  H   -0.000009   0.005762  -0.004092   0.608251  -0.038716   0.005139
    23  H    0.000065  -0.007729   0.006051  -0.038716   0.647539   0.001144
    24  H   -0.000010   0.005339   0.000572   0.005139   0.001144   0.650760
    25  H    0.000004   0.000101  -0.000009   0.000988  -0.009837  -0.040151
    26  H   -0.000000   0.000007   0.000117   0.004765   0.000121   0.005936
    27  H   -0.000000   0.000015  -0.000071   0.000173  -0.000224  -0.003796
    28  H   -0.000000   0.000078   0.002149   0.000189  -0.000011   0.005193
    29  H   -0.000004   0.000060   0.002165  -0.000162  -0.000049  -0.000368
    30  H   -0.000000   0.000000  -0.000008   0.000002  -0.000000  -0.000000
    31  H   -0.000000   0.000000   0.000006   0.000002  -0.000000   0.000007
    32  H   -0.000000   0.000000   0.000003  -0.000000   0.000000  -0.000001
              25         26         27         28         29         30
     1  O    0.000000   0.000000  -0.000000   0.000000  -0.000000   0.000000
     2  C   -0.000000  -0.000000  -0.000000  -0.000000   0.000003  -0.000000
     3  C    0.000001  -0.000013  -0.000000   0.000011  -0.000207  -0.000000
     4  C   -0.000000  -0.000002  -0.000000  -0.000008   0.000100  -0.000000
     5  C   -0.000171   0.000010   0.000003   0.000023   0.000058  -0.000000
     6  C    0.004107  -0.000123  -0.000116  -0.000378  -0.003062   0.000003
     7  C   -0.032061  -0.007371   0.004947  -0.001316   0.004518   0.000005
     8  C    0.370558  -0.036313  -0.034279  -0.003114  -0.004058  -0.000167
     9  C   -0.032160   0.383538   0.378695  -0.040472  -0.037519   0.004177
    10  C    0.005154  -0.040036  -0.043030   0.386880   0.385540  -0.028148
    11  C   -0.000162  -0.003085  -0.005208  -0.039220  -0.038412   0.378583
    12  O    0.000000   0.000002  -0.000000  -0.000000  -0.000016  -0.000000
    13  H   -0.000000  -0.000000   0.000000  -0.000000   0.000000   0.000000
    14  H   -0.000002   0.000104   0.000001  -0.000019   0.003354   0.000000
    15  H    0.000000  -0.000000   0.000000  -0.000000  -0.000013   0.000000
    16  H   -0.000000   0.000000   0.000000   0.000000   0.000001   0.000000
    17  H   -0.000000  -0.000000   0.000000  -0.000003   0.000174   0.000000
    18  H   -0.000011   0.000000  -0.000000   0.000000   0.000001  -0.000000
    19  H    0.000004  -0.000000  -0.000000  -0.000000  -0.000004  -0.000000
    20  H    0.000101   0.000007   0.000015   0.000078   0.000060   0.000000
    21  H   -0.000009   0.000117  -0.000071   0.002149   0.002165  -0.000008
    22  H    0.000988   0.004765   0.000173   0.000189  -0.000162   0.000002
    23  H   -0.009837   0.000121  -0.000224  -0.000011  -0.000049  -0.000000
    24  H   -0.040151   0.005936  -0.003796   0.005193  -0.000368  -0.000000
    25  H    0.654510  -0.004340  -0.004248  -0.000005  -0.000069   0.000003
    26  H   -0.004340   0.638975  -0.040442   0.006196  -0.007613  -0.000066
    27  H   -0.004248  -0.040442   0.655818  -0.004860   0.006363   0.000049
    28  H   -0.000005   0.006196  -0.004860   0.643856  -0.043632  -0.003096
    29  H   -0.000069  -0.007613   0.006363  -0.043632   0.638965  -0.002982
    30  H    0.000003  -0.000066   0.000049  -0.003096  -0.002982   0.620360
    31  H    0.000003   0.004517  -0.000472   0.005501  -0.005428  -0.032662
    32  H   -0.000005  -0.000431   0.005507  -0.005078   0.005431  -0.032674
              31         32
     1  O    0.000000  -0.000000
     2  C   -0.000000   0.000000
     3  C    0.000001  -0.000000
     4  C   -0.000000   0.000000
     5  C    0.000000   0.000000
     6  C   -0.000002  -0.000004
     7  C   -0.000009   0.000007
     8  C    0.000054  -0.000008
     9  C   -0.004469  -0.005076
    10  C   -0.033655  -0.033926
    11  C    0.386527   0.386474
    12  O    0.000000   0.000000
    13  H   -0.000000   0.000000
    14  H    0.000010   0.000001
    15  H   -0.000000   0.000000
    16  H    0.000000   0.000000
    17  H   -0.000000   0.000000
    18  H   -0.000000  -0.000000
    19  H   -0.000000  -0.000000
    20  H    0.000000   0.000000
    21  H    0.000006   0.000003
    22  H    0.000002  -0.000000
    23  H   -0.000000   0.000000
    24  H    0.000007  -0.000001
    25  H    0.000003  -0.000005
    26  H    0.004517  -0.000431
    27  H   -0.000472   0.005507
    28  H    0.005501  -0.005078
    29  H   -0.005428   0.005431
    30  H   -0.032662  -0.032674
    31  H    0.609353  -0.033220
    32  H   -0.033220   0.610377
 Mulliken charges:
               1
     1  O   -0.468029
     2  C    0.568583
     3  C   -0.251625
     4  C   -0.186086
     5  C   -0.186064
     6  C   -0.178912
     7  C   -0.187753
     8  C   -0.186128
     9  C   -0.169007
    10  C   -0.174889
    11  C   -0.320855
    12  O   -0.473366
    13  H    0.319270
    14  H    0.135902
    15  H    0.129285
    16  H    0.110580
    17  H    0.098625
    18  H    0.096634
    19  H    0.092438
    20  H    0.090229
    21  H    0.092432
    22  H    0.114182
    23  H    0.089210
    24  H    0.085633
    25  H    0.087802
    26  H    0.095547
    27  H    0.085176
    28  H    0.091138
    29  H    0.096861
    30  H    0.096622
    31  H    0.103938
    32  H    0.102624
 Sum of Mulliken charges =  -0.00000
 Mulliken charges with hydrogens summed into heavy atoms:
               1
     1  O   -0.148759
     2  C    0.568583
     3  C    0.013562
     4  C    0.023120
     5  C    0.003008
     6  C    0.003749
     7  C    0.015639
     8  C   -0.012693
     9  C    0.011716
    10  C    0.013110
    11  C   -0.017670
    12  O   -0.473366
 Electronic spatial extent (au):  <R**2>=           3135.6579
 Charge=             -0.0000 electrons
 Dipole moment (field-independent basis, Debye):
    X=             -0.7742    Y=              0.7164    Z=              1.2181  Tot=              1.6114
 Quadrupole moment (field-independent basis, Debye-Ang):
   XX=            -70.9887   YY=            -77.2839   ZZ=            -77.2498
   XY=              0.4221   XZ=              1.2103   YZ=             -2.7288
 Traceless Quadrupole moment (field-independent basis, Debye-Ang):
   XX=              4.1855   YY=             -2.1098   ZZ=             -2.0757
   XY=              0.4221   XZ=              1.2103   YZ=             -2.7288
 Octapole moment (field-independent basis, Debye-Ang**2):
  XXX=            -58.4269  YYY=             -4.9590  ZZZ=             -1.0676  XYY=            -10.2448
  XXY=             -7.7090  XXZ=            -22.3551  XZZ=            -11.7539  YZZ=              1.7817
  YYZ=              3.2643  XYZ=              3.2404
 Hexadecapole moment (field-independent basis, Debye-Ang**3):
 XXXX=          -2569.5671 YYYY=           -797.1978 ZZZZ=           -587.4707 XXXY=             73.6193
 XXXZ=            123.4620 YYYX=             25.6739 YYYZ=              4.3263 ZZZX=             12.3537
 ZZZY=             -2.3787 XXYY=           -589.2152 XXZZ=           -528.4727 YYZZ=           -237.0433
 XXYZ=             14.8564 YYXZ=             -4.8975 ZZXY=              2.8399
 N-N= 7.410528015705D+02 E-N=-2.745488171732D+03  KE= 5.384930949324D+02
 Calling FoFJK, ICntrl=      2127 FMM=F ISym2X=0 I1Cent= 0 IOpClX= 0 NMat=1 NMatS=1 NMatT=0.
 ***** Axes restored to original set *****
 -------------------------------------------------------------------
 Center     Atomic                   Forces (Hartrees/Bohr)
 Number     Number              X              Y              Z
 -------------------------------------------------------------------
      1        8          -0.011754213   -0.002839986   -0.002091985
      2        6          -0.008851107   -0.004330165   -0.020869625
      3        6           0.001863439   -0.007180075    0.003926260
      4        6           0.007173916   -0.000237405    0.001889051
      5        6          -0.007027765    0.003954293   -0.003826169
      6        6           0.009695607    0.002164203    0.000582441
      7        6          -0.007721528   -0.004004424   -0.000585828
      8        6           0.003826280    0.007932011   -0.002393677
      9        6          -0.004800269   -0.004427827    0.008036576
     10        6           0.004312995    0.002321337   -0.008130816
     11        6           0.000811249   -0.002022921    0.004390872
     12        8          -0.005663221    0.000223354    0.015904512
     13        1           0.016321227    0.002367552    0.002391055
     14        1           0.004252126   -0.001509429   -0.002374324
     15        1          -0.002484925    0.004322046    0.004316210
     16        1           0.003180824    0.001255140    0.001657773
     17        1          -0.002945283    0.000309441   -0.003929436
     18        1           0.004643216    0.001544138   -0.001484893
     19        1          -0.002494753    0.000239927    0.003455619
     20        1           0.000425228   -0.004055464   -0.000065535
     21        1          -0.003033708    0.003474219   -0.001919935
     22        1           0.000148125    0.004766733   -0.000551608
     23        1           0.002274121   -0.001975710    0.002927877
     24        1          -0.004461445   -0.002109286    0.001872313
     25        1           0.002947066   -0.000851090   -0.002333141
     26        1           0.002564529    0.003540751    0.000540262
     27        1          -0.001763881   -0.002330381   -0.003739143
     28        1          -0.001843846   -0.003544125    0.001415245
     29        1           0.000742134    0.001741638    0.003905864
     30        1          -0.002674520    0.001377693    0.000613567
     31        1           0.002267463    0.001917744   -0.001021935
     32        1           0.000070917   -0.002033931   -0.002507444
 -------------------------------------------------------------------
 Cartesian Forces:  Max     0.020869625 RMS     0.004912623

 GradGradGradGradGradGradGradGradGradGradGradGradGradGradGradGradGradGrad
 Berny optimization.
 FormGI is forming the generalized inverse of G from B-inverse, IUseBI=4.
 Internal  Forces:  Max     0.016226744 RMS     0.002981025
 Search for a local minimum.
 Step number   1 out of a maximum of  179
 All quantities printed in internal units (Hartrees-Bohrs-Radians)
 Mixed Optimization -- RFO/linear search
 Second derivative matrix not updated -- first step.
 ITU=  0
     Eigenvalues ---    0.00230   0.00230   0.00230   0.00230   0.00230
     Eigenvalues ---    0.00230   0.00249   0.00303   0.00403   0.00885
     Eigenvalues ---    0.02341   0.03004   0.03082   0.03105   0.03173
     Eigenvalues ---    0.03178   0.03205   0.03458   0.03613   0.04615
     Eigenvalues ---    0.04674   0.04675   0.04676   0.04681   0.04684
     Eigenvalues ---    0.04767   0.05152   0.05413   0.05466   0.08297
     Eigenvalues ---    0.08581   0.08630   0.08714   0.08765   0.08782
     Eigenvalues ---    0.09013   0.09859   0.12186   0.12409   0.12450
     Eigenvalues ---    0.12491   0.12547   0.12566   0.12695   0.13143
     Eigenvalues ---    0.16000   0.16000   0.16000   0.16000   0.21873
     Eigenvalues ---    0.21883   0.21899   0.21907   0.21907   0.21923
     Eigenvalues ---    0.21925   0.21947   0.24992   0.25000   0.27620
     Eigenvalues ---    0.27897   0.28109   0.28126   0.28172   0.28177
     Eigenvalues ---    0.28603   0.28965   0.29665   0.34537   0.34615
     Eigenvalues ---    0.34632   0.34635   0.34641   0.34643   0.34644
     Eigenvalues ---    0.34647   0.34650   0.34652   0.34668   0.34718
     Eigenvalues ---    0.34736   0.34758   0.34774   0.34892   0.34906
     Eigenvalues ---    0.34934   0.34952   0.54833   0.56043   0.94447
 RFO step:  Lambda=-7.00433609D-03 EMin= 2.30000000D-03
 Linear search not attempted -- first point.
 Iteration  1 RMS(Cart)=  0.17260171 RMS(Int)=  0.00293427
 Iteration  2 RMS(Cart)=  0.00922217 RMS(Int)=  0.00023276
 Iteration  3 RMS(Cart)=  0.00003905 RMS(Int)=  0.00023224
 Iteration  4 RMS(Cart)=  0.00000001 RMS(Int)=  0.00023224
 Variable       Old X    -DE/DX   Delta X   Delta X   Delta X     New X
                                 (Linear)    (Quad)   (Total)
    R1        2.55281   0.00159   0.00000   0.00286   0.00286   2.55567
    R2        1.80917   0.01623   0.00000   0.02860   0.02860   1.83777
    R3        2.88637  -0.01071   0.00000  -0.03528  -0.03528   2.85109
    R4        2.30949  -0.01597   0.00000  -0.01678  -0.01678   2.29270
    R5        2.92977  -0.00932   0.00000  -0.03290  -0.03290   2.89686
    R6        2.05782   0.00161   0.00000   0.00451   0.00451   2.06233
    R7        2.05828   0.00563   0.00000   0.01582   0.01582   2.07410
    R8        2.92364  -0.00746   0.00000  -0.02608  -0.02608   2.89756
    R9        2.06434   0.00240   0.00000   0.00680   0.00680   2.07114
   R10        2.06272   0.00340   0.00000   0.00962   0.00962   2.07234
   R11        2.91901  -0.00263   0.00000  -0.00912  -0.00912   2.90989
   R12        2.06257   0.00424   0.00000   0.01201   0.01201   2.07457
   R13        2.06252   0.00347   0.00000   0.00983   0.00983   2.07235
   R14        2.91752  -0.00402   0.00000  -0.01393  -0.01393   2.90359
   R15        2.06277   0.00388   0.00000   0.01097   0.01097   2.07374
   R16        2.05850   0.00446   0.00000   0.01252   0.01252   2.07102
   R17        2.91865  -0.00171   0.00000  -0.00593  -0.00593   2.91271
   R18        2.05753   0.00467   0.00000   0.01310   0.01310   2.07062
   R19        2.06247   0.00375   0.00000   0.01061   0.01061   2.07308
   R20        2.91765  -0.00434   0.00000  -0.01502  -0.01502   2.90262
   R21        2.06244   0.00459   0.00000   0.01298   0.01298   2.07542
   R22        2.06261   0.00373   0.00000   0.01056   0.01056   2.07318
   R23        2.90839  -0.00370   0.00000  -0.01261  -0.01261   2.89578
   R24        2.06305   0.00414   0.00000   0.01171   0.01171   2.07477
   R25        2.06258   0.00459   0.00000   0.01298   0.01298   2.07557
   R26        2.90076  -0.00169   0.00000  -0.00568  -0.00568   2.89507
   R27        2.06218   0.00414   0.00000   0.01171   0.01171   2.07389
   R28        2.06043   0.00422   0.00000   0.01191   0.01191   2.07234
   R29        2.06069   0.00305   0.00000   0.00860   0.00860   2.06929
   R30        2.06136   0.00307   0.00000   0.00867   0.00867   2.07003
   R31        2.06105   0.00315   0.00000   0.00890   0.00890   2.06995
    A1        1.81571   0.00686   0.00000   0.04107   0.04107   1.85679
    A2        1.97006  -0.00155   0.00000  -0.00540  -0.00612   1.96394
    A3        2.14976  -0.00542   0.00000  -0.02042  -0.02112   2.12864
    A4        2.16289   0.00701   0.00000   0.02786   0.02712   2.19001
    A5        2.01651  -0.00438   0.00000  -0.02737  -0.02762   1.98889
    A6        1.89595  -0.00238   0.00000  -0.03400  -0.03404   1.86191
    A7        1.85903   0.00334   0.00000   0.02058   0.02065   1.87968
    A8        1.92941   0.00388   0.00000   0.01895   0.01816   1.94757
    A9        1.91409  -0.00122   0.00000  -0.00585  -0.00586   1.90824
   A10        1.83944   0.00122   0.00000   0.03328   0.03333   1.87277
   A11        2.03694  -0.00618   0.00000  -0.03559  -0.03589   2.00105
   A12        1.90030   0.00205   0.00000   0.00927   0.00941   1.90972
   A13        1.89592  -0.00039   0.00000  -0.01883  -0.01907   1.87685
   A14        1.89602   0.00155   0.00000   0.00945   0.00937   1.90540
   A15        1.89694   0.00294   0.00000   0.01000   0.00915   1.90609
   A16        1.82620   0.00073   0.00000   0.03332   0.03322   1.85942
   A17        2.01277  -0.00165   0.00000  -0.01266  -0.01323   1.99954
   A18        1.93103   0.00010   0.00000  -0.02020  -0.02103   1.91000
   A19        1.87109  -0.00098   0.00000   0.00297   0.00301   1.87410
   A20        1.92836  -0.00103   0.00000  -0.02392  -0.02465   1.90371
   A21        1.88232   0.00316   0.00000   0.03974   0.03988   1.92220
   A22        1.82723   0.00075   0.00000   0.02064   0.02094   1.84817
   A23        1.99732  -0.00104   0.00000  -0.00835  -0.00855   1.98877
   A24        1.89106   0.00148   0.00000   0.01961   0.01965   1.91071
   A25        1.91566  -0.00035   0.00000  -0.01251  -0.01281   1.90286
   A26        1.87876  -0.00024   0.00000   0.00394   0.00399   1.88275
   A27        1.94195  -0.00025   0.00000  -0.01410  -0.01438   1.92757
   A28        1.83042   0.00062   0.00000   0.01512   0.01522   1.84564
   A29        1.99196   0.00049   0.00000   0.00044   0.00041   1.99237
   A30        1.94548  -0.00058   0.00000  -0.01066  -0.01071   1.93477
   A31        1.88387  -0.00128   0.00000  -0.00774  -0.00777   1.87610
   A32        1.90938  -0.00040   0.00000  -0.00509  -0.00515   1.90424
   A33        1.89525   0.00127   0.00000   0.01628   0.01629   1.91154
   A34        1.82998   0.00056   0.00000   0.00832   0.00828   1.83825
   A35        2.01204  -0.00139   0.00000  -0.01026  -0.01055   2.00149
   A36        1.92825  -0.00053   0.00000  -0.01658  -0.01696   1.91129
   A37        1.88566   0.00145   0.00000   0.02031   0.02039   1.90605
   A38        1.92276  -0.00001   0.00000  -0.01409  -0.01451   1.90825
   A39        1.87325   0.00016   0.00000   0.00898   0.00904   1.88229
   A40        1.83183   0.00058   0.00000   0.01609   0.01626   1.84810
   A41        2.00896   0.00092   0.00000   0.00200   0.00195   2.01090
   A42        1.90749  -0.00082   0.00000  -0.01025  -0.01029   1.89719
   A43        1.88790   0.00053   0.00000   0.01039   0.01039   1.89830
   A44        1.90877  -0.00058   0.00000  -0.01009  -0.01015   1.89862
   A45        1.90067  -0.00079   0.00000  -0.00142  -0.00145   1.89922
   A46        1.84269   0.00076   0.00000   0.01052   0.01056   1.85325
   A47        1.96636  -0.00020   0.00000  -0.00027  -0.00027   1.96609
   A48        1.91663  -0.00062   0.00000  -0.00775  -0.00776   1.90887
   A49        1.91462  -0.00017   0.00000  -0.00172  -0.00174   1.91288
   A50        1.90795   0.00066   0.00000   0.00543   0.00542   1.91337
   A51        1.89526   0.00052   0.00000   0.00700   0.00700   1.90225
   A52        1.85987  -0.00018   0.00000  -0.00264  -0.00268   1.85719
   A53        1.93725   0.00091   0.00000   0.00782   0.00783   1.94508
   A54        1.94259  -0.00062   0.00000  -0.00493  -0.00495   1.93764
   A55        1.94397  -0.00072   0.00000  -0.00548  -0.00550   1.93847
   A56        1.87764   0.00011   0.00000   0.00281   0.00282   1.88045
   A57        1.87757   0.00018   0.00000   0.00338   0.00339   1.88096
   A58        1.88186   0.00017   0.00000  -0.00337  -0.00342   1.87844
    D1       -3.13092  -0.00050   0.00000  -0.02975  -0.02892   3.12335
    D2       -0.02142   0.00079   0.00000   0.03932   0.03849   0.01706
    D3       -0.91063   0.00122   0.00000   0.03698   0.03766  -0.87297
    D4       -3.08982   0.00125   0.00000   0.05982   0.05961  -3.03021
    D5        1.21965  -0.00069   0.00000   0.02713   0.02743   1.24708
    D6        2.26334   0.00019   0.00000  -0.03166  -0.03150   2.23184
    D7        0.08415   0.00022   0.00000  -0.00882  -0.00955   0.07460
    D8       -1.88957  -0.00172   0.00000  -0.04151  -0.04173  -1.93130
    D9       -1.04880   0.00167   0.00000   0.05839   0.05874  -0.99007
   D10        1.10445   0.00086   0.00000   0.05238   0.05255   1.15700
   D11        3.08352   0.00257   0.00000   0.08657   0.08644  -3.11323
   D12        1.11298  -0.00172   0.00000   0.00701   0.00708   1.12006
   D13       -3.01696  -0.00253   0.00000   0.00100   0.00089  -3.01606
   D14       -1.03788  -0.00082   0.00000   0.03519   0.03478  -1.00310
   D15        3.13381   0.00128   0.00000   0.05494   0.05517  -3.09420
   D16       -0.99612   0.00048   0.00000   0.04893   0.04899  -0.94713
   D17        0.98295   0.00218   0.00000   0.08311   0.08287   1.06583
   D18       -1.15631   0.00307   0.00000   0.12553   0.12542  -1.03089
   D19        1.04803   0.00040   0.00000   0.06490   0.06507   1.11310
   D20        3.03075   0.00080   0.00000   0.08075   0.08076   3.11151
   D21        2.97143   0.00360   0.00000   0.13154   0.13148   3.10291
   D22       -1.10742   0.00093   0.00000   0.07090   0.07114  -1.03628
   D23        0.87529   0.00133   0.00000   0.08675   0.08683   0.96212
   D24        0.99403   0.00044   0.00000   0.08246   0.08220   1.07623
   D25       -3.08482  -0.00223   0.00000   0.02182   0.02186  -3.06297
   D26       -1.10211  -0.00183   0.00000   0.03767   0.03755  -1.06456
   D27        1.61865  -0.00125   0.00000  -0.05044  -0.05026   1.56840
   D28       -2.56839  -0.00117   0.00000  -0.03675  -0.03660  -2.60499
   D29       -0.57893   0.00017   0.00000  -0.01478  -0.01470  -0.59364
   D30       -0.58705   0.00083   0.00000   0.00822   0.00806  -0.57899
   D31        1.50909   0.00092   0.00000   0.02191   0.02171   1.53081
   D32       -2.78463   0.00226   0.00000   0.04388   0.04361  -2.74102
   D33       -2.57456  -0.00127   0.00000  -0.02579  -0.02568  -2.60024
   D34       -0.47842  -0.00118   0.00000  -0.01210  -0.01202  -0.49044
   D35        1.51104   0.00016   0.00000   0.00987   0.00988   1.52091
   D36       -3.10091   0.00162   0.00000   0.05312   0.05304  -3.04787
   D37       -0.92693   0.00099   0.00000   0.03791   0.03785  -0.88908
   D38        1.07376   0.00061   0.00000   0.03768   0.03763   1.11139
   D39        1.07930   0.00057   0.00000   0.03073   0.03070   1.10999
   D40       -3.02991  -0.00005   0.00000   0.01551   0.01550  -3.01441
   D41       -1.02922  -0.00044   0.00000   0.01528   0.01529  -1.01393
   D42       -0.91710   0.00011   0.00000   0.01782   0.01787  -0.89924
   D43        1.25687  -0.00052   0.00000   0.00260   0.00268   1.25955
   D44       -3.02562  -0.00090   0.00000   0.00237   0.00246  -3.02316
   D45        1.63771  -0.00086   0.00000  -0.03917  -0.03909   1.59862
   D46       -0.55598   0.00072   0.00000   0.00234   0.00223  -0.55375
   D47       -2.55076  -0.00051   0.00000  -0.01940  -0.01938  -2.57014
   D48       -0.55540  -0.00014   0.00000  -0.02121  -0.02113  -0.57653
   D49       -2.74909   0.00144   0.00000   0.02030   0.02019  -2.72890
   D50        1.53932   0.00022   0.00000  -0.00145  -0.00142   1.53790
   D51       -2.54330  -0.00127   0.00000  -0.03708  -0.03699  -2.58029
   D52        1.54620   0.00031   0.00000   0.00443   0.00433   1.55053
   D53       -0.44858  -0.00091   0.00000  -0.01731  -0.01728  -0.46586
   D54       -1.11013   0.00133   0.00000   0.04415   0.04408  -1.06605
   D55        1.04535   0.00058   0.00000   0.02412   0.02407   1.06942
   D56        3.04336   0.00134   0.00000   0.03676   0.03667   3.08003
   D57        1.08638  -0.00050   0.00000   0.00148   0.00157   1.08795
   D58       -3.04132  -0.00126   0.00000  -0.01855  -0.01845  -3.05977
   D59       -1.04331  -0.00050   0.00000  -0.00591  -0.00585  -1.04916
   D60        3.07154   0.00026   0.00000   0.01820   0.01819   3.08972
   D61       -1.05616  -0.00049   0.00000  -0.00183  -0.00183  -1.05799
   D62        0.94185   0.00026   0.00000   0.01081   0.01077   0.95262
   D63       -3.02886  -0.00061   0.00000  -0.02251  -0.02250  -3.05135
   D64       -0.89769  -0.00035   0.00000  -0.02131  -0.02130  -0.91899
   D65        1.14082  -0.00103   0.00000  -0.03003  -0.03001   1.11081
   D66        1.09952   0.00027   0.00000  -0.00238  -0.00240   1.09712
   D67       -3.05250   0.00053   0.00000  -0.00118  -0.00120  -3.05370
   D68       -1.01399  -0.00015   0.00000  -0.00991  -0.00991  -1.02390
   D69       -0.90606   0.00011   0.00000  -0.00867  -0.00868  -0.91474
   D70        1.22510   0.00038   0.00000  -0.00747  -0.00748   1.21762
   D71       -3.01957  -0.00030   0.00000  -0.01620  -0.01620  -3.03577
   D72       -3.13321  -0.00014   0.00000  -0.00155  -0.00156  -3.13477
   D73       -1.04239   0.00020   0.00000   0.00395   0.00393  -1.03846
   D74        1.05831  -0.00050   0.00000  -0.00743  -0.00742   1.05090
   D75        1.01392   0.00032   0.00000   0.00466   0.00467   1.01859
   D76        3.10474   0.00065   0.00000   0.01017   0.01016   3.11490
   D77       -1.07774  -0.00004   0.00000  -0.00121  -0.00119  -1.07893
   D78       -1.00870  -0.00012   0.00000   0.00098   0.00098  -1.00772
   D79        1.08212   0.00022   0.00000   0.00649   0.00647   1.08859
   D80       -3.10036  -0.00048   0.00000  -0.00489  -0.00488  -3.10524
         Item               Value     Threshold  Converged?
 Maximum Force            0.016227     0.000450     NO 
 RMS     Force            0.002981     0.000300     NO 
 Maximum Displacement     0.646815     0.001800     NO 
 RMS     Displacement     0.173189     0.001200     NO 
 Predicted change in Energy=-4.023578D-03
 GradGradGradGradGradGradGradGradGradGradGradGradGradGradGradGradGradGrad

                          Input orientation:                          
 ---------------------------------------------------------------------
 Center     Atomic      Atomic             Coordinates (Angstroms)
 Number     Number       Type             X           Y           Z
 ---------------------------------------------------------------------
      1          8           0        4.912387   -0.381969   -0.057491
      2          6           0        4.406062   -0.634230   -1.285903
      3          6           0        2.899756   -0.719735   -1.283800
      4          6           0        2.330587   -1.648848   -0.205494
      5          6           0        2.852033   -3.089652   -0.262500
      6          6           0        2.572788   -3.819484   -1.589341
      7          6           0        3.681071   -3.649487   -2.639906
      8          6           0        3.349188   -4.267310   -4.012453
      9          6           0        2.675840   -3.305436   -5.002759
     10          6           0        1.323669   -2.743895   -4.550543
     11          6           0        0.646617   -1.894376   -5.630803
     12          8           0        5.119769   -0.806180   -2.251834
     13          1           0        5.879479   -0.362442   -0.158072
     14          1           0        2.602629   -1.037010   -2.284835
     15          1           0        2.508206    0.294489   -1.133164
     16          1           0        2.540386   -1.229079    0.784959
     17          1           0        1.239665   -1.655239   -0.317101
     18          1           0        3.932974   -3.094770   -0.070816
     19          1           0        2.396469   -3.636117    0.572038
     20          1           0        2.452020   -4.893263   -1.397900
     21          1           0        1.610959   -3.478602   -1.989038
     22          1           0        3.932286   -2.591432   -2.774179
     23          1           0        4.589968   -4.114605   -2.238613
     24          1           0        2.711436   -5.150432   -3.872599
     25          1           0        4.273260   -4.634530   -4.475937
     26          1           0        3.358305   -2.468234   -5.199637
     27          1           0        2.541525   -3.823014   -5.962149
     28          1           0        0.662757   -3.572129   -4.264836
     29          1           0        1.461553   -2.132915   -3.650380
     30          1           0       -0.313670   -1.497834   -5.284862
     31          1           0        1.276398   -1.044010   -5.913975
     32          1           0        0.458828   -2.483632   -6.534878
 ---------------------------------------------------------------------
                    Distance matrix (angstroms):
                    1          2          3          4          5
     1  O    0.000000
     2  C    1.352404   0.000000
     3  C    2.380883   1.508732   0.000000
     4  C    2.879684   2.550359   1.532955   0.000000
     5  C    3.408612   3.080821   2.581054   1.533321   0.000000
     6  C    4.431343   3.687657   3.131886   2.585606   1.539850
     7  C    4.343003   3.383890   3.321584   3.428225   2.579297
     8  C    5.760311   4.663724   4.498091   4.731472   3.961840
     9  C    6.164777   4.893264   4.535046   5.086968   4.748437
[...]
 Alpha virt. eigenvalues --    4.22942   4.23841   4.25449   4.30984   4.32725
 Alpha virt. eigenvalues --    4.33746   4.35835   4.39469   4.42954   4.44589
 Alpha virt. eigenvalues --    4.47857   4.51027   4.51218   4.52151   4.53868
 Alpha virt. eigenvalues --    4.54484   4.57830   4.60592   4.62695   4.64175
 Alpha virt. eigenvalues --    4.66639   4.68522   4.71555   4.72851   4.76263
 Alpha virt. eigenvalues --    4.79310   4.80232   4.84582   4.88680   4.91536
 Alpha virt. eigenvalues --    4.92715   5.02109   5.06404   5.17116   5.20815
 Alpha virt. eigenvalues --    5.22531   5.39231   5.40291   5.51175   5.59465
 Alpha virt. eigenvalues --    5.73578   5.85275   5.86671   6.15073   6.19325
 Alpha virt. eigenvalues --    6.33811   6.35075   6.46754   6.48432   6.64415
 Alpha virt. eigenvalues --    6.69582   6.74100   6.83002   6.88886   7.07329
 Alpha virt. eigenvalues --    7.10380   7.28105  22.42635  22.51151  22.58714
 Alpha virt. eigenvalues --   22.59798  22.60732  22.61680  22.64364  22.65681
 Alpha virt. eigenvalues --   22.68326  23.29189  43.95692  44.03844
          Condensed to atoms (all electrons):
               1          2          3          4          5          6
     1  O    7.954796   0.358405  -0.127032   0.013884  -0.008432   0.002214
     2  C    0.358405   4.525479   0.231125  -0.017911   0.013744  -0.002807
     3  C   -0.127032   0.231125   5.479965   0.136324  -0.040523   0.006776
     4  C    0.013884  -0.017911   0.136324   5.241673   0.221222  -0.017637
     5  C   -0.008432   0.013744  -0.040523   0.221222   5.271599   0.143134
     6  C    0.002214  -0.002807   0.006776  -0.017637   0.143134   5.442557
     7  C   -0.001284  -0.005187   0.026395  -0.013362  -0.013453   0.141630
     8  C   -0.000018   0.000936  -0.001275  -0.000981   0.009851  -0.023138
     9  C   -0.000002  -0.000587   0.002412  -0.000406  -0.001072   0.000188
    10  C    0.000003   0.000957  -0.006170   0.002444  -0.000871   0.002488
    11  C    0.000000   0.000020   0.000025   0.000005  -0.000093   0.001422
    12  O   -0.090660   0.662880  -0.114385   0.007219  -0.000503   0.000600
    13  H    0.288876  -0.025642   0.019310  -0.003007   0.001149  -0.000137
    14  H    0.006343  -0.048630   0.400551  -0.021772  -0.015945   0.018442
    15  H    0.003381  -0.020124   0.395848  -0.037624   0.009106  -0.001872
    16  H    0.001708  -0.009070  -0.026500   0.435818  -0.056531   0.009574
    17  H    0.000094   0.006331  -0.051089   0.430000  -0.035713  -0.011526
    18  H    0.004557   0.005513  -0.017885  -0.035362   0.431568  -0.058748
    19  H   -0.000079  -0.000790   0.009526  -0.049520   0.431997  -0.041652
    20  H    0.000001  -0.000060   0.000510   0.003296  -0.026710   0.409548
    21  H   -0.000025   0.001621  -0.010633   0.007304  -0.058152   0.440703
    22  H    0.000600  -0.006767   0.005367  -0.004939   0.006923  -0.072464
    23  H    0.000071   0.000886  -0.002753   0.002654  -0.008078  -0.041032
    24  H    0.000000  -0.000048   0.000190  -0.000262   0.000817  -0.009353
    25  H   -0.000000  -0.000026   0.000089  -0.000014  -0.000502   0.006099
    26  H    0.000004  -0.000013   0.000232  -0.000133   0.000130   0.001158
    27  H    0.000000   0.000013  -0.000071   0.000012   0.000046  -0.000768
    28  H    0.000000  -0.000029   0.000435  -0.000427   0.000464  -0.001384
    29  H   -0.000024  -0.000655  -0.000981   0.001051  -0.000503  -0.010587
    30  H    0.000000   0.000001  -0.000017   0.000006   0.000003  -0.000015
    31  H    0.000000   0.000009   0.000037  -0.000022   0.000006   0.000001
    32  H    0.000000  -0.000000  -0.000006   0.000003   0.000000  -0.000061
               7          8          9         10         11         12
     1  O   -0.001284  -0.000018  -0.000002   0.000003   0.000000  -0.090660
     2  C   -0.005187   0.000936  -0.000587   0.000957   0.000020   0.662880
     3  C    0.026395  -0.001275   0.002412  -0.006170   0.000025  -0.114385
     4  C   -0.013362  -0.000981  -0.000406   0.002444   0.000005   0.007219
     5  C   -0.013453   0.009851  -0.001072  -0.000871  -0.000093  -0.000503
     6  C    0.141630  -0.023138   0.000188   0.002488   0.001422   0.000600
     7  C    5.412528   0.178742  -0.032056   0.019165  -0.002259  -0.010884
     8  C    0.178742   5.164752   0.249091  -0.051880   0.011784   0.000893
     9  C   -0.032056   0.249091   5.240748   0.230538  -0.055809  -0.000461
    10  C    0.019165  -0.051880   0.230538   5.210233   0.267003   0.000377
    11  C   -0.002259   0.011784  -0.055809   0.267003   5.022194  -0.000005
    12  O   -0.010884   0.000893  -0.000461   0.000377  -0.000005   7.841343
    13  H    0.000125  -0.000001  -0.000001  -0.000000  -0.000000   0.006263
    14  H   -0.018417   0.001153   0.000587  -0.002514   0.000338   0.014437
    15  H    0.000731  -0.000027  -0.000003   0.000102  -0.000020   0.002648
    16  H   -0.000527   0.000062   0.000006  -0.000045  -0.000000  -0.000025
    17  H    0.001903   0.000023  -0.000106   0.000097   0.000003  -0.000347
    18  H   -0.005490   0.000035  -0.000120  -0.000000   0.000003  -0.001407
    19  H    0.005053  -0.000530   0.000029   0.000012   0.000002  -0.000047
    20  H   -0.034531  -0.006728   0.001280  -0.000621  -0.000056  -0.000003
    21  H   -0.068171   0.004813  -0.000314  -0.006865   0.001249  -0.000006
    22  H    0.431527  -0.042574  -0.002042  -0.004865  -0.000402   0.010445
    23  H    0.414281  -0.028492   0.004911  -0.000227   0.000063  -0.000106
    24  H   -0.063891   0.445110  -0.043625  -0.010901  -0.000703  -0.000010
    25  H   -0.040877   0.432159  -0.048575   0.009841  -0.000525  -0.000013
    26  H   -0.013199  -0.032397   0.430862  -0.052212  -0.004863   0.000578
    27  H    0.010693  -0.046489   0.426662  -0.045763  -0.004451   0.000005
    28  H   -0.006063   0.009028  -0.057787   0.430520  -0.033856  -0.000005
    29  H    0.021536  -0.017534  -0.053719   0.400519  -0.035409  -0.000862
    30  H    0.000139  -0.000860   0.012574  -0.048732   0.419869  -0.000000
    31  H   -0.000011   0.000064  -0.006493  -0.035421   0.413541  -0.000002
    32  H    0.000103  -0.000423  -0.007529  -0.052002   0.426289   0.000000
              13         14         15         16         17         18
     1  O    0.288876   0.006343   0.003381   0.001708   0.000094   0.004557
     2  C   -0.025642  -0.048630  -0.020124  -0.009070   0.006331   0.005513
     3  C    0.019310   0.400551   0.395848  -0.026500  -0.051089  -0.017885
     4  C   -0.003007  -0.021772  -0.037624   0.435818   0.430000  -0.035362
     5  C    0.001149  -0.015945   0.009106  -0.056531  -0.035713   0.431568
     6  C   -0.000137   0.018442  -0.001872   0.009574  -0.011526  -0.058748
     7  C    0.000125  -0.018417   0.000731  -0.000527   0.001903  -0.005490
     8  C   -0.000001   0.001153  -0.000027   0.000062   0.000023   0.000035
     9  C   -0.000001   0.000587  -0.000003   0.000006  -0.000106  -0.000120
    10  C   -0.000000  -0.002514   0.000102  -0.000045   0.000097  -0.000000
    11  C   -0.000000   0.000338  -0.000020  -0.000000   0.000003   0.000003
    12  O    0.006263   0.014437   0.002648  -0.000025  -0.000347  -0.001407
    13  H    0.378742  -0.001022  -0.000885  -0.000032   0.000069  -0.000163
    14  H   -0.001022   0.521470  -0.014420   0.003986  -0.004157   0.001756
    15  H   -0.000885  -0.014420   0.502053  -0.004081  -0.006388  -0.000569
    16  H   -0.000032   0.003986  -0.004081   0.502253  -0.015106  -0.000978
    17  H    0.000069  -0.004157  -0.006388  -0.015106   0.523163   0.005455
    18  H   -0.000163   0.001756  -0.000569  -0.000978   0.005455   0.515155
    19  H    0.000023  -0.000539  -0.000341  -0.007104  -0.002958  -0.016160
    20  H   -0.000002   0.000065   0.000045  -0.000159  -0.000087   0.000621
    21  H    0.000004   0.001427  -0.000317   0.000024   0.001569   0.006315
    22  H   -0.000137  -0.001955   0.001130  -0.000023  -0.000106  -0.000383
    23  H    0.000017   0.000401  -0.000031  -0.000036  -0.000016   0.002621
    24  H    0.000000  -0.000082   0.000002   0.000001   0.000005   0.000049
    25  H    0.000000  -0.000051   0.000001  -0.000001   0.000001  -0.000048
    26  H   -0.000001  -0.000042   0.000011  -0.000001   0.000002  -0.000000
    27  H   -0.000000   0.000047  -0.000000   0.000000  -0.000000   0.000001
    28  H    0.000000   0.000200   0.000005   0.000002   0.000026  -0.000010
    29  H    0.000005  -0.003628  -0.000263   0.000052   0.000130  -0.000009
    30  H   -0.000000   0.000063   0.000002   0.000000   0.000001   0.000000
    31  H   -0.000000   0.000142   0.000002   0.000000   0.000001  -0.000000
    32  H   -0.000000  -0.000019   0.000000  -0.000000  -0.000000  -0.000000
              19         20         21         22         23         24
     1  O   -0.000079   0.000001  -0.000025   0.000600   0.000071   0.000000
     2  C   -0.000790  -0.000060   0.001621  -0.006767   0.000886  -0.000048
     3  C    0.009526   0.000510  -0.010633   0.005367  -0.002753   0.000190
     4  C   -0.049520   0.003296   0.007304  -0.004939   0.002654  -0.000262
     5  C    0.431997  -0.026710  -0.058152   0.006923  -0.008078   0.000817
     6  C   -0.041652   0.409548   0.440703  -0.072464  -0.041032  -0.009353
     7  C    0.005053  -0.034531  -0.068171   0.431527   0.414281  -0.063891
     8  C   -0.000530  -0.006728   0.004813  -0.042574  -0.028492   0.445110
     9  C    0.000029   0.001280  -0.000314  -0.002042   0.004911  -0.043625
    10  C    0.000012  -0.000621  -0.006865  -0.004865  -0.000227  -0.010901
    11  C    0.000002  -0.000056   0.001249  -0.000402   0.000063  -0.000703
    12  O   -0.000047  -0.000003  -0.000006   0.010445  -0.000106  -0.000010
    13  H    0.000023  -0.000002   0.000004  -0.000137   0.000017   0.000000
    14  H   -0.000539   0.000065   0.001427  -0.001955   0.000401  -0.000082
    15  H   -0.000341   0.000045  -0.000317   0.001130  -0.000031   0.000002
    16  H   -0.007104  -0.000159   0.000024  -0.000023  -0.000036   0.000001
    17  H   -0.002958  -0.000087   0.001569  -0.000106  -0.000016   0.000005
    18  H   -0.016160   0.000621   0.006315  -0.000383   0.002621   0.000049
    19  H    0.534514  -0.010526   0.002320  -0.000404   0.000430  -0.000043
    20  H   -0.010526   0.527945  -0.017184   0.005134  -0.003899   0.002614
    21  H    0.002320  -0.017184   0.523746   0.003220   0.005606   0.001598
    22  H   -0.000404   0.005134   0.003220   0.503539  -0.016523   0.006712
    23  H    0.000430  -0.003899   0.005606  -0.016523   0.532567   0.000848
    24  H   -0.000043   0.002614   0.001598   0.006712   0.000848   0.537944
    25  H    0.000013   0.000340  -0.000435   0.001191  -0.011310  -0.020826
    26  H    0.000001  -0.000000   0.000123   0.002367  -0.000277   0.006025
    27  H   -0.000001  -0.000019  -0.000053   0.000212  -0.000141  -0.002395
    28  H   -0.000004   0.000369  -0.001704   0.000654  -0.000205   0.002125
    29  H   -0.000051   0.000282  -0.005869  -0.001406   0.000347   0.001784
    30  H   -0.000000   0.000000  -0.000074   0.000016  -0.000002   0.000027
    31  H   -0.000000   0.000002  -0.000019  -0.000020  -0.000008  -0.000020
    32  H   -0.000000   0.000001  -0.000044   0.000013   0.000002   0.000126
              25         26         27         28         29         30
     1  O   -0.000000   0.000004   0.000000   0.000000  -0.000024   0.000000
     2  C   -0.000026  -0.000013   0.000013  -0.000029  -0.000655   0.000001
     3  C    0.000089   0.000232  -0.000071   0.000435  -0.000981  -0.000017
     4  C   -0.000014  -0.000133   0.000012  -0.000427   0.001051   0.000006
     5  C   -0.000502   0.000130   0.000046   0.000464  -0.000503   0.000003
     6  C    0.006099   0.001158  -0.000768  -0.001384  -0.010587  -0.000015
     7  C   -0.040877  -0.013199   0.010693  -0.006063   0.021536   0.000139
     8  C    0.432159  -0.032397  -0.046489   0.009028  -0.017534  -0.000860
     9  C   -0.048575   0.430862   0.426662  -0.057787  -0.053719   0.012574
    10  C    0.009841  -0.052212  -0.045763   0.430520   0.400519  -0.048732
    11  C   -0.000525  -0.004863  -0.004451  -0.033856  -0.035409   0.419869
    12  O   -0.000013   0.000578   0.000005  -0.000005  -0.000862  -0.000000
    13  H    0.000000  -0.000001  -0.000000   0.000000   0.000005  -0.000000
    14  H   -0.000051  -0.000042   0.000047   0.000200  -0.003628   0.000063
    15  H    0.000001   0.000011  -0.000000   0.000005  -0.000263   0.000002
    16  H   -0.000001  -0.000001   0.000000   0.000002   0.000052   0.000000
    17  H    0.000001   0.000002  -0.000000   0.000026   0.000130   0.000001
    18  H   -0.000048  -0.000000   0.000001  -0.000010  -0.000009   0.000000
    19  H    0.000013   0.000001  -0.000001  -0.000004  -0.000051  -0.000000
    20  H    0.000340  -0.000000  -0.000019   0.000369   0.000282   0.000000
    21  H   -0.000435   0.000123  -0.000053  -0.001704  -0.005869  -0.000074
    22  H    0.001191   0.002367   0.000212   0.000654  -0.001406   0.000016
    23  H   -0.011310  -0.000277  -0.000141  -0.000205   0.000347  -0.000002
    24  H   -0.020826   0.006025  -0.002395   0.002125   0.001784   0.000027
    25  H    0.543169  -0.003013  -0.008248   0.000128  -0.000801   0.000016
    26  H   -0.003013   0.524798  -0.022527   0.007119  -0.004249  -0.000190
    27  H   -0.008248  -0.022527   0.547862  -0.002734   0.007590  -0.000056
    28  H    0.000128   0.007119  -0.002734   0.554061  -0.042087  -0.004791
    29  H   -0.000801  -0.004249   0.007590  -0.042087   0.652548  -0.005831
    30  H    0.000016  -0.000190  -0.000056  -0.004791  -0.005831   0.538133
    31  H    0.000016   0.002766   0.000316   0.007286  -0.008794  -0.025226
    32  H   -0.000044   0.000421   0.002938  -0.005388   0.010015  -0.024555
              31         32
     1  O    0.000000   0.000000
     2  C    0.000009  -0.000000
     3  C    0.000037  -0.000006
     4  C   -0.000022   0.000003
     5  C    0.000006   0.000000
     6  C    0.000001  -0.000061
     7  C   -0.000011   0.000103
     8  C    0.000064  -0.000423
     9  C   -0.006493  -0.007529
    10  C   -0.035421  -0.052002
    11  C    0.413541   0.426289
    12  O   -0.000002   0.000000
    13  H   -0.000000  -0.000000
    14  H    0.000142  -0.000019
    15  H    0.000002   0.000000
    16  H    0.000000  -0.000000
    17  H    0.000001  -0.000000
    18  H   -0.000000  -0.000000
    19  H   -0.000000  -0.000000
    20  H    0.000002   0.000001
    21  H   -0.000019  -0.000044
    22  H   -0.000020   0.000013
    23  H   -0.000008   0.000002
    24  H   -0.000020   0.000126
    25  H    0.000016  -0.000044
    26  H    0.002766   0.000421
    27  H    0.000316   0.002938
    28  H    0.007286  -0.005388
    29  H   -0.008794   0.010015
    30  H   -0.025226  -0.024555
    31  H    0.542443  -0.030460
    32  H   -0.030460   0.541886
 Mulliken charges:
               1
     1  O   -0.407382
     2  C    0.330427
     3  C   -0.315797
     4  C   -0.299537
     5  C   -0.274677
     6  C   -0.333351
     7  C   -0.334886
     8  C   -0.255152
     9  C   -0.289181
    10  C   -0.255208
    11  C   -0.425359
    12  O   -0.327957
    13  H    0.336445
    14  H    0.161784
    15  H    0.171899
    16  H    0.166734
    17  H    0.158723
    18  H    0.163683
    19  H    0.146827
    20  H    0.148532
    21  H    0.168225
    22  H    0.175958
    23  H    0.147432
    24  H    0.146184
    25  H    0.142244
    26  H    0.156522
    27  H    0.137320
    28  H    0.144052
    29  H    0.097400
    30  H    0.139498
    31  H    0.139863
    32  H    0.138735
 Sum of Mulliken charges =  -0.00000
 Mulliken charges with hydrogens summed into heavy atoms:
               1
     1  O   -0.070937
     2  C    0.330427
     3  C    0.017886
     4  C    0.025920
     5  C    0.035834
     6  C   -0.016594
     7  C   -0.011496
     8  C    0.033276
     9  C    0.004661
    10  C   -0.013756
    11  C   -0.007262
    12  O   -0.327957
 Electronic spatial extent (au):  <R**2>=           2977.9005
 Charge=             -0.0000 electrons
 Dipole moment (field-independent basis, Debye):
    X=             -0.8029    Y=              0.7952    Z=              1.3057  Tot=              1.7268
 Quadrupole moment (field-independent basis, Debye-Ang):
   XX=            -73.1435   YY=            -78.9264   ZZ=            -77.8934
   XY=              0.7860   XZ=              1.3656   YZ=             -2.7862
 Traceless Quadrupole moment (field-independent basis, Debye-Ang):
   XX=              3.5110   YY=             -2.2720   ZZ=             -1.2390
   XY=              0.7860   XZ=              1.3656   YZ=             -2.7862
 Octapole moment (field-independent basis, Debye-Ang**2):
  XXX=            -46.8514  YYY=             -3.4844  ZZZ=             -2.2963  XYY=            -10.7559
  XXY=             -7.4119  XXZ=            -22.0993  XZZ=            -14.4433  YZZ=              1.1529
  YYZ=              3.6701  XYZ=              1.3818
 Hexadecapole moment (field-independent basis, Debye-Ang**3):
 XXXX=          -2462.2189 YYYY=           -839.6797 ZZZZ=           -593.2956 XXXY=             69.4112
 XXXZ=            112.5884 YYYX=             26.2100 YYYZ=              4.9441 ZZZX=             17.2742
 ZZZY=             -3.7605 XXYY=           -571.3300 XXZZ=           -492.0229 YYZZ=           -244.2826
 XXYZ=             20.5177 YYXZ=             -3.9294 ZZXY=              7.4096
 N-N= 7.511079022367D+02 E-N=-2.767185454434D+03  KE= 5.405695096871D+02
 Unable to Open any file for archive entry.
 1\1\GINC-NOTCH075\SP\RM062X\def2TZVP\C10H20O2\U6032257\03-Feb-2022\0\\
 # M062X/def2tzvp int=(grid=ultrafine) nmr=giao guess=read geom=check\\
 Ac1.xyz\\0,1\O,0,4.8995315791,-0.2713460834,0.0543972681\C,0,4.3966120
 391,-0.4922664699,-1.1867177541\C,0,2.8964330276,-0.6661910012,-1.1688
 570127\C,0,2.3928454597,-1.6746576981,-0.1230703999\C,0,2.9314927284,-
 3.1056914125,-0.2698320721\C,0,2.5745565654,-3.8082793253,-1.595702462
 \C,0,3.6572164549,-3.706117199,-2.6822095641\C,0,3.2674614865,-4.34608
 32,-4.0291211325\C,0,2.6323338967,-3.3870138366,-5.0472026227\C,0,1.30
 00304981,-2.7558810946,-4.6300279883\C,0,0.6845127964,-1.8980147859,-5
 .7377401466\O,0,5.1045770058,-0.5266448466,-2.1700481522\H,0,5.8590872
 113,-0.1694502769,-0.0628303503\H,0,2.5946153637,-0.9414797905,-2.1806
 065657\H,0,2.4607629681,0.3177744266,-0.9543940322\H,0,2.6452757061,-1
 .2968461626,0.8728454728\H,0,1.2979065858,-1.6982242808,-0.1837101866\
 H,0,4.0215769118,-3.1023316968,-0.1351546034\H,0,2.5312692631,-3.68697
 97075,0.5689130761\H,0,2.3992547006,-4.8740143614,-1.4025079028\H,0,1.
 6193474424,-3.418076731,-1.9662165024\H,0,3.9510006212,-2.664651279,-2
 .850319488\H,0,4.5564116709,-4.201138035,-2.2935117513\H,0,2.590191418
 4,-5.1934845089,-3.8509719319\H,0,4.1646018957,-4.7729483979,-4.492939
 9286\H,0,3.348726502,-2.5844684484,-5.2711457046\H,0,2.479536026,-3.92
 87983439,-5.9907276054\H,0,0.5958211159,-3.5473153986,-4.3397185692\H,
 0,1.4461724651,-2.1358088122,-3.7376867948\H,0,-0.2623558723,-1.448713
 4428,-5.4215349742\H,0,1.3604914865,-1.0850122679,-6.0253423418\H,0,0.
 4879029798,-2.4952455317,-6.6351072769\\Version=ES64L-G16RevC.01\State
 =1-A\HF=-543.5377336\RMSD=6.379e-10\Dipole=-0.3388727,-0.0557593,0.586
 161\Quadrupole=0.417269,-0.0116487,-0.4056203,-0.6168784,2.5574882,1.9
 571472\PG=C01 [X(C10H20O2)]\\@
 The archive entry for this job was punched.


 ACCORDING TO HEN3RY, LIFE IS MUCH LIKE A SEWER........
 YOU GET OUT OF IT JUST WHAT YOU PUT INTO IT...........
                         TOM LEHRER - (THE 3 IS SILENT)
 Job cpu time:       0 days  0 hours 43 minutes 27.4 seconds.
 Elapsed time:       0 days  0 hours  1 minutes 33.0 seconds.
 File lengths (MBytes):  RWF=    140 Int=      0 D2E=      0 Chk=     24 Scr=      1
 Normal termination of Gaussian 16 at Thu Feb  3 07:23:58 2022.
