 Entering Gaussian System, Link 0=/uufs/chpc.utah.edu/sys/installdir/gaussian16/C01/AVX2/g16/g16
 Input=Ac1_clust-27.com
 Output=Ac1_clust-27.log
 Initial command:
 /uufs/chpc.utah.edu/sys/installdir/gaussian16/C01/AVX2/g16/l1.exe "/scratch/general/lustre/u6032257/3857483/notchpeak.peaks/Gau-258735.inp" -scrdir="/scratch/general/lustre/u6032257/3857483/notchpeak.peaks/"
 Entering Link 1 = /uufs/chpc.utah.edu/sys/installdir/gaussian16/C01/AVX2/g16/l1.exe PID=    258737.
  
 Copyright (c) 1988-2019, Gaussian, Inc.  All Rights Reserved.
  
 This is part of the Gaussian(R) 16 program.  It is based on
 the Gaussian(R) 09 system (copyright 2009, Gaussian, Inc.),
 the Gaussian(R) 03 system (copyright 2003, Gaussian, Inc.),
 the Gaussian(R) 98 system (copyright 1998, Gaussian, Inc.),
 the Gaussian(R) 94 system (copyright 1995, Gaussian, Inc.),
 the Gaussian 92(TM) system (copyright 1992, Gaussian, Inc.),
 the Gaussian 90(TM) system (copyright 1990, Gaussian, Inc.),
 the Gaussian 88(TM) system (copyright 1988, Gaussian, Inc.),
 the Gaussian 86(TM) system (copyright 1986, Carnegie Mellon
 University), and the Gaussian 82(TM) system (copyright 1983,
 Carnegie Mellon University). Gaussian is a federally registered
 trademark of Gaussian, Inc.
  
 This software contains proprietary and confidential information,
 including trade secrets, belonging to Gaussian, Inc.
  
 This software is provided under written license and may be
 used, copied, transmitted, or stored only in accord with that
 written license.
  
 The following legend is applicable only to US Government
 contracts under FAR:
  
                    RESTRICTED RIGHTS LEGEND
  
 Use, reproduction and disclosure by the US Government is
 subject to restrictions as set forth in subparagraphs (a)
 and (c) of the Commercial Computer Software - Restricted
 Rights clause in FAR 52.227-19.
  
 Gaussian, Inc.
 340 Quinnipiac St., Bldg. 40, Wallingford CT 06492
  
  
 ---------------------------------------------------------------
 Warning -- This program may not be used in any manner that
 competes with the business of Gaussian, Inc. or will provide
 assistance to any competitor of Gaussian, Inc.  The licensee
 of this program is prohibited from giving any competitor of
 Gaussian, Inc. access to this program.  By using this program,
 the user acknowledges that Gaussian, Inc. is engaged in the
 business of creating and licensing software in the field of
 computational chemistry and represents and warrants to the
 licensee that it is not a competitor of Gaussian, Inc. and that
 it will not use this program in any manner prohibited above.
 ---------------------------------------------------------------
  

 Cite this work as:
 Gaussian 16, Revision C.01,
 M. J. Frisch, G. W. Trucks, H. B. Schlegel, G. E. Scuseria, 
 M. A. Robb, J. R. Cheeseman, G. Scalmani, V. Barone, 
 G. A. Petersson, H. Nakatsuji, X. Li, M. Caricato, A. V. Marenich, 
 J. Bloino, B. G. Janesko, R. Gomperts, B. Mennucci, H. P. Hratchian, 
 J. V. Ortiz, A. F. Izmaylov, J. L. Sonnenberg, D. Williams-Young, 
 F. Ding, F. Lipparini, F. Egidi, J. Goings, B. Peng, A. Petrone, 
 T. Henderson, D. Ranasinghe, V. G. Zakrzewski, J. Gao, N. Rega, 
 G. Zheng, W. Liang, M. Hada, M. Ehara, K. Toyota, R. Fukuda, 
 J. Hasegawa, M. Ishida, T. Nakajima, Y. Honda, O. Kitao, H. Nakai, 
 T. Vreven, K. Throssell, J. A. Montgomery, Jr., J. E. Peralta, 
 F. Ogliaro, M. J. Bearpark, J. J. Heyd, E. N. Brothers, K. N. Kudin, 
 V. N. Staroverov, T. A. Keith, R. Kobayashi, J. Normand, 
 K. Raghavachari, A. P. Rendell, J. C. Burant, S. S. Iyengar, 
 J. Tomasi, M. Cossi, J. M. Millam, M. Klene, C. Adamo, R. Cammi, 
 J. W. Ochterski, R. L. Martin, K. Morokuma, O. Farkas, 
 J. B. Foresman, and D. J. Fox, Gaussian, Inc., Wallingford CT, 2019.
 
 ******************************************
 Gaussian 16:  ES64L-G16RevC.01  3-Jul-2019
                 3-Feb-2022 
 ******************************************
 %NProcShared=32
 Will use up to   32 processors via shared memory.
 %mem=16GB
 %chk=Ac1_clust-27.chk
 ----------------------------------------------------------------------
 # B3LYP/6-31G(d,p) empiricaldispersion=GD3BJ int=(grid=ultrafine) opt 
 freq=noraman
 ----------------------------------------------------------------------
 1/18=20,19=15,26=4,38=1/1,3;
 2/9=110,12=2,17=6,18=5,40=1/2;
 3/5=1,6=6,7=101,11=2,25=1,30=1,71=1,74=-5,75=-5,124=41/1,2,3;
 4//1;
 5/5=2,38=5/2;
 6/7=2,8=2,9=2,10=2,28=1/1;
 7//1,2,3,16;
 1/18=20,19=15,26=4/3(2);
 2/9=110/2;
 99//99;
 2/9=110/2;
 3/5=1,6=6,7=101,11=2,25=1,30=1,71=1,74=-5,75=-5,124=41/1,2,3;
 4/5=5,16=3,69=1/1;
 5/5=2,38=5/2;
 7//1,2,3,16;
 1/18=20,19=15,26=4/3(-5);
 2/9=110/2;
 6/7=2,8=2,9=2,10=2,19=2,28=1/1;
 99/9=1/99;
 -------
 Ac1.xyz
 -------
 Symbolic Z-matrix:
 Charge =  0 Multiplicity = 1
 O                     5.7948   -0.1395   -0.9542 
 C                     5.3255   -0.604     0.2239 
 C                     4.5409   -1.9022    0.0694 
 C                     3.1993   -1.7227   -0.6763 
 C                     2.4129   -3.0423   -0.7893 
 C                     1.0215   -2.8973   -1.4419 
 C                     1.0102   -2.3651   -2.891 
 C                     1.7722   -3.2498   -3.8961 
 C                     1.6534   -2.7398   -5.3452 
 C                     2.4757   -3.5486   -6.367 
 C                     1.9937   -4.9959   -6.5558 
 O                     5.5211   -0.045     1.2928 
 H                     6.2616    0.6634   -0.7211 
 H                     4.3651   -2.2959    1.0707 
 H                     5.181    -2.6196   -0.4434 
 H                     2.5837   -0.9808   -0.1621 
 H                     3.388    -1.3277   -1.6769 
 H                     3.0036   -3.7783   -1.3368 
 H                     2.28     -3.4631    0.209 
 H                     0.5205   -3.8668   -1.4191 
 H                     0.4072   -2.2418   -0.8221 
 H                    -0.0283   -2.2761   -3.2149 
 H                     1.4084   -1.3499   -2.9168 
 H                     1.3945   -4.271    -3.8319 
 H                     2.8267   -3.2951   -3.6203 
 H                     0.6048   -2.7298   -5.6481 
 H                     1.9822   -1.6997   -5.3826 
 H                     2.4362   -3.0391   -7.3313 
 H                     3.5277   -3.5485   -6.0764 
 H                     2.1099   -5.5821   -5.644 
 H                     0.9425   -5.03     -6.8445 
 H                     2.5657   -5.4968   -7.3375 
 

 GradGradGradGradGradGradGradGradGradGradGradGradGradGradGradGradGradGrad
 Berny optimization.
 Initialization pass.
                           ----------------------------
                           !    Initial Parameters    !
                           ! (Angstroms and Degrees)  !
 --------------------------                            --------------------------
 ! Name  Definition              Value          Derivative Info.                !
 --------------------------------------------------------------------------------
 ! R1    R(1,2)                  1.3505         estimate D2E/DX2                !
 ! R2    R(1,13)                 0.9575         estimate D2E/DX2                !
 ! R3    R(2,3)                  1.5247         estimate D2E/DX2                !
 ! R4    R(2,12)                 1.222          estimate D2E/DX2                !
 ! R5    R(3,4)                  1.5454         estimate D2E/DX2                !
 ! R6    R(3,14)                 1.0902         estimate D2E/DX2                !
 ! R7    R(3,15)                 1.0897         estimate D2E/DX2                !
 ! R8    R(4,5)                  1.5403         estimate D2E/DX2                !
 ! R9    R(4,16)                 1.0926         estimate D2E/DX2                !
 ! R10   R(4,17)                 1.0922         estimate D2E/DX2                !
 ! R11   R(5,6)                  1.5437         estimate D2E/DX2                !
 ! R12   R(5,18)                 1.091          estimate D2E/DX2                !
 ! R13   R(5,19)                 1.0915         estimate D2E/DX2                !
 ! R14   R(6,7)                  1.5438         estimate D2E/DX2                !
 ! R15   R(6,20)                 1.0915         estimate D2E/DX2                !
 ! R16   R(6,21)                 1.0914         estimate D2E/DX2                !
 ! R17   R(7,8)                  1.5406         estimate D2E/DX2                !
 ! R18   R(7,22)                 1.0915         estimate D2E/DX2                !
 ! R19   R(7,23)                 1.0908         estimate D2E/DX2                !
 ! R20   R(8,9)                  1.5408         estimate D2E/DX2                !
 ! R21   R(8,24)                 1.0907         estimate D2E/DX2                !
 ! R22   R(8,25)                 1.0909         estimate D2E/DX2                !
 ! R23   R(9,10)                 1.5409         estimate D2E/DX2                !
 ! R24   R(9,26)                 1.0915         estimate D2E/DX2                !
 ! R25   R(9,27)                 1.0915         estimate D2E/DX2                !
 ! R26   R(10,11)                1.5371         estimate D2E/DX2                !
 ! R27   R(10,28)                1.0913         estimate D2E/DX2                !
 ! R28   R(10,29)                1.0914         estimate D2E/DX2                !
 ! R29   R(11,30)                1.0902         estimate D2E/DX2                !
 ! R30   R(11,31)                1.0907         estimate D2E/DX2                !
 ! R31   R(11,32)                1.0905         estimate D2E/DX2                !
 ! A1    A(2,1,13)             104.2079         estimate D2E/DX2                !
 ! A2    A(1,2,3)              112.536          estimate D2E/DX2                !
 ! A3    A(1,2,12)             123.3724         estimate D2E/DX2                !
 ! A4    A(3,2,12)             124.0894         estimate D2E/DX2                !
 ! A5    A(2,3,4)              113.3739         estimate D2E/DX2                !
 ! A6    A(2,3,14)             107.3009         estimate D2E/DX2                !
 ! A7    A(2,3,15)             107.816          estimate D2E/DX2                !
 ! A8    A(4,3,14)             110.1908         estimate D2E/DX2                !
 ! A9    A(4,3,15)             111.0609         estimate D2E/DX2                !
 ! A10   A(14,3,15)            106.8104         estimate D2E/DX2                !
 ! A11   A(3,4,5)              112.279          estimate D2E/DX2                !
 ! A12   A(3,4,16)             109.9324         estimate D2E/DX2                !
 ! A13   A(3,4,17)             109.5176         estimate D2E/DX2                !
 ! A14   A(5,4,16)             109.1836         estimate D2E/DX2                !
 ! A15   A(5,4,17)             109.3199         estimate D2E/DX2                !
 ! A16   A(16,4,17)            106.4351         estimate D2E/DX2                !
 ! A17   A(4,5,6)              114.2507         estimate D2E/DX2                !
 ! A18   A(4,5,18)             109.7748         estimate D2E/DX2                !
 ! A19   A(4,5,19)             108.9871         estimate D2E/DX2                !
 ! A20   A(6,5,18)             109.8295         estimate D2E/DX2                !
 ! A21   A(6,5,19)             108.248          estimate D2E/DX2                !
 ! A22   A(18,5,19)            105.3563         estimate D2E/DX2                !
 ! A23   A(5,6,7)              115.837          estimate D2E/DX2                !
 ! A24   A(5,6,20)             108.7507         estimate D2E/DX2                !
 ! A25   A(5,6,21)             108.8846         estimate D2E/DX2                !
 ! A26   A(7,6,20)             108.8107         estimate D2E/DX2                !
 ! A27   A(7,6,21)             108.7772         estimate D2E/DX2                !
 ! A28   A(20,6,21)            105.2628         estimate D2E/DX2                !
 ! A29   A(6,7,8)              114.2549         estimate D2E/DX2                !
 ! A30   A(6,7,22)             108.2781         estimate D2E/DX2                !
 ! A31   A(6,7,23)             109.8996         estimate D2E/DX2                !
 ! A32   A(8,7,22)             108.8941         estimate D2E/DX2                !
 ! A33   A(8,7,23)             109.7828         estimate D2E/DX2                !
 ! A34   A(22,7,23)            105.3328         estimate D2E/DX2                !
 ! A35   A(7,8,9)              112.6658         estimate D2E/DX2                !
 ! A36   A(7,8,24)             109.1459         estimate D2E/DX2                !
 ! A37   A(7,8,25)             109.6943         estimate D2E/DX2                !
 ! A38   A(9,8,24)             109.7892         estimate D2E/DX2                !
 ! A39   A(9,8,25)             109.0287         estimate D2E/DX2                !
 ! A40   A(24,8,25)            106.3183         estimate D2E/DX2                !
 ! A41   A(8,9,10)             114.1273         estimate D2E/DX2                !
 ! A42   A(8,9,26)             109.7605         estimate D2E/DX2                !
 ! A43   A(8,9,27)             108.9301         estimate D2E/DX2                !
 ! A44   A(10,9,26)            109.4786         estimate D2E/DX2                !
 ! A45   A(10,9,27)            108.4634         estimate D2E/DX2                !
 ! A46   A(26,9,27)            105.7333         estimate D2E/DX2                !
 ! A47   A(9,10,11)            114.1001         estimate D2E/DX2                !
 ! A48   A(9,10,28)            108.7574         estimate D2E/DX2                !
 ! A49   A(9,10,29)            109.741          estimate D2E/DX2                !
 ! A50   A(11,10,28)           108.645          estimate D2E/DX2                !
 ! A51   A(11,10,29)           109.5756         estimate D2E/DX2                !
 ! A52   A(28,10,29)           105.671          estimate D2E/DX2                !
 ! A53   A(10,11,30)           111.7243         estimate D2E/DX2                !
 ! A54   A(10,11,31)           111.3576         estimate D2E/DX2                !
 ! A55   A(10,11,32)           110.8591         estimate D2E/DX2                !
 ! A56   A(30,11,31)           107.8971         estimate D2E/DX2                !
 ! A57   A(30,11,32)           107.2562         estimate D2E/DX2                !
 ! A58   A(31,11,32)           107.5449         estimate D2E/DX2                !
 ! D1    D(13,1,2,3)          -179.8661         estimate D2E/DX2                !
 ! D2    D(13,1,2,12)           -0.3863         estimate D2E/DX2                !
 ! D3    D(1,2,3,4)            -68.462          estimate D2E/DX2                !
 ! D4    D(1,2,3,14)           169.6376         estimate D2E/DX2                !
 ! D5    D(1,2,3,15)            54.9122         estimate D2E/DX2                !
 ! D6    D(12,2,3,4)           112.0625         estimate D2E/DX2                !
 ! D7    D(12,2,3,14)           -9.8379         estimate D2E/DX2                !
 ! D8    D(12,2,3,15)         -124.5634         estimate D2E/DX2                !
 ! D9    D(2,3,4,5)           -178.6649         estimate D2E/DX2                !
 ! D10   D(2,3,4,16)           -56.9087         estimate D2E/DX2                !
 ! D11   D(2,3,4,17)            59.6969         estimate D2E/DX2                !
 ! D12   D(14,3,4,5)           -58.3913         estimate D2E/DX2                !
 ! D13   D(14,3,4,16)           63.3648         estimate D2E/DX2                !
 ! D14   D(14,3,4,17)          179.9704         estimate D2E/DX2                !
 ! D15   D(15,3,4,5)            59.7606         estimate D2E/DX2                !
 ! D16   D(15,3,4,16)         -178.4832         estimate D2E/DX2                !
 ! D17   D(15,3,4,17)          -61.8776         estimate D2E/DX2                !
 ! D18   D(3,4,5,6)            176.0607         estimate D2E/DX2                !
 ! D19   D(3,4,5,18)           -60.0681         estimate D2E/DX2                !
 ! D20   D(3,4,5,19)            54.8493         estimate D2E/DX2                !
 ! D21   D(16,4,5,6)            53.8783         estimate D2E/DX2                !
 ! D22   D(16,4,5,18)          177.7495         estimate D2E/DX2                !
 ! D23   D(16,4,5,19)          -67.333          estimate D2E/DX2                !
 ! D24   D(17,4,5,6)           -62.1882         estimate D2E/DX2                !
 ! D25   D(17,4,5,18)           61.6829         estimate D2E/DX2                !
 ! D26   D(17,4,5,19)          176.6004         estimate D2E/DX2                !
 ! D27   D(4,5,6,7)             60.6882         estimate D2E/DX2                !
 ! D28   D(4,5,6,20)          -176.4435         estimate D2E/DX2                !
 ! D29   D(4,5,6,21)           -62.2425         estimate D2E/DX2                !
 ! D30   D(18,5,6,7)           -63.1537         estimate D2E/DX2                !
 ! D31   D(18,5,6,20)           59.7147         estimate D2E/DX2                !
 ! D32   D(18,5,6,21)          173.9157         estimate D2E/DX2                !
 ! D33   D(19,5,6,7)          -177.6928         estimate D2E/DX2                !
 ! D34   D(19,5,6,20)          -54.8245         estimate D2E/DX2                !
 ! D35   D(19,5,6,21)           59.3766         estimate D2E/DX2                !
 ! D36   D(5,6,7,8)             60.5881         estimate D2E/DX2                !
 ! D37   D(5,6,7,22)          -177.8873         estimate D2E/DX2                !
 ! D38   D(5,6,7,23)           -63.3225         estimate D2E/DX2                !
 ! D39   D(20,6,7,8)           -62.2486         estimate D2E/DX2                !
 ! D40   D(20,6,7,22)           59.276          estimate D2E/DX2                !
 ! D41   D(20,6,7,23)          173.8408         estimate D2E/DX2                !
 ! D42   D(21,6,7,8)          -176.4248         estimate D2E/DX2                !
 ! D43   D(21,6,7,22)          -54.9002         estimate D2E/DX2                !
 ! D44   D(21,6,7,23)           59.6646         estimate D2E/DX2                !
 ! D45   D(6,7,8,9)            175.9065         estimate D2E/DX2                !
 ! D46   D(6,7,8,24)            53.6735         estimate D2E/DX2                !
 ! D47   D(6,7,8,25)           -62.4414         estimate D2E/DX2                !
 ! D48   D(22,7,8,9)            54.7218         estimate D2E/DX2                !
 ! D49   D(22,7,8,24)          -67.5111         estimate D2E/DX2                !
 ! D50   D(22,7,8,25)          176.3739         estimate D2E/DX2                !
 ! D51   D(23,7,8,9)           -60.1202         estimate D2E/DX2                !
 ! D52   D(23,7,8,24)          177.6468         estimate D2E/DX2                !
 ! D53   D(23,7,8,25)           61.5319         estimate D2E/DX2                !
 ! D54   D(7,8,9,10)           176.3454         estimate D2E/DX2                !
 ! D55   D(7,8,9,26)           -60.3467         estimate D2E/DX2                !
 ! D56   D(7,8,9,27)            54.9819         estimate D2E/DX2                !
 ! D57   D(24,8,9,10)          -61.7848         estimate D2E/DX2                !
 ! D58   D(24,8,9,26)           61.5232         estimate D2E/DX2                !
 ! D59   D(24,8,9,27)          176.8517         estimate D2E/DX2                !
 ! D60   D(25,8,9,10)           54.3167         estimate D2E/DX2                !
 ! D61   D(25,8,9,26)          177.6246         estimate D2E/DX2                !
 ! D62   D(25,8,9,27)          -67.0469         estimate D2E/DX2                !
 ! D63   D(8,9,10,11)           65.9979         estimate D2E/DX2                !
 ! D64   D(8,9,10,28)         -172.5498         estimate D2E/DX2                !
 ! D65   D(8,9,10,29)          -57.4027         estimate D2E/DX2                !
 ! D66   D(26,9,10,11)         -57.4624         estimate D2E/DX2                !
 ! D67   D(26,9,10,28)          63.9898         estimate D2E/DX2                !
 ! D68   D(26,9,10,29)         179.1369         estimate D2E/DX2                !
 ! D69   D(27,9,10,11)        -172.3807         estimate D2E/DX2                !
 ! D70   D(27,9,10,28)         -50.9285         estimate D2E/DX2                !
 ! D71   D(27,9,10,29)          64.2187         estimate D2E/DX2                !
 ! D72   D(9,10,11,30)         -64.383          estimate D2E/DX2                !
 ! D73   D(9,10,11,31)          56.3476         estimate D2E/DX2                !
 ! D74   D(9,10,11,32)         176.0431         estimate D2E/DX2                !
 ! D75   D(28,10,11,30)        174.1026         estimate D2E/DX2                !
 ! D76   D(28,10,11,31)        -65.1667         estimate D2E/DX2                !
 ! D77   D(28,10,11,32)         54.5287         estimate D2E/DX2                !
 ! D78   D(29,10,11,30)         59.1071         estimate D2E/DX2                !
 ! D79   D(29,10,11,31)        179.8377         estimate D2E/DX2                !
 ! D80   D(29,10,11,32)        -60.4668         estimate D2E/DX2                !
 --------------------------------------------------------------------------------
 Trust Radius=3.00D-01 FncErr=1.00D-07 GrdErr=1.00D-06 EigMax=2.50D+02 EigMin=1.00D-04
 Number of steps in this run=    179 maximum allowed number of steps=    192.
 GradGradGradGradGradGradGradGradGradGradGradGradGradGradGradGradGradGrad

                          Input orientation:                          
 ---------------------------------------------------------------------
 Center     Atomic      Atomic             Coordinates (Angstroms)
 Number     Number       Type             X           Y           Z
 ---------------------------------------------------------------------
      1          8           0        5.794800   -0.139500   -0.954200
      2          6           0        5.325500   -0.604000    0.223900
      3          6           0        4.540900   -1.902200    0.069400
      4          6           0        3.199300   -1.722700   -0.676300
      5          6           0        2.412900   -3.042300   -0.789300
      6          6           0        1.021500   -2.897300   -1.441900
      7          6           0        1.010200   -2.365100   -2.891000
      8          6           0        1.772200   -3.249800   -3.896100
      9          6           0        1.653400   -2.739800   -5.345200
     10          6           0        2.475700   -3.548600   -6.367000
     11          6           0        1.993700   -4.995900   -6.555800
     12          8           0        5.521100   -0.045000    1.292800
     13          1           0        6.261600    0.663400   -0.721100
     14          1           0        4.365100   -2.295900    1.070700
     15          1           0        5.181000   -2.619600   -0.443400
     16          1           0        2.583700   -0.980800   -0.162100
     17          1           0        3.388000   -1.327700   -1.676900
     18          1           0        3.003600   -3.778300   -1.336800
     19          1           0        2.280000   -3.463100    0.209000
     20          1           0        0.520500   -3.866800   -1.419100
     21          1           0        0.407200   -2.241800   -0.822100
     22          1           0       -0.028300   -2.276100   -3.214900
     23          1           0        1.408400   -1.349900   -2.916800
     24          1           0        1.394500   -4.271000   -3.831900
     25          1           0        2.826700   -3.295100   -3.620300
     26          1           0        0.604800   -2.729800   -5.648100
     27          1           0        1.982200   -1.699700   -5.382600
     28          1           0        2.436200   -3.039100   -7.331300
     29          1           0        3.527700   -3.548500   -6.076400
     30          1           0        2.109900   -5.582100   -5.644000
     31          1           0        0.942500   -5.030000   -6.844500
     32          1           0        2.565700   -5.496800   -7.337500
 ---------------------------------------------------------------------
                    Distance matrix (angstroms):
                    1          2          3          4          5
     1  O    0.000000
     2  C    1.350527   0.000000
     3  C    2.393143   1.524726   0.000000
     4  C    3.052928   2.565653   1.545374   0.000000
     5  C    4.459898   3.931300   2.562338   1.540305   0.000000
     6  C    5.534230   5.153497   3.957326   2.590105   1.543666
     7  C    5.621111   5.605880   4.630776   3.179581   2.615972
     8  C    5.874526   6.049843   5.020649   3.838719   3.178956
     9  C    6.572186   7.004344   6.193313   5.022243   4.628668
    10  C    7.206718   7.760927   6.957221   6.020098   5.600984
    11  C    8.331321   8.738078   7.742899   6.836361   6.102852
    12  O    2.265580   1.222001   2.430369   3.476030   4.793731
    13  H    0.957542   1.837284   3.188730   3.882417   5.343160
    14  H    3.285472   2.121783   1.090187   2.177075   2.797820
    15  H    2.605487   2.128101   1.089658   2.187649   2.821471
    16  H    3.412678   2.794359   2.175592   1.092603   2.161558
    17  H    2.779712   2.809037   2.169975   1.092169   2.162986
    18  H    4.601961   4.231215   2.803648   2.167960   1.091045
    19  H    4.975256   4.177289   2.750921   2.158208   1.091484
    20  H    6.475117   6.036003   4.715814   3.510682   2.158153
    21  H    5.784751   5.288306   4.242355   2.843685   2.159794
    22  H    6.601842   6.579091   5.639505   4.143446   3.525628
    23  H    4.955540   5.075829   4.362910   2.892429   2.898188
    24  H    6.686785   6.734179   5.543572   4.439476   3.435732
    25  H    5.086798   5.316380   4.300295   3.358334   2.872229
    26  H    7.461799   7.828437   6.990537   5.697761   5.193729
    27  H    6.048212   6.618992   6.025965   4.861185   4.804839
    28  H    7.768866   8.447415   7.777703   6.826731   6.542042
    29  H    6.557283   7.183032   6.442650   5.709857   5.427011
    30  H    8.074318   8.339893   7.217643   6.384341   5.487304
    31  H    9.064074   9.421382   8.398430   7.353779   6.540526
    32  H    8.937241   9.419701   8.466684   7.682244   6.994772
                    6          7          8          9         10
     6  C    0.000000
     7  C    1.543780   0.000000
     8  C    2.590541   1.540638   0.000000
     9  C    3.957253   2.564606   1.540813   0.000000
    10  C    5.176437   3.953598   2.586415   1.540912   0.000000
    11  C    5.612599   4.617265   3.189347   2.582894   1.537090
    12  O    5.988372   6.575353   7.158888   8.141504   8.956685
    13  H    6.376267   6.438748   6.748961   7.362036   7.996885
    14  H    4.225459   5.191841   5.683499   6.979551   7.775505
    15  H    4.286672   4.842632   4.892669   6.040369   6.578049
    16  H    2.784121   3.440797   4.444058   5.551942   6.716103
    17  H    2.849419   2.864292   3.351138   4.296427   5.268940
    18  H    2.171619   2.895914   2.888888   4.355318   5.063038
    19  H    2.151609   3.525336   4.141884   5.636038   6.579467
    20  H    1.091536   2.159027   2.843057   4.238850   5.329707
    21  H    1.091420   2.158509   3.511234   4.717992   6.060721
    22  H    2.152092   1.091474   2.157296   2.753418   4.221967
    23  H    2.172434   1.090807   2.168179   2.808732   4.228155
    24  H    2.781777   2.159962   1.090701   2.168336   2.849138
    25  H    2.856995   2.167130   1.090912   2.158766   2.780616
    26  H    4.230108   2.810508   2.168577   1.091517   2.165068
    27  H    4.229221   2.756014   2.157914   1.091474   2.151980
    28  H    6.058590   4.712114   3.505123   2.155678   1.091341
    29  H    5.308831   4.229068   2.815086   2.168329   1.091399
    30  H    5.103960   4.374636   2.934079   2.894191   2.188986
    31  H    5.808850   4.768274   3.542679   2.828126   2.184778
    32  H    6.625712   5.656721   4.185915   3.521732   2.178406
                   11         12         13         14         15
    11  C    0.000000
    12  O    9.927461   0.000000
    13  H    9.180761   2.259638   0.000000
    14  H    8.430720   2.540121   3.945214   0.000000
    15  H    7.291578   3.123880   3.467406   1.750135   0.000000
    16  H    7.572881   3.408926   4.067287   2.534299   3.083952
    17  H    6.261264   3.874862   3.624308   3.072693   2.530885
    18  H    5.453477   5.214416   5.542775   3.138033   2.623322
    19  H    6.942187   4.833504   5.809150   2.540182   3.090780
    20  H    5.461765   6.853215   7.346438   4.842291   4.922170
    21  H    6.555712   5.954050   6.536389   4.387550   4.803677
    22  H    4.758929   7.489526   7.377163   6.137485   5.910669
    23  H    5.184420   6.028084   5.694561   5.053429   4.686401
    24  H    2.881693   7.819876   7.596976   6.063083   5.342905
    25  H    3.493389   6.477769   5.989459   5.036919   4.011449
    26  H    2.808589   8.919319   8.233378   7.711705   6.931281
    27  H    3.498780   7.734521   6.754783   6.904980   5.956025
    28  H    2.150877   9.636200   8.487458   8.652549   7.426512
    29  H    2.162856   8.399599   7.341223   7.304196   5.943647
    30  H    1.090189   9.508678   8.970944   7.808472   6.727132
    31  H    1.090657  10.584397   9.909776   9.046540   8.046676
    32  H    1.090477  10.627257   9.766498   9.175044   7.914966
                   16         17         18         19         20
    16  H    0.000000
    17  H    1.749816   0.000000
    18  H    3.063045   2.503772   0.000000
    19  H    2.528193   3.056831   1.735640   0.000000
    20  H    3.763753   3.838756   2.486039   2.430951   0.000000
    21  H    2.600552   3.232867   3.060562   2.462137   1.734898
    22  H    4.221366   3.864714   3.869920   4.296546   2.460977
    23  H    3.017605   2.335950   3.307293   3.872457   3.060434
    24  H    5.070212   4.157052   3.009565   4.214936   2.597856
    25  H    4.168235   2.821794   2.340758   3.871775   3.238932
    26  H    6.088616   5.048021   5.043897   6.135931   4.379990
    27  H    5.303983   3.980813   4.661795   5.870626   4.747865
    28  H    7.460280   5.983899   6.066497   7.553827   6.269697
    29  H    6.516377   4.930220   4.774023   6.408612   5.552928
    30  H    7.172704   5.955782   4.754405   6.227094   4.828895
    31  H    7.983986   6.811137   6.012458   7.348193   5.564718
    32  H    8.478263   7.078133   6.257268   7.820948   6.470487
                   21         22         23         24         25
    21  H    0.000000
    22  H    2.432350   0.000000
    23  H    2.487098   1.735171   0.000000
    24  H    3.761823   2.526791   3.061115   0.000000
    25  H    3.846212   3.058388   2.508045   1.745953   0.000000
    26  H    4.854633   2.554823   3.163842   2.509483   3.060780
    27  H    4.855168   3.012187   2.555734   3.059681   2.522733
    28  H    6.864562   4.858053   4.837104   3.853377   3.740260
    29  H    6.249212   4.738388   4.394126   3.179674   2.566718
    30  H    6.107987   4.626236   5.083428   2.348294   3.136803
    31  H    6.658071   4.658370   5.402502   3.139450   4.117712
    32  H    7.596353   5.839313   6.170795   3.894037   4.328184
                   26         27         28         29         30
    26  H    0.000000
    27  H    1.740353   0.000000
    28  H    2.506562   2.407808   0.000000
    29  H    3.065462   2.507587   1.739435   0.000000
    30  H    3.225052   3.893285   3.069251   2.516477   0.000000
    31  H    2.614638   3.782727   2.536099   3.077024   1.763190
    32  H    3.788864   4.310461   2.461117   2.512308   1.755839
                   31         32
    31  H    0.000000
    32  H    1.759469   0.000000
 Stoichiometry    C10H20O2
 Framework group  C1[X(C10H20O2)]
 Deg. of freedom    90
 Full point group                 C1      NOp   1
 Largest Abelian subgroup         C1      NOp   1
 Largest concise Abelian subgroup C1      NOp   1
                         Standard orientation:                         
 ---------------------------------------------------------------------
 Center     Atomic      Atomic             Coordinates (Angstroms)
 Number     Number       Type             X           Y           Z
 ---------------------------------------------------------------------
      1          8           0        3.241651   -1.923940   -0.379081
      2          6           0        3.777678   -0.770891    0.075973
      3          6           0        2.766986    0.085474    0.830912
      4          6           0        1.660001    0.669624   -0.075472
      5          6           0        0.672554    1.556329    0.706347
      6          6           0       -0.396732    2.241010   -0.171574
      7          6           0       -1.330967    1.294169   -0.955125
      8          6           0       -2.165475    0.351136   -0.067516
      9          6           0       -3.156219   -0.505786   -0.878821
     10          6           0       -3.945755   -1.524780   -0.034609
     11          6           0       -4.913188   -0.887400    0.975572
     12          8           0        4.947240   -0.460200   -0.093979
     13          1           0        3.967973   -2.361181   -0.824236
     14          1           0        3.321011    0.890277    1.314497
     15          1           0        2.340298   -0.525407    1.625970
     16          1           0        2.108815    1.255883   -0.880858
     17          1           0        1.112742   -0.145228   -0.554385
     18          1           0        0.188799    0.969237    1.488448
     19          1           0        1.231698    2.332651    1.231723
     20          1           0       -1.004362    2.892222    0.459426
     21          1           0        0.100447    2.907948   -0.878117
     22          1           0       -2.007372    1.902511   -1.558208
     23          1           0       -0.751754    0.710303   -1.671695
     24          1           0       -2.707667    0.942200    0.671604
     25          1           0       -1.501992   -0.308066    0.494028
     26          1           0       -3.853424    0.142372   -1.412867
     27          1           0       -2.606291   -1.048104   -1.650045
     28          1           0       -4.516480   -2.169100   -0.705541
     29          1           0       -3.252607   -2.185130    0.489450
     30          1           0       -4.382603   -0.313555    1.735634
     31          1           0       -5.618701   -0.217994    0.481933
     32          1           0       -5.492958   -1.652026    1.493601
 ---------------------------------------------------------------------
 Rotational constants (GHZ):           1.4300090           0.2807151           0.2526746
 Standard basis: 6-31G(d,p) (6D, 7F)
 There are   280 symmetry adapted cartesian basis functions of A   symmetry.
 There are   280 symmetry adapted basis functions of A   symmetry.
   280 basis functions,   476 primitive gaussians,   280 cartesian basis functions
    48 alpha electrons       48 beta electrons
       nuclear repulsion energy       699.0348322713 Hartrees.
 NAtoms=   32 NActive=   32 NUniq=   32 SFac= 1.00D+00 NAtFMM=   60 NAOKFM=F Big=F
 Integral buffers will be    131072 words long.
 Raffenetti 2 integral format.
 Two-electron integral symmetry is turned on.
 Nuclear repulsion after empirical dispersion term =      698.9878436688 Hartrees.
 One-electron integrals computed using PRISM.
 NBasis=   280 RedAO= T EigKep=  3.05D-03  NBF=   280
 NBsUse=   280 1.00D-06 EigRej= -1.00D+00 NBFU=   280
 ExpMin= 1.61D-01 ExpMax= 5.48D+03 ExpMxC= 8.25D+02 IAcc=3 IRadAn=         5 AccDes= 0.00D+00
 Harris functional with IExCor=  402 and IRadAn=       5 diagonalized for initial guess.
 HarFok:  IExCor=  402 AccDes= 0.00D+00 IRadAn=         5 IDoV= 1 UseB2=F ITyADJ=14
 ICtDFT=  3500011 ScaDFX=  1.000000  1.000000  1.000000  1.000000
 FoFCou: FMM=F IPFlag=           0 FMFlag=      100000 FMFlg1=           0
         NFxFlg=           0 DoJE=T BraDBF=F KetDBF=T FulRan=T
         wScrn=  0.000000 ICntrl=       500 IOpCl=  0 I1Cent=   200000004 NGrid=           0
         NMat0=    1 NMatS0=      1 NMatT0=    0 NMatD0=    1 NMtDS0=    0 NMtDT0=    0
 Petite list used in FoFCou.
 Requested convergence on RMS density matrix=1.00D-08 within 128 cycles.
 Requested convergence on MAX density matrix=1.00D-06.
 Requested convergence on             energy=1.00D-06.
 No special actions if energy rises.
 Integral accuracy reduced to 1.0D-05 until final iterations.
 Initial convergence to 1.0D-05 achieved.  Increase integral accuracy.
 SCF Done:  E(RB3LYP) =  -543.664548467     A.U. after   13 cycles
            NFock= 13  Conv=0.91D-08     -V/T= 2.0096

 **********************************************************************

            Population analysis using the SCF Density.

 **********************************************************************

 Orbital symmetries:
       Occupied  (A) (A) (A) (A) (A) (A) (A) (A) (A) (A) (A) (A)
                 (A) (A) (A) (A) (A) (A) (A) (A) (A) (A) (A) (A)
                 (A) (A) (A) (A) (A) (A) (A) (A) (A) (A) (A) (A)
                 (A) (A) (A) (A) (A) (A) (A) (A) (A) (A) (A) (A)
       Virtual   (A) (A) (A) (A) (A) (A) (A) (A) (A) (A) (A) (A)
                 (A) (A) (A) (A) (A) (A) (A) (A) (A) (A) (A) (A)
                 (A) (A) (A) (A) (A) (A) (A) (A) (A) (A) (A) (A)
                 (A) (A) (A) (A) (A) (A) (A) (A) (A) (A) (A) (A)
                 (A) (A) (A) (A) (A) (A) (A) (A) (A) (A) (A) (A)
                 (A) (A) (A) (A) (A) (A) (A) (A) (A) (A) (A) (A)
                 (A) (A) (A) (A) (A) (A) (A) (A) (A) (A) (A) (A)
                 (A) (A) (A) (A) (A) (A) (A) (A) (A) (A) (A) (A)
                 (A) (A) (A) (A) (A) (A) (A) (A) (A) (A) (A) (A)
                 (A) (A) (A) (A) (A) (A) (A) (A) (A) (A) (A) (A)
                 (A) (A) (A) (A) (A) (A) (A) (A) (A) (A) (A) (A)
                 (A) (A) (A) (A) (A) (A) (A) (A) (A) (A) (A) (A)
                 (A) (A) (A) (A) (A) (A) (A) (A) (A) (A) (A) (A)
                 (A) (A) (A) (A) (A) (A) (A) (A) (A) (A) (A) (A)
                 (A) (A) (A) (A) (A) (A) (A) (A) (A) (A) (A) (A)
                 (A) (A) (A) (A) (A) (A) (A) (A) (A) (A) (A) (A)
                 (A) (A) (A) (A) (A) (A) (A) (A) (A) (A) (A) (A)
                 (A) (A) (A) (A) (A) (A) (A) (A) (A) (A) (A) (A)
                 (A) (A) (A) (A) (A) (A) (A) (A) (A) (A) (A) (A)
                 (A) (A) (A) (A)
 The electronic state is 1-A.
 Alpha  occ. eigenvalues --  -19.19858 -19.13564 -10.31922 -10.19850 -10.19148
 Alpha  occ. eigenvalues --  -10.18322 -10.18027 -10.17751 -10.17748 -10.17603
 Alpha  occ. eigenvalues --  -10.17574 -10.17033  -1.10685  -1.00979  -0.81498
 Alpha  occ. eigenvalues --   -0.79599  -0.76802  -0.72873  -0.68677  -0.64752
 Alpha  occ. eigenvalues --   -0.61605  -0.59811  -0.56987  -0.55827  -0.48919
 Alpha  occ. eigenvalues --   -0.47888  -0.47323  -0.46584  -0.45244  -0.44270
 Alpha  occ. eigenvalues --   -0.43428  -0.41800  -0.40688  -0.40330  -0.38628
 Alpha  occ. eigenvalues --   -0.38172  -0.37284  -0.36047  -0.35672  -0.34928
 Alpha  occ. eigenvalues --   -0.33636  -0.32780  -0.32394  -0.31760  -0.31542
 Alpha  occ. eigenvalues --   -0.31243  -0.30161  -0.26752
 Alpha virt. eigenvalues --    0.00895   0.07476   0.08534   0.09826   0.11034
 Alpha virt. eigenvalues --    0.11332   0.12555   0.13588   0.14240   0.15184
 Alpha virt. eigenvalues --    0.16024   0.16410   0.17081   0.17446   0.17957
 Alpha virt. eigenvalues --    0.18919   0.19188   0.19440   0.20253   0.20413
 Alpha virt. eigenvalues --    0.21149   0.22598   0.23076   0.24373   0.24512
 Alpha virt. eigenvalues --    0.25390   0.26089   0.27402   0.28609   0.29831
 Alpha virt. eigenvalues --    0.33060   0.35629   0.48934   0.49985   0.50329
 Alpha virt. eigenvalues --    0.51461   0.51808   0.52766   0.53489   0.54641
 Alpha virt. eigenvalues --    0.55697   0.56646   0.59125   0.60980   0.61919
 Alpha virt. eigenvalues --    0.62968   0.64606   0.65499   0.66307   0.67332
 Alpha virt. eigenvalues --    0.67536   0.69641   0.70346   0.71516   0.73096
 Alpha virt. eigenvalues --    0.75447   0.77597   0.78767   0.79638   0.81537
 Alpha virt. eigenvalues --    0.83103   0.84222   0.85252   0.86012   0.86288
 Alpha virt. eigenvalues --    0.86938   0.87269   0.88841   0.89793   0.90642
 Alpha virt. eigenvalues --    0.90944   0.91620   0.92101   0.92790   0.93302
 Alpha virt. eigenvalues --    0.93894   0.93968   0.95914   0.96377   0.97298
 Alpha virt. eigenvalues --    0.97696   1.00139   1.01726   1.03614   1.04793
 Alpha virt. eigenvalues --    1.06274   1.07422   1.09909   1.12138   1.17871
 Alpha virt. eigenvalues --    1.23030   1.26417   1.28364   1.31511   1.33735
 Alpha virt. eigenvalues --    1.37728   1.38684   1.40121   1.43212   1.46661
 Alpha virt. eigenvalues --    1.49644   1.51878   1.53404   1.55681   1.57551
 Alpha virt. eigenvalues --    1.58356   1.59571   1.60975   1.64040   1.67728
 Alpha virt. eigenvalues --    1.69347   1.70917   1.71803   1.74989   1.75562
 Alpha virt. eigenvalues --    1.76368   1.78008   1.78546   1.81630   1.82075
 Alpha virt. eigenvalues --    1.82858   1.84887   1.86135   1.87320   1.88366
 Alpha virt. eigenvalues --    1.89041   1.89999   1.91394   1.91817   1.94423
 Alpha virt. eigenvalues --    1.98209   2.03081   2.05796   2.06923   2.08607
 Alpha virt. eigenvalues --    2.09006   2.11132   2.11776   2.12522   2.14240
 Alpha virt. eigenvalues --    2.15068   2.15632   2.17924   2.18658   2.20242
 Alpha virt. eigenvalues --    2.21795   2.23442   2.25014   2.26131   2.27602
 Alpha virt. eigenvalues --    2.28337   2.29553   2.30210   2.31754   2.32968
 Alpha virt. eigenvalues --    2.34729   2.36196   2.36581   2.37338   2.39985
 Alpha virt. eigenvalues --    2.41574   2.42505   2.44996   2.46794   2.51034
 Alpha virt. eigenvalues --    2.52374   2.54260   2.55777   2.56859   2.58608
 Alpha virt. eigenvalues --    2.60012   2.62122   2.62874   2.64225   2.65949
 Alpha virt. eigenvalues --    2.67354   2.70412   2.71842   2.74130   2.75943
 Alpha virt. eigenvalues --    2.76616   2.79079   2.80029   2.81445   2.82303
 Alpha virt. eigenvalues --    2.83344   2.85604   2.87831   2.88282   2.90248
 Alpha virt. eigenvalues --    2.90458   2.91248   2.91859   2.92024   2.92474
 Alpha virt. eigenvalues --    2.93548   2.94075   2.95748   3.02626   3.11416
 Alpha virt. eigenvalues --    3.20239   3.24654   3.27417   3.30212   3.31430
 Alpha virt. eigenvalues --    3.33156   3.33433   3.35831   3.37220   3.39497
 Alpha virt. eigenvalues --    3.41518   3.44728   3.45024   3.47211   3.49542
 Alpha virt. eigenvalues --    3.53507   3.55058   3.58276   3.58489   3.60581
 Alpha virt. eigenvalues --    3.92516   4.10692   4.23834   4.28902   4.36107
 Alpha virt. eigenvalues --    4.41237   4.50267   4.56493   4.61420   4.65314
 Alpha virt. eigenvalues --    4.73423   4.75547
          Condensed to atoms (all electrons):
               1          2          3          4          5          6
     1  O    8.120657   0.246789  -0.098899   0.001795   0.000013   0.000001
     2  C    0.246789   4.394660   0.336931  -0.024594   0.002558  -0.000093
     3  C   -0.098899   0.336931   5.091945   0.348028  -0.033195   0.003400
     4  C    0.001795  -0.024594   0.348028   4.902944   0.372853  -0.039037
     5  C    0.000013   0.002558  -0.033195   0.372853   4.909587   0.370481
     6  C    0.000001  -0.000093   0.003400  -0.039037   0.370481   4.921425
     7  C   -0.000001   0.000003   0.000151  -0.003951  -0.042777   0.366714
     8  C    0.000000   0.000000   0.000000  -0.001702  -0.004342  -0.039970
     9  C   -0.000000   0.000000   0.000000   0.000001   0.000150   0.003550
    10  C   -0.000000  -0.000000  -0.000000   0.000000   0.000002  -0.000130
    11  C   -0.000000   0.000000  -0.000000  -0.000000  -0.000000   0.000002
    12  O   -0.083486   0.575639  -0.072538  -0.000818  -0.000049   0.000000
    13  H    0.268404  -0.009633   0.010739  -0.000150   0.000011  -0.000000
    14  H    0.003387  -0.031963   0.375725  -0.031782  -0.004205   0.000029
    15  H    0.002493  -0.024991   0.356894  -0.028542  -0.005598   0.000107
    16  H   -0.000065  -0.000654  -0.042565   0.386795  -0.041291  -0.002035
    17  H    0.004862  -0.004447  -0.038079   0.385623  -0.035429  -0.004719
    18  H    0.000005   0.000025  -0.003055  -0.041478   0.383195  -0.036550
    19  H   -0.000002   0.000020  -0.004313  -0.041329   0.380011  -0.031950
    20  H    0.000000   0.000001  -0.000134   0.004709  -0.033192   0.376854
    21  H    0.000000  -0.000001   0.000041  -0.007223  -0.038488   0.375816
    22  H   -0.000000  -0.000000  -0.000002   0.000066   0.004967  -0.032164
    23  H   -0.000002   0.000006  -0.000093   0.003710  -0.007751  -0.037638
    24  H   -0.000000   0.000000   0.000000   0.000110  -0.001122  -0.002332
    25  H   -0.000001  -0.000001  -0.000050   0.000305   0.002532  -0.004794
    26  H    0.000000  -0.000000  -0.000000  -0.000001   0.000003  -0.000018
    27  H    0.000000   0.000000  -0.000000   0.000003  -0.000019   0.000114
    28  H   -0.000000   0.000000   0.000000  -0.000000   0.000000   0.000002
    29  H    0.000000   0.000000  -0.000000  -0.000000  -0.000003  -0.000000
    30  H    0.000000   0.000000   0.000000  -0.000000   0.000001   0.000005
    31  H   -0.000000  -0.000000   0.000000   0.000000  -0.000000  -0.000000
    32  H    0.000000  -0.000000   0.000000   0.000000  -0.000000  -0.000000
               7          8          9         10         11         12
     1  O   -0.000001   0.000000  -0.000000  -0.000000  -0.000000  -0.083486
     2  C    0.000003   0.000000   0.000000  -0.000000   0.000000   0.575639
     3  C    0.000151   0.000000   0.000000  -0.000000  -0.000000  -0.072538
     4  C   -0.003951  -0.001702   0.000001   0.000000  -0.000000  -0.000818
     5  C   -0.042777  -0.004342   0.000150   0.000002  -0.000000  -0.000049
     6  C    0.366714  -0.039970   0.003550  -0.000130   0.000002   0.000000
     7  C    4.910143   0.377042  -0.033383   0.003531   0.000140  -0.000000
     8  C    0.377042   4.897908   0.379484  -0.039919  -0.004876  -0.000000
     9  C   -0.033383   0.379484   4.896038   0.374298  -0.045657  -0.000000
    10  C    0.003531  -0.039919   0.374298   4.877793   0.375914  -0.000000
    11  C    0.000140  -0.004876  -0.045657   0.375914   4.914890   0.000000
    12  O   -0.000000  -0.000000  -0.000000  -0.000000   0.000000   8.031636
    13  H    0.000000  -0.000000  -0.000000  -0.000000   0.000000   0.011469
    14  H    0.000004  -0.000001  -0.000000  -0.000000   0.000000   0.002120
    15  H   -0.000016   0.000005   0.000000   0.000000  -0.000000   0.002281
    16  H   -0.000998   0.000099   0.000000   0.000000   0.000000   0.001041
    17  H    0.002712   0.000365  -0.000055  -0.000002   0.000000   0.000006
    18  H   -0.007366   0.003828  -0.000114   0.000008   0.000001  -0.000000
    19  H    0.004833   0.000070  -0.000002  -0.000000   0.000000  -0.000002
    20  H   -0.037960  -0.006927   0.000034  -0.000000  -0.000002  -0.000000
    21  H   -0.032872   0.004652  -0.000132   0.000002   0.000000  -0.000000
    22  H    0.379305  -0.040658  -0.004217   0.000097  -0.000016   0.000000
    23  H    0.382431  -0.040304  -0.003612  -0.000021   0.000001  -0.000000
    24  H   -0.040507   0.384311  -0.038717  -0.004000   0.002653  -0.000000
    25  H   -0.038394   0.383064  -0.040031  -0.003168  -0.000750  -0.000000
    26  H   -0.003888  -0.040224   0.381225  -0.038148  -0.007039   0.000000
    27  H   -0.004318  -0.040413   0.379146  -0.033792   0.005086   0.000000
    28  H   -0.000137   0.004609  -0.031740   0.380320  -0.039725   0.000000
    29  H    0.000051  -0.007721  -0.038069   0.385133  -0.040080   0.000000
    30  H   -0.000104   0.002575  -0.004746  -0.035115   0.388379   0.000000
    31  H   -0.000023  -0.000683  -0.004605  -0.035768   0.387018  -0.000000
    32  H   -0.000001   0.000131   0.004320  -0.028176   0.381138   0.000000
              13         14         15         16         17         18
     1  O    0.268404   0.003387   0.002493  -0.000065   0.004862   0.000005
     2  C   -0.009633  -0.031963  -0.024991  -0.000654  -0.004447   0.000025
     3  C    0.010739   0.375725   0.356894  -0.042565  -0.038079  -0.003055
     4  C   -0.000150  -0.031782  -0.028542   0.386795   0.385623  -0.041478
     5  C    0.000011  -0.004205  -0.005598  -0.041291  -0.035429   0.383195
     6  C   -0.000000   0.000029   0.000107  -0.002035  -0.004719  -0.036550
     7  C    0.000000   0.000004  -0.000016  -0.000998   0.002712  -0.007366
     8  C   -0.000000  -0.000001   0.000005   0.000099   0.000365   0.003828
     9  C   -0.000000  -0.000000   0.000000   0.000000  -0.000055  -0.000114
    10  C   -0.000000  -0.000000   0.000000   0.000000  -0.000002   0.000008
    11  C    0.000000   0.000000  -0.000000   0.000000   0.000000   0.000001
    12  O    0.011469   0.002120   0.002281   0.001041   0.000006  -0.000000
    13  H    0.401787  -0.000342  -0.000510  -0.000078  -0.000164  -0.000000
    14  H   -0.000342   0.586871  -0.033370  -0.004967   0.005223  -0.000476
    15  H   -0.000510  -0.033370   0.603975   0.005665  -0.005239   0.004371
    16  H   -0.000078  -0.004967   0.005665   0.625953  -0.039346   0.005950
    17  H   -0.000164   0.005223  -0.005239  -0.039346   0.608949  -0.006337
    18  H   -0.000000  -0.000476   0.004371   0.005950  -0.006337   0.637723
    19  H    0.000000   0.004982  -0.000573  -0.005309   0.005863  -0.040297
    20  H    0.000000  -0.000007  -0.000000  -0.000001  -0.000017  -0.003779
    21  H   -0.000000   0.000001   0.000006   0.005009  -0.000273   0.006026
    22  H   -0.000000   0.000000  -0.000000  -0.000034  -0.000061  -0.000001
    23  H    0.000000  -0.000002   0.000004   0.000456   0.001522   0.000060
    24  H    0.000000  -0.000000  -0.000001  -0.000002  -0.000023   0.000525
    25  H    0.000000   0.000001   0.000012  -0.000021   0.000993   0.001566
    26  H   -0.000000  -0.000000   0.000000  -0.000000   0.000002  -0.000000
    27  H   -0.000000   0.000000  -0.000000  -0.000001   0.000016   0.000008
    28  H   -0.000000  -0.000000   0.000000  -0.000000  -0.000000  -0.000000
    29  H    0.000000  -0.000000   0.000000   0.000000   0.000000  -0.000002
    30  H   -0.000000  -0.000000   0.000000  -0.000000  -0.000000  -0.000000
    31  H    0.000000  -0.000000   0.000000  -0.000000   0.000000  -0.000000
    32  H   -0.000000  -0.000000  -0.000000   0.000000  -0.000000   0.000000
              19         20         21         22         23         24
     1  O   -0.000002   0.000000   0.000000  -0.000000  -0.000002  -0.000000
     2  C    0.000020   0.000001  -0.000001  -0.000000   0.000006   0.000000
     3  C   -0.004313  -0.000134   0.000041  -0.000002  -0.000093   0.000000
     4  C   -0.041329   0.004709  -0.007223   0.000066   0.003710   0.000110
     5  C    0.380011  -0.033192  -0.038488   0.004967  -0.007751  -0.001122
     6  C   -0.031950   0.376854   0.375816  -0.032164  -0.037638  -0.002332
     7  C    0.004833  -0.037960  -0.032872   0.379305   0.382431  -0.040507
     8  C    0.000070  -0.006927   0.004652  -0.040658  -0.040304   0.384311
     9  C   -0.000002   0.000034  -0.000132  -0.004217  -0.003612  -0.038717
    10  C   -0.000000  -0.000000   0.000002   0.000097  -0.000021  -0.004000
    11  C    0.000000  -0.000002   0.000000  -0.000016   0.000001   0.002653
    12  O   -0.000002  -0.000000  -0.000000   0.000000  -0.000000  -0.000000
    13  H    0.000000   0.000000  -0.000000  -0.000000   0.000000   0.000000
    14  H    0.004982  -0.000007   0.000001   0.000000  -0.000002  -0.000000
    15  H   -0.000573  -0.000000   0.000006  -0.000000   0.000004  -0.000001
    16  H   -0.005309  -0.000001   0.005009  -0.000034   0.000456  -0.000002
    17  H    0.005863  -0.000017  -0.000273  -0.000061   0.001522  -0.000023
    18  H   -0.040297  -0.003779   0.006026  -0.000001   0.000060   0.000525
    19  H    0.643759  -0.003691  -0.004390  -0.000151  -0.000016  -0.000038
    20  H   -0.003691   0.645649  -0.038752  -0.004503   0.006035   0.005298
    21  H   -0.004390  -0.038752   0.647899  -0.003668  -0.003582   0.000020
    22  H   -0.000151  -0.004503  -0.003668   0.646219  -0.040201  -0.005473
    23  H   -0.000016   0.006035  -0.003582  -0.040201   0.642295   0.006130
    24  H   -0.000038   0.005298   0.000020  -0.005473   0.006130   0.641262
    25  H   -0.000038  -0.000298  -0.000045   0.006149  -0.006607  -0.042807
    26  H    0.000000   0.000002  -0.000004   0.005200  -0.000529  -0.006182
    27  H   -0.000000   0.000008   0.000003  -0.000594   0.005195   0.006111
    28  H    0.000000  -0.000000  -0.000000   0.000003  -0.000004  -0.000026
    29  H    0.000000   0.000000   0.000000   0.000010   0.000002  -0.000242
    30  H    0.000000  -0.000003  -0.000000   0.000010  -0.000001   0.001864
    31  H    0.000000   0.000000  -0.000000   0.000001   0.000000   0.000388
    32  H   -0.000000   0.000000   0.000000  -0.000000   0.000000  -0.000118
              25         26         27         28         29         30
     1  O   -0.000001   0.000000   0.000000  -0.000000   0.000000   0.000000
     2  C   -0.000001  -0.000000   0.000000   0.000000   0.000000   0.000000
     3  C   -0.000050  -0.000000  -0.000000   0.000000  -0.000000   0.000000
     4  C    0.000305  -0.000001   0.000003  -0.000000  -0.000000  -0.000000
     5  C    0.002532   0.000003  -0.000019   0.000000  -0.000003   0.000001
     6  C   -0.004794  -0.000018   0.000114   0.000002  -0.000000   0.000005
     7  C   -0.038394  -0.003888  -0.004318  -0.000137   0.000051  -0.000104
     8  C    0.383064  -0.040224  -0.040413   0.004609  -0.007721   0.002575
     9  C   -0.040031   0.381225   0.379146  -0.031740  -0.038069  -0.004746
    10  C   -0.003168  -0.038148  -0.033792   0.380320   0.385133  -0.035115
    11  C   -0.000750  -0.007039   0.005086  -0.039725  -0.040080   0.388379
    12  O   -0.000000   0.000000   0.000000   0.000000   0.000000   0.000000
    13  H    0.000000  -0.000000  -0.000000  -0.000000   0.000000  -0.000000
    14  H    0.000001  -0.000000   0.000000  -0.000000  -0.000000  -0.000000
    15  H    0.000012   0.000000  -0.000000   0.000000   0.000000   0.000000
    16  H   -0.000021  -0.000000  -0.000001  -0.000000   0.000000  -0.000000
    17  H    0.000993   0.000002   0.000016  -0.000000   0.000000  -0.000000
    18  H    0.001566  -0.000000   0.000008  -0.000000  -0.000002  -0.000000
    19  H   -0.000038   0.000000  -0.000000   0.000000   0.000000   0.000000
    20  H   -0.000298   0.000002   0.000008  -0.000000   0.000000  -0.000003
    21  H   -0.000045  -0.000004   0.000003  -0.000000   0.000000  -0.000000
    22  H    0.006149   0.005200  -0.000594   0.000003   0.000010   0.000010
    23  H   -0.006607  -0.000529   0.005195  -0.000004   0.000002  -0.000001
    24  H   -0.042807  -0.006182   0.006111  -0.000026  -0.000242   0.001864
    25  H    0.643807   0.006129  -0.005559   0.000034   0.005787   0.000431
    26  H    0.006129   0.646870  -0.040387  -0.003135   0.006089  -0.000151
    27  H   -0.005559  -0.040387   0.649363  -0.004415  -0.003202  -0.000022
    28  H    0.000034  -0.003135  -0.004415   0.646444  -0.039859   0.005530
    29  H    0.005787   0.006089  -0.003202  -0.039859   0.642582  -0.005242
    30  H    0.000431  -0.000151  -0.000022   0.005530  -0.005242   0.608089
    31  H    0.000085   0.005390   0.000032  -0.004408   0.005523  -0.034041
    32  H   -0.000024   0.000005  -0.000185  -0.004139  -0.002605  -0.032143
              31         32
     1  O   -0.000000   0.000000
     2  C   -0.000000  -0.000000
     3  C    0.000000   0.000000
     4  C    0.000000   0.000000
     5  C   -0.000000  -0.000000
     6  C   -0.000000  -0.000000
     7  C   -0.000023  -0.000001
     8  C   -0.000683   0.000131
     9  C   -0.004605   0.004320
    10  C   -0.035768  -0.028176
    11  C    0.387018   0.381138
    12  O   -0.000000   0.000000
    13  H    0.000000  -0.000000
    14  H   -0.000000  -0.000000
    15  H    0.000000  -0.000000
    16  H   -0.000000   0.000000
    17  H    0.000000  -0.000000
    18  H   -0.000000   0.000000
    19  H    0.000000  -0.000000
    20  H    0.000000   0.000000
    21  H   -0.000000   0.000000
    22  H    0.000001  -0.000000
    23  H    0.000000   0.000000
    24  H    0.000388  -0.000118
    25  H    0.000085  -0.000024
    26  H    0.005390   0.000005
    27  H    0.000032  -0.000185
    28  H   -0.004408  -0.004139
    29  H    0.005523  -0.002605
    30  H   -0.034041  -0.032143
    31  H    0.611636  -0.032443
    32  H   -0.032443   0.614221
 Mulliken charges:
               1
     1  O   -0.465950
     2  C    0.539744
     3  C   -0.230932
     4  C   -0.186339
     5  C   -0.178900
     6  C   -0.187071
     7  C   -0.180362
     8  C   -0.170404
     9  C   -0.173166
    10  C   -0.178859
    11  C   -0.317078
    12  O   -0.467299
    13  H    0.318467
    14  H    0.128770
    15  H    0.123023
    16  H    0.106398
    17  H    0.118053
    18  H    0.096166
    19  H    0.092562
    20  H    0.090673
    21  H    0.089955
    22  H    0.089715
    23  H    0.092513
    24  H    0.092916
    25  H    0.091693
    26  H    0.088792
    27  H    0.087824
    28  H    0.090647
    29  H    0.091846
    30  H    0.104684
    31  H    0.101899
    32  H    0.100019
 Sum of Mulliken charges =  -0.00000
 Mulliken charges with hydrogens summed into heavy atoms:
               1
     1  O   -0.147483
     2  C    0.539744
     3  C    0.020860
     4  C    0.038112
     5  C    0.009828
     6  C   -0.006443
     7  C    0.001866
     8  C    0.014205
     9  C    0.003450
    10  C    0.003635
    11  C   -0.010476
    12  O   -0.467299
 Electronic spatial extent (au):  <R**2>=           4362.9794
 Charge=             -0.0000 electrons
 Dipole moment (field-independent basis, Debye):
    X=             -1.8528    Y=             -0.4386    Z=             -0.0111  Tot=              1.9041
 Quadrupole moment (field-independent basis, Debye-Ang):
   XX=            -91.2373   YY=            -72.6952   ZZ=            -74.5192
   XY=             -4.2483   XZ=             -0.5399   YZ=              1.5878
 Traceless Quadrupole moment (field-independent basis, Debye-Ang):
   XX=            -11.7534   YY=              6.7887   ZZ=              4.9647
   XY=             -4.2483   XZ=             -0.5399   YZ=              1.5878
 Octapole moment (field-independent basis, Debye-Ang**2):
  XXX=            -68.2580  YYY=            -19.2582  ZZZ=             -2.1543  XYY=             29.5422
  XXY=            -25.1048  XXZ=             -7.8245  XZZ=             19.3436  YZZ=             -6.3449
  YYZ=             -5.7203  XYZ=              8.2046
 Hexadecapole moment (field-independent basis, Debye-Ang**3):
 XXXX=          -5168.5833 YYYY=           -809.0788 ZZZZ=           -326.4382 XXXY=           -133.3037
 XXXZ=            -16.5034 YYYX=            -88.3066 YYYZ=             20.3757 ZZZX=             -9.9303
 ZZZY=              6.7755 XXYY=           -795.7377 XXZZ=           -783.8757 YYZZ=           -183.8868
 XXYZ=             34.5751 YYXZ=            -26.5093 ZZXY=            -23.4498
 N-N= 6.989878436688D+02 E-N=-2.661135338312D+03  KE= 5.384933883458D+02
 Calling FoFJK, ICntrl=      2127 FMM=F ISym2X=0 I1Cent= 0 IOpClX= 0 NMat=1 NMatS=1 NMatT=0.
 ***** Axes restored to original set *****
 -------------------------------------------------------------------
 Center     Atomic                   Forces (Hartrees/Bohr)
 Number     Number              X              Y              Z
 -------------------------------------------------------------------
      1        8          -0.006319028   -0.008818844   -0.000921503
      2        6          -0.006890136   -0.008825915    0.020241653
      3        6          -0.001545074    0.007570769    0.000638882
      4        6           0.001614513   -0.006947510   -0.003500025
      5        6          -0.003026906    0.004995099   -0.001058463
      6        6           0.005231365    0.002517655   -0.003528086
      7        6           0.003268782   -0.007471553    0.002518330
      8        6          -0.005247866    0.008357552   -0.002251747
      9        6           0.007051719   -0.005299571    0.002700067
     10        6          -0.007358533   -0.002726083    0.001345940
     11        6           0.003642441    0.004198566    0.000985513
     12        8          -0.000273432   -0.002921753   -0.017704992
     13        1           0.008387193    0.014104335    0.000325696
     14        1          -0.000448003    0.001630793    0.002229480
     15        1           0.000596138   -0.002534812   -0.005368967
     16        1          -0.000436307    0.001934734    0.002656631
     17        1           0.001761343    0.001398738   -0.001331338
     18        1           0.002953542   -0.001535906   -0.002984916
     19        1          -0.000734564   -0.000874433    0.004063249
     20        1          -0.000464717   -0.004302748   -0.000499515
     21        1          -0.001443571    0.003629046    0.002326506
     22        1          -0.003939772   -0.000389977   -0.001152306
     23        1           0.002931395    0.003576173   -0.000465547
     24        1          -0.001718484   -0.003892105    0.000729592
     25        1           0.004446215   -0.000109683    0.000567967
     26        1          -0.004508219   -0.001201111   -0.000789775
     27        1           0.001565780    0.004097933    0.000826357
     28        1          -0.000727229    0.002104710   -0.003214585
     29        1           0.003683370   -0.000133361    0.002454303
     30        1          -0.000280483   -0.001384298    0.002585095
     31        1          -0.003309771    0.000559818   -0.000383506
     32        1           0.001538298   -0.001306258   -0.002039991
 -------------------------------------------------------------------
 Cartesian Forces:  Max     0.020241653 RMS     0.004707040

 GradGradGradGradGradGradGradGradGradGradGradGradGradGradGradGradGradGrad
 Berny optimization.
 FormGI is forming the generalized inverse of G from B-inverse, IUseBI=4.
 Internal  Forces:  Max     0.016867094 RMS     0.002756371
 Search for a local minimum.
 Step number   1 out of a maximum of  179
 All quantities printed in internal units (Hartrees-Bohrs-Radians)
 Mixed Optimization -- RFO/linear search
 Second derivative matrix not updated -- first step.
 ITU=  0
     Eigenvalues ---    0.00230   0.00230   0.00230   0.00230   0.00230
     Eigenvalues ---    0.00230   0.00233   0.00275   0.00439   0.00910
     Eigenvalues ---    0.02346   0.03099   0.03228   0.03231   0.03258
     Eigenvalues ---    0.03276   0.03412   0.03452   0.03893   0.04645
     Eigenvalues ---    0.04680   0.04681   0.04690   0.04705   0.04729
     Eigenvalues ---    0.04740   0.05178   0.05351   0.05458   0.08216
     Eigenvalues ---    0.08282   0.08544   0.08553   0.08580   0.08581
     Eigenvalues ---    0.08843   0.09531   0.12132   0.12182   0.12373
     Eigenvalues ---    0.12377   0.12400   0.12402   0.12580   0.12892
     Eigenvalues ---    0.16000   0.16000   0.16000   0.16000   0.21892
     Eigenvalues ---    0.21896   0.21896   0.21896   0.21906   0.21908
     Eigenvalues ---    0.21929   0.21954   0.24999   0.25000   0.28048
     Eigenvalues ---    0.28187   0.28197   0.28438   0.28447   0.28463
     Eigenvalues ---    0.28492   0.28778   0.29916   0.34514   0.34563
     Eigenvalues ---    0.34636   0.34638   0.34642   0.34643   0.34643
     Eigenvalues ---    0.34649   0.34651   0.34658   0.34692   0.34708
     Eigenvalues ---    0.34720   0.34732   0.34737   0.34758   0.34791
     Eigenvalues ---    0.34791   0.34852   0.54909   0.56006   0.94502
 RFO step:  Lambda=-4.19669385D-03 EMin= 2.30000000D-03
 Linear search not attempted -- first point.
 Iteration  1 RMS(Cart)=  0.07651378 RMS(Int)=  0.00100504
 Iteration  2 RMS(Cart)=  0.00177687 RMS(Int)=  0.00023270
 Iteration  3 RMS(Cart)=  0.00000264 RMS(Int)=  0.00023270
 Iteration  4 RMS(Cart)=  0.00000000 RMS(Int)=  0.00023270
 Variable       Old X    -DE/DX   Delta X   Delta X   Delta X     New X
                                 (Linear)    (Quad)   (Total)
    R1        2.55213   0.00306   0.00000   0.00552   0.00552   2.55765
    R2        1.80949   0.01599   0.00000   0.02835   0.02835   1.83784
    R3        2.88132  -0.00793   0.00000  -0.02613  -0.02613   2.85518
    R4        2.30925  -0.01687   0.00000  -0.01777  -0.01777   2.29148
    R5        2.92033  -0.00593   0.00000  -0.02083  -0.02083   2.89951
    R6        2.06015   0.00153   0.00000   0.00435   0.00435   2.06450
    R7        2.05916   0.00455   0.00000   0.01289   0.01289   2.07205
    R8        2.91075  -0.00494   0.00000  -0.01708  -0.01708   2.89367
    R9        2.06472   0.00281   0.00000   0.00804   0.00804   2.07276
   R10        2.06390   0.00203   0.00000   0.00580   0.00580   2.06970
   R11        2.91711  -0.00500   0.00000  -0.01746  -0.01746   2.89965
   R12        2.06178   0.00413   0.00000   0.01177   0.01177   2.07355
   R13        2.06261   0.00414   0.00000   0.01182   0.01182   2.07442
   R14        2.91732  -0.00450   0.00000  -0.01572  -0.01572   2.90160
   R15        2.06270   0.00403   0.00000   0.01148   0.01148   2.07419
   R16        2.06248   0.00431   0.00000   0.01230   0.01230   2.07478
   R17        2.91138  -0.00478   0.00000  -0.01655  -0.01655   2.89483
   R18        2.06259   0.00406   0.00000   0.01158   0.01158   2.07416
   R19        2.06133   0.00441   0.00000   0.01255   0.01255   2.07387
   R20        2.91171  -0.00466   0.00000  -0.01613  -0.01613   2.89559
   R21        2.06113   0.00428   0.00000   0.01218   0.01218   2.07331
   R22        2.06152   0.00445   0.00000   0.01266   0.01266   2.07418
   R23        2.91190  -0.00334   0.00000  -0.01158  -0.01158   2.90032
   R24        2.06267   0.00454   0.00000   0.01295   0.01295   2.07562
   R25        2.06259   0.00435   0.00000   0.01240   0.01240   2.07499
   R26        2.90468  -0.00259   0.00000  -0.00888  -0.00888   2.89580
   R27        2.06234   0.00385   0.00000   0.01098   0.01098   2.07331
   R28        2.06245   0.00420   0.00000   0.01198   0.01198   2.07443
   R29        2.06016   0.00288   0.00000   0.00817   0.00817   2.06832
   R30        2.06104   0.00327   0.00000   0.00931   0.00931   2.07036
   R31        2.06070   0.00287   0.00000   0.00816   0.00816   2.06886
    A1        1.81877   0.00664   0.00000   0.04042   0.04042   1.85919
    A2        1.96412  -0.00111   0.00000  -0.00414  -0.00536   1.95876
    A3        2.15326  -0.00645   0.00000  -0.02512  -0.02628   2.12697
    A4        2.16577   0.00757   0.00000   0.03002   0.02873   2.19450
    A5        1.97875  -0.00216   0.00000  -0.01522  -0.01539   1.96336
    A6        1.87275  -0.00050   0.00000  -0.00361  -0.00358   1.86918
    A7        1.88174   0.00242   0.00000   0.00948   0.00904   1.89078
    A8        1.92319   0.00177   0.00000   0.01345   0.01353   1.93672
    A9        1.93838  -0.00260   0.00000  -0.02696  -0.02701   1.91136
   A10        1.86419   0.00134   0.00000   0.02601   0.02610   1.89029
   A11        1.95964  -0.00116   0.00000  -0.00691  -0.00691   1.95273
   A12        1.91868  -0.00071   0.00000  -0.01366  -0.01367   1.90501
   A13        1.91144  -0.00056   0.00000  -0.00665  -0.00662   1.90483
   A14        1.90561   0.00094   0.00000   0.00588   0.00575   1.91137
   A15        1.90799   0.00144   0.00000   0.01570   0.01566   1.92365
   A16        1.85764   0.00014   0.00000   0.00655   0.00640   1.86404
   A17        1.99405  -0.00214   0.00000  -0.01300  -0.01307   1.98098
   A18        1.91593  -0.00037   0.00000  -0.01169  -0.01177   1.90416
   A19        1.90218   0.00071   0.00000   0.00547   0.00554   1.90772
   A20        1.91689   0.00102   0.00000   0.00116   0.00095   1.91784
   A21        1.88928   0.00072   0.00000   0.00771   0.00772   1.89700
   A22        1.83881   0.00027   0.00000   0.01285   0.01285   1.85167
   A23        2.02174  -0.00241   0.00000  -0.01499  -0.01505   2.00669
   A24        1.89806   0.00007   0.00000  -0.00489  -0.00492   1.89313
   A25        1.90039   0.00065   0.00000   0.00122   0.00120   1.90160
   A26        1.89911   0.00096   0.00000   0.00321   0.00310   1.90221
   A27        1.89852   0.00054   0.00000   0.00159   0.00154   1.90006
   A28        1.83718   0.00045   0.00000   0.01700   0.01698   1.85417
   A29        1.99412  -0.00050   0.00000  -0.00466  -0.00470   1.98942
   A30        1.88981   0.00005   0.00000   0.00324   0.00324   1.89305
   A31        1.91811   0.00054   0.00000   0.00030   0.00021   1.91832
   A32        1.90056   0.00034   0.00000   0.00392   0.00394   1.90450
   A33        1.91607  -0.00078   0.00000  -0.01146  -0.01149   1.90458
   A34        1.83840   0.00045   0.00000   0.01022   0.01023   1.84864
   A35        1.96639  -0.00008   0.00000  -0.00072  -0.00072   1.96567
   A36        1.90496  -0.00047   0.00000  -0.00385  -0.00385   1.90111
   A37        1.91453   0.00051   0.00000   0.00376   0.00376   1.91829
   A38        1.91618   0.00050   0.00000   0.00382   0.00382   1.92000
   A39        1.90291  -0.00050   0.00000  -0.00427  -0.00427   1.89864
   A40        1.85560   0.00006   0.00000   0.00142   0.00143   1.85703
   A41        1.99190   0.00017   0.00000  -0.00120  -0.00124   1.99066
   A42        1.91568  -0.00056   0.00000  -0.01034  -0.01038   1.90530
   A43        1.90119  -0.00049   0.00000  -0.00117  -0.00117   1.90002
   A44        1.91076  -0.00019   0.00000  -0.00506  -0.00513   1.90563
   A45        1.89304   0.00061   0.00000   0.00991   0.00992   1.90296
   A46        1.84539   0.00051   0.00000   0.00899   0.00900   1.85439
   A47        1.99142  -0.00025   0.00000  -0.00322  -0.00327   1.98815
   A48        1.89817  -0.00008   0.00000   0.00190   0.00191   1.90009
   A49        1.91534  -0.00059   0.00000  -0.01099  -0.01104   1.90430
   A50        1.89621   0.00047   0.00000   0.00826   0.00827   1.90448
   A51        1.91246   0.00007   0.00000  -0.00388  -0.00397   1.90849
   A52        1.84431   0.00044   0.00000   0.00922   0.00923   1.85354
   A53        1.94996   0.00013   0.00000   0.00038   0.00036   1.95032
   A54        1.94356  -0.00110   0.00000  -0.00840  -0.00841   1.93515
   A55        1.93486   0.00029   0.00000   0.00390   0.00390   1.93876
   A56        1.88316   0.00007   0.00000  -0.00347  -0.00350   1.87966
   A57        1.87197   0.00014   0.00000   0.00407   0.00406   1.87603
   A58        1.87701   0.00051   0.00000   0.00391   0.00392   1.88094
    D1       -3.13926  -0.00091   0.00000  -0.05509  -0.05383   3.09010
    D2       -0.00674   0.00034   0.00000   0.03451   0.03324   0.02650
    D3       -1.19489   0.00192   0.00000   0.07810   0.07854  -1.11634
    D4        2.96074   0.00141   0.00000   0.07335   0.07373   3.03447
    D5        0.95840  -0.00108   0.00000   0.04034   0.04064   0.99904
    D6        1.95586   0.00074   0.00000  -0.01191  -0.01222   1.94364
    D7       -0.17170   0.00023   0.00000  -0.01666  -0.01703  -0.18873
    D8       -2.17404  -0.00226   0.00000  -0.04967  -0.05012  -2.22416
    D9       -3.11829   0.00037   0.00000  -0.00691  -0.00678  -3.12507
   D10       -0.99324   0.00027   0.00000  -0.01374  -0.01358  -1.00682
   D11        1.04191  -0.00029   0.00000  -0.01759  -0.01743   1.02448
   D12       -1.01912  -0.00047   0.00000  -0.01225  -0.01226  -1.03138
   D13        1.10592  -0.00056   0.00000  -0.01909  -0.01905   1.08687
   D14        3.14108  -0.00113   0.00000  -0.02293  -0.02291   3.11817
   D15        1.04302   0.00069   0.00000   0.01171   0.01152   1.05454
   D16       -3.11512   0.00060   0.00000   0.00487   0.00472  -3.11040
   D17       -1.07997   0.00003   0.00000   0.00103   0.00087  -1.07910
   D18        3.07284   0.00003   0.00000   0.00719   0.00713   3.07997
   D19       -1.04839  -0.00049   0.00000  -0.01000  -0.00994  -1.05833
   D20        0.95730   0.00002   0.00000   0.00202   0.00201   0.95931
   D21        0.94035   0.00104   0.00000   0.02504   0.02503   0.96539
   D22        3.10231   0.00052   0.00000   0.00785   0.00796   3.11028
   D23       -1.17518   0.00104   0.00000   0.01986   0.01991  -1.15528
   D24       -1.08539  -0.00045   0.00000   0.00511   0.00501  -1.08038
   D25        1.07657  -0.00097   0.00000  -0.01208  -0.01206   1.06451
   D26        3.08226  -0.00045   0.00000  -0.00006  -0.00012   3.08214
   D27        1.05921  -0.00055   0.00000  -0.02274  -0.02275   1.03646
   D28       -3.07952  -0.00096   0.00000  -0.03313  -0.03310  -3.11262
   D29       -1.08634  -0.00005   0.00000  -0.01501  -0.01501  -1.10134
   D30       -1.10224   0.00071   0.00000   0.00136   0.00136  -1.10088
   D31        1.04222   0.00031   0.00000  -0.00903  -0.00899   1.03323
   D32        3.03540   0.00122   0.00000   0.00909   0.00910   3.04450
   D33       -3.10133  -0.00054   0.00000  -0.01872  -0.01876  -3.12009
   D34       -0.95687  -0.00094   0.00000  -0.02911  -0.02910  -0.98597
   D35        1.03632  -0.00003   0.00000  -0.01099  -0.01102   1.02530
   D36        1.05746  -0.00061   0.00000  -0.02455  -0.02456   1.03291
   D37       -3.10472  -0.00047   0.00000  -0.02025  -0.02026  -3.12498
   D38       -1.10519   0.00037   0.00000  -0.00617  -0.00617  -1.11136
   D39       -1.08644   0.00026   0.00000  -0.00988  -0.00987  -1.09631
   D40        1.03456   0.00041   0.00000  -0.00558  -0.00557   1.02899
   D41        3.03409   0.00124   0.00000   0.00850   0.00852   3.04261
   D42       -3.07919  -0.00106   0.00000  -0.03245  -0.03246  -3.11165
   D43       -0.95819  -0.00092   0.00000  -0.02815  -0.02817  -0.98636
   D44        1.04134  -0.00008   0.00000  -0.01408  -0.01408   1.02727
   D45        3.07015   0.00028   0.00000   0.00776   0.00773   3.07788
   D46        0.93678   0.00004   0.00000   0.00611   0.00608   0.94286
   D47       -1.08981  -0.00005   0.00000   0.00448   0.00446  -1.08535
   D48        0.95508   0.00031   0.00000   0.00385   0.00384   0.95892
   D49       -1.17829   0.00006   0.00000   0.00220   0.00219  -1.17610
   D50        3.07831  -0.00003   0.00000   0.00057   0.00056   3.07887
   D51       -1.04930   0.00001   0.00000  -0.00430  -0.00427  -1.05356
   D52        3.10052  -0.00024   0.00000  -0.00595  -0.00592   3.09460
   D53        1.07393  -0.00033   0.00000  -0.00757  -0.00754   1.06639
   D54        3.07781   0.00056   0.00000   0.01234   0.01233   3.09014
   D55       -1.05325  -0.00001   0.00000  -0.00316  -0.00314  -1.05639
   D56        0.95961   0.00002   0.00000   0.00126   0.00126   0.96088
   D57       -1.07835   0.00026   0.00000   0.00965   0.00964  -1.06871
   D58        1.07378  -0.00031   0.00000  -0.00585  -0.00584   1.06795
   D59        3.08664  -0.00028   0.00000  -0.00143  -0.00143   3.08521
   D60        0.94800   0.00033   0.00000   0.01106   0.01105   0.95905
   D61        3.10013  -0.00024   0.00000  -0.00444  -0.00443   3.09571
   D62       -1.17019  -0.00021   0.00000  -0.00002  -0.00002  -1.17021
   D63        1.15188  -0.00062   0.00000  -0.02932  -0.02930   1.12258
   D64       -3.01156  -0.00025   0.00000  -0.01948  -0.01947  -3.03103
   D65       -1.00187  -0.00008   0.00000  -0.01339  -0.01342  -1.01528
   D66       -1.00291   0.00014   0.00000  -0.01100  -0.01098  -1.01389
   D67        1.11683   0.00052   0.00000  -0.00115  -0.00115   1.11568
   D68        3.12653   0.00069   0.00000   0.00493   0.00490   3.13143
   D69       -3.00861  -0.00069   0.00000  -0.02437  -0.02435  -3.03296
   D70       -0.88887  -0.00031   0.00000  -0.01453  -0.01452  -0.90339
   D71        1.12083  -0.00015   0.00000  -0.00845  -0.00847   1.11236
   D72       -1.12370   0.00071   0.00000   0.02024   0.02023  -1.10346
   D73        0.98345   0.00013   0.00000   0.01022   0.01023   0.99368
   D74        3.07253   0.00024   0.00000   0.01221   0.01220   3.08473
   D75        3.03866   0.00064   0.00000   0.01392   0.01392   3.05258
   D76       -1.13737   0.00006   0.00000   0.00390   0.00391  -1.13346
   D77        0.95171   0.00017   0.00000   0.00588   0.00588   0.95758
   D78        1.03161  -0.00019   0.00000   0.00049   0.00049   1.03211
   D79        3.13876  -0.00077   0.00000  -0.00953  -0.00951   3.12925
   D80       -1.05535  -0.00065   0.00000  -0.00754  -0.00754  -1.06289
         Item               Value     Threshold  Converged?
 Maximum Force            0.016867     0.000450     NO 
 RMS     Force            0.002756     0.000300     NO 
 Maximum Displacement     0.389790     0.001800     NO 
 RMS     Displacement     0.077051     0.001200     NO 
 Predicted change in Energy=-2.199530D-03
 GradGradGradGradGradGradGradGradGradGradGradGradGradGradGradGradGradGrad

                          Input orientation:                          
 ---------------------------------------------------------------------
 Center     Atomic      Atomic             Coordinates (Angstroms)
 Number     Number       Type             X           Y           Z
 ---------------------------------------------------------------------
      1          8           0        5.673263   -0.194498   -1.091018
      2          6           0        5.309151   -0.676458    0.120164
      3          6           0        4.519383   -1.959855    0.010764
      4          6           0        3.179036   -1.764629   -0.710065
      5          6           0        2.380205   -3.068405   -0.792622
      6          6           0        0.995127   -2.898024   -1.430587
      7          6           0        1.005150   -2.353424   -2.866186
      8          6           0        1.783292   -3.224576   -3.857264
      9          6           0        1.698771   -2.701095   -5.294866
     10          6           0        2.525599   -3.508939   -6.304469
     11          6           0        2.049423   -4.954622   -6.481919
     12          8           0        5.535685   -0.069480    1.145179
     13          1           0        6.130360    0.648188   -0.927368
     14          1           0        4.366355   -2.330405    1.027033
     15          1           0        5.125597   -2.692399   -0.535267
     16          1           0        2.590788   -1.007649   -0.177105
     17          1           0        3.365718   -1.370848   -1.714870
     18          1           0        2.961188   -3.810497   -1.354557
     19          1           0        2.254240   -3.481350    0.216653
     20          1           0        0.485911   -3.870320   -1.421004
     21          1           0        0.392546   -2.229701   -0.801553
     22          1           0       -0.033138   -2.258435   -3.209200
     23          1           0        1.420081   -1.337506   -2.877650
     24          1           0        1.397794   -4.250591   -3.808091
     25          1           0        2.838990   -3.275653   -3.561226
     26          1           0        0.647857   -2.691997   -5.614107
     27          1           0        2.034232   -1.655701   -5.312304
     28          1           0        2.496389   -2.999221   -7.275588
     29          1           0        3.577286   -3.508456   -5.989842
     30          1           0        2.146046   -5.529928   -5.555832
     31          1           0        0.996832   -4.984623   -6.784339
     32          1           0        2.633041   -5.469802   -7.251693
 ---------------------------------------------------------------------
                    Distance matrix (angstroms):
                    1          2          3          4          5
     1  O    0.000000
     2  C    1.353449   0.000000
     3  C    2.379464   1.510897   0.000000
     4  C    2.971802   2.531953   1.534352   0.000000
     5  C    4.380938   3.890156   2.539763   1.531267   0.000000
     6  C    5.413808   5.094211   3.921483   2.563824   1.534428
     7  C    5.440906   5.500448   4.558680   3.117902   2.588752
     8  C    5.653792   5.894448   4.903810   3.739573   3.126135
     9  C    6.304915   6.815904   6.054337   4.908009   4.568311
[...]
 Alpha virt. eigenvalues --    4.24372   4.24728   4.26708   4.30096   4.31726
 Alpha virt. eigenvalues --    4.36473   4.38077   4.40041   4.43070   4.45095
 Alpha virt. eigenvalues --    4.47618   4.49736   4.51724   4.52841   4.55161
 Alpha virt. eigenvalues --    4.56755   4.58161   4.60216   4.61385   4.63002
 Alpha virt. eigenvalues --    4.64407   4.65189   4.67334   4.69756   4.73465
 Alpha virt. eigenvalues --    4.74205   4.76175   4.81291   4.82186   5.00762
 Alpha virt. eigenvalues --    5.01823   5.05532   5.08944   5.17210   5.20493
 Alpha virt. eigenvalues --    5.22720   5.38921   5.40229   5.50788   5.59648
 Alpha virt. eigenvalues --    5.73522   5.84988   5.86661   6.15663   6.19155
 Alpha virt. eigenvalues --    6.32494   6.33904   6.44922   6.48088   6.64315
 Alpha virt. eigenvalues --    6.68876   6.74006   6.81168   6.88679   7.07108
 Alpha virt. eigenvalues --    7.08009   7.27733  22.41029  22.45087  22.52301
 Alpha virt. eigenvalues --   22.55894  22.56350  22.58550  22.60169  22.65417
 Alpha virt. eigenvalues --   22.67226  23.27156  43.91306  43.98306
          Condensed to atoms (all electrons):
               1          2          3          4          5          6
     1  O    7.971320   0.357651  -0.129476   0.003372  -0.001042   0.000097
     2  C    0.357651   4.442211   0.280477  -0.014319   0.000646  -0.000366
     3  C   -0.129476   0.280477   5.322074   0.155511  -0.021391   0.009412
     4  C    0.003372  -0.014319   0.155511   5.408483   0.149440  -0.053600
     5  C   -0.001042   0.000646  -0.021391   0.149440   5.337201   0.223682
     6  C    0.000097  -0.000366   0.009412  -0.053600   0.223682   5.197967
     7  C   -0.000186   0.000301  -0.001976   0.041139  -0.086875   0.219692
     8  C    0.000020  -0.000084   0.000227  -0.013882   0.037242  -0.049258
     9  C    0.000001   0.000007  -0.000040   0.000631  -0.002654   0.010721
    10  C   -0.000000  -0.000001  -0.000001   0.000014   0.000236  -0.001198
    11  C   -0.000000  -0.000000   0.000000  -0.000028   0.000090   0.000104
    12  O   -0.093751   0.680065  -0.097695   0.002287  -0.000996   0.000020
    13  H    0.287946  -0.024886   0.018567  -0.000809   0.000183  -0.000015
    14  H    0.004689  -0.038229   0.424318  -0.031440  -0.007733   0.000089
    15  H    0.004150  -0.015177   0.395193  -0.048935  -0.004848  -0.000066
    16  H    0.000004   0.000826  -0.039682   0.413217  -0.045839   0.007567
    17  H    0.006954  -0.003929  -0.037035   0.426196  -0.035661  -0.014542
    18  H    0.000056  -0.000606  -0.001795  -0.067135   0.439304  -0.027783
    19  H   -0.000038   0.000040  -0.004548  -0.037518   0.434061  -0.047903
    20  H    0.000000   0.000019  -0.000585   0.011809  -0.069282   0.445397
    21  H    0.000000  -0.000054  -0.000222  -0.007897  -0.037085   0.446703
    22  H   -0.000001  -0.000005   0.000054  -0.000716   0.011767  -0.049008
    23  H    0.000043   0.000061   0.000407  -0.000400  -0.012716  -0.031139
    24  H   -0.000000   0.000000   0.000010   0.000505  -0.006401   0.009807
    25  H    0.000024  -0.000013   0.000090  -0.002679   0.011153  -0.017453
    26  H    0.000000   0.000000  -0.000000   0.000031  -0.000091  -0.000784
    27  H    0.000000  -0.000001  -0.000003  -0.000097   0.000122   0.000368
    28  H    0.000000  -0.000000   0.000000  -0.000002   0.000006   0.000019
    29  H    0.000000   0.000001  -0.000002   0.000048  -0.000136   0.000054
    30  H    0.000000  -0.000000  -0.000000  -0.000011   0.000096  -0.000051
    31  H   -0.000000   0.000000  -0.000000   0.000001  -0.000011   0.000011
    32  H    0.000000  -0.000000   0.000000   0.000000  -0.000000  -0.000001
               7          8          9         10         11         12
     1  O   -0.000186   0.000020   0.000001  -0.000000  -0.000000  -0.093751
     2  C    0.000301  -0.000084   0.000007  -0.000001  -0.000000   0.680065
     3  C   -0.001976   0.000227  -0.000040  -0.000001   0.000000  -0.097695
     4  C    0.041139  -0.013882   0.000631   0.000014  -0.000028   0.002287
     5  C   -0.086875   0.037242  -0.002654   0.000236   0.000090  -0.000996
     6  C    0.219692  -0.049258   0.010721  -0.001198   0.000104   0.000020
     7  C    5.315856   0.164434  -0.035420   0.009072  -0.000395  -0.000001
     8  C    0.164434   5.426130   0.180000  -0.051270   0.020865  -0.000000
     9  C   -0.035420   0.180000   5.222314   0.260693  -0.062612   0.000000
    10  C    0.009072  -0.051270   0.260693   5.109813   0.255986  -0.000000
    11  C   -0.000395   0.020865  -0.062612   0.255986   5.089976   0.000000
    12  O   -0.000001  -0.000000   0.000000  -0.000000   0.000000   7.821825
    13  H    0.000009  -0.000001  -0.000000   0.000000  -0.000000   0.006760
    14  H   -0.000131   0.000032   0.000001  -0.000000  -0.000000   0.007255
    15  H    0.000185  -0.000041   0.000000  -0.000001  -0.000000   0.002956
    16  H   -0.005008   0.000427   0.000001  -0.000001   0.000000   0.002108
    17  H    0.009525  -0.003600   0.000277  -0.000049   0.000011   0.000218
    18  H   -0.012435   0.000001   0.000366  -0.000051   0.000038   0.000013
    19  H    0.011509  -0.000934   0.000064  -0.000004   0.000001  -0.000056
    20  H   -0.036344  -0.007691  -0.000158   0.000044  -0.000038  -0.000000
    21  H   -0.069771   0.012233  -0.000690   0.000023   0.000002  -0.000002
    22  H    0.433581  -0.038131  -0.005556   0.000178   0.000079   0.000000
    23  H    0.445235  -0.070794  -0.001987  -0.000419  -0.000103  -0.000000
    24  H   -0.047642   0.425256  -0.036632  -0.008314   0.000300  -0.000000
    25  H   -0.033521   0.411736  -0.041368   0.004576  -0.003310  -0.000000
    26  H   -0.003214  -0.073588   0.447669  -0.033260  -0.010307   0.000000
    27  H   -0.004956  -0.040859   0.425414  -0.043313   0.009318  -0.000000
    28  H   -0.000567   0.014098  -0.062376   0.437944  -0.038998   0.000000
    29  H   -0.000350  -0.015313  -0.036308   0.431347  -0.054816   0.000000
    30  H    0.000577   0.009820  -0.016412  -0.040004   0.417580  -0.000000
    31  H   -0.000176  -0.006441   0.007534  -0.048228   0.406394   0.000000
    32  H    0.000045  -0.000792   0.011421  -0.042441   0.414747   0.000000
              13         14         15         16         17         18
     1  O    0.287946   0.004689   0.004150   0.000004   0.006954   0.000056
     2  C   -0.024886  -0.038229  -0.015177   0.000826  -0.003929  -0.000606
     3  C    0.018567   0.424318   0.395193  -0.039682  -0.037035  -0.001795
     4  C   -0.000809  -0.031440  -0.048935   0.413217   0.426196  -0.067135
     5  C    0.000183  -0.007733  -0.004848  -0.045839  -0.035661   0.439304
     6  C   -0.000015   0.000089  -0.000066   0.007567  -0.014542  -0.027783
     7  C    0.000009  -0.000131   0.000185  -0.005008   0.009525  -0.012435
     8  C   -0.000001   0.000032  -0.000041   0.000427  -0.003600   0.000001
     9  C   -0.000000   0.000001   0.000000   0.000001   0.000277   0.000366
    10  C    0.000000  -0.000000  -0.000001  -0.000001  -0.000049  -0.000051
    11  C   -0.000000  -0.000000  -0.000000   0.000000   0.000011   0.000038
    12  O    0.006760   0.007255   0.002956   0.002108   0.000218   0.000013
    13  H    0.378068  -0.000693  -0.000796  -0.000255  -0.000425  -0.000005
    14  H   -0.000693   0.494020  -0.017747  -0.001722   0.004463   0.000679
    15  H   -0.000796  -0.017747   0.516338   0.006171  -0.001848   0.001426
    16  H   -0.000255  -0.001722   0.006171   0.518797  -0.021124   0.005657
    17  H   -0.000425   0.004463  -0.001848  -0.021124   0.504384  -0.001688
    18  H   -0.000005   0.000679   0.001426   0.005657  -0.001688   0.526423
    19  H    0.000004   0.000676   0.000460  -0.002023   0.004300  -0.021731
    20  H    0.000000  -0.000046  -0.000005   0.000168  -0.000524  -0.001478
    21  H    0.000000   0.000077  -0.000024   0.000855   0.001136   0.005400
    22  H   -0.000000   0.000003  -0.000003  -0.000291   0.000698  -0.000864
    23  H   -0.000002  -0.000038   0.000005   0.001545  -0.008962   0.002085
    24  H    0.000000  -0.000003   0.000001   0.000020  -0.000040   0.002010
    25  H    0.000001   0.000008   0.000133  -0.000109   0.001439  -0.010411
    26  H   -0.000000  -0.000000   0.000000  -0.000002   0.000007  -0.000048
    27  H    0.000000   0.000000  -0.000002   0.000004   0.000188   0.000020
    28  H   -0.000000   0.000000  -0.000000  -0.000000   0.000001  -0.000000
    29  H   -0.000000  -0.000000   0.000002  -0.000000  -0.000007   0.000020
    30  H   -0.000000   0.000000  -0.000000   0.000000   0.000004  -0.000003
    31  H    0.000000  -0.000000   0.000000  -0.000000  -0.000000  -0.000000
    32  H   -0.000000   0.000000  -0.000000  -0.000000  -0.000000  -0.000000
              19         20         21         22         23         24
     1  O   -0.000038   0.000000   0.000000  -0.000001   0.000043  -0.000000
     2  C    0.000040   0.000019  -0.000054  -0.000005   0.000061   0.000000
     3  C   -0.004548  -0.000585  -0.000222   0.000054   0.000407   0.000010
     4  C   -0.037518   0.011809  -0.007897  -0.000716  -0.000400   0.000505
     5  C    0.434061  -0.069282  -0.037085   0.011767  -0.012716  -0.006401
     6  C   -0.047903   0.445397   0.446703  -0.049008  -0.031139   0.009807
     7  C    0.011509  -0.036344  -0.069771   0.433581   0.445235  -0.047642
     8  C   -0.000934  -0.007691   0.012233  -0.038131  -0.070794   0.425256
     9  C    0.000064  -0.000158  -0.000690  -0.005556  -0.001987  -0.036632
    10  C   -0.000004   0.000044   0.000023   0.000178  -0.000419  -0.008314
    11  C    0.000001  -0.000038   0.000002   0.000079  -0.000103   0.000300
    12  O   -0.000056  -0.000000  -0.000002   0.000000  -0.000000  -0.000000
    13  H    0.000004   0.000000   0.000000  -0.000000  -0.000002   0.000000
    14  H    0.000676  -0.000046   0.000077   0.000003  -0.000038  -0.000003
    15  H    0.000460  -0.000005  -0.000024  -0.000003   0.000005   0.000001
    16  H   -0.002023   0.000168   0.000855  -0.000291   0.001545   0.000020
    17  H    0.004300  -0.000524   0.001136   0.000698  -0.008962  -0.000040
    18  H   -0.021731  -0.001478   0.005400  -0.000864   0.002085   0.002010
    19  H    0.520929  -0.006516  -0.003687  -0.000010  -0.000844  -0.000270
    20  H   -0.006516   0.527052  -0.017431  -0.003727   0.005416   0.000988
    21  H   -0.003687  -0.017431   0.526204  -0.006463  -0.001350   0.000180
    22  H   -0.000010  -0.003727  -0.006463   0.525319  -0.021402  -0.002553
    23  H   -0.000844   0.005416  -0.001350  -0.021402   0.526854   0.006631
    24  H   -0.000270   0.000988   0.000180  -0.002553   0.006631   0.536536
    25  H    0.000744   0.001323  -0.000626   0.005265  -0.003021  -0.031005
    26  H    0.000002   0.000139  -0.000034   0.001644   0.000599  -0.002741
    27  H   -0.000002  -0.000019   0.000001   0.000663   0.001889   0.005637
    28  H    0.000000  -0.000001  -0.000000   0.000013  -0.000043  -0.000515
    29  H   -0.000000   0.000003  -0.000000  -0.000042   0.000172   0.001632
    30  H    0.000001   0.000009   0.000001   0.000030  -0.000040  -0.007494
    31  H   -0.000000   0.000005  -0.000001  -0.000018   0.000017   0.000937
    32  H   -0.000000   0.000000   0.000000  -0.000001   0.000002   0.000335
              25         26         27         28         29         30
     1  O    0.000024   0.000000   0.000000   0.000000   0.000000   0.000000
     2  C   -0.000013   0.000000  -0.000001  -0.000000   0.000001  -0.000000
     3  C    0.000090  -0.000000  -0.000003   0.000000  -0.000002  -0.000000
     4  C   -0.002679   0.000031  -0.000097  -0.000002   0.000048  -0.000011
     5  C    0.011153  -0.000091   0.000122   0.000006  -0.000136   0.000096
     6  C   -0.017453  -0.000784   0.000368   0.000019   0.000054  -0.000051
     7  C   -0.033521  -0.003214  -0.004956  -0.000567  -0.000350   0.000577
     8  C    0.411736  -0.073588  -0.040859   0.014098  -0.015313   0.009820
     9  C   -0.041368   0.447669   0.425414  -0.062376  -0.036308  -0.016412
    10  C    0.004576  -0.033260  -0.043313   0.437944   0.431347  -0.040004
    11  C   -0.003310  -0.010307   0.009318  -0.038998  -0.054816   0.417580
    12  O   -0.000000   0.000000  -0.000000   0.000000   0.000000  -0.000000
    13  H    0.000001  -0.000000   0.000000  -0.000000  -0.000000  -0.000000
    14  H    0.000008  -0.000000   0.000000   0.000000  -0.000000   0.000000
    15  H    0.000133   0.000000  -0.000002  -0.000000   0.000002  -0.000000
    16  H   -0.000109  -0.000002   0.000004  -0.000000  -0.000000   0.000000
    17  H    0.001439   0.000007   0.000188   0.000001  -0.000007   0.000004
    18  H   -0.010411  -0.000048   0.000020  -0.000000   0.000020  -0.000003
    19  H    0.000744   0.000002  -0.000002   0.000000  -0.000000   0.000001
    20  H    0.001323   0.000139  -0.000019  -0.000001   0.000003   0.000009
    21  H   -0.000626  -0.000034   0.000001  -0.000000  -0.000000   0.000001
    22  H    0.005265   0.001644   0.000663   0.000013  -0.000042   0.000030
    23  H   -0.003021   0.000599   0.001889  -0.000043   0.000172  -0.000040
    24  H   -0.031005  -0.002741   0.005637  -0.000515   0.001632  -0.007494
    25  H    0.556234   0.007294  -0.003615   0.000140   0.001875   0.000373
    26  H    0.007294   0.535711  -0.022878  -0.002457   0.006386   0.001467
    27  H   -0.003615  -0.022878   0.543882  -0.007188  -0.002245  -0.000632
    28  H    0.000140  -0.002457  -0.007188   0.550787  -0.024078   0.006296
    29  H    0.001875   0.006386  -0.002245  -0.024078   0.555775  -0.003159
    30  H    0.000373   0.001467  -0.000632   0.006296  -0.003159   0.545217
    31  H    0.000226   0.002049   0.000170  -0.003356   0.007549  -0.030639
    32  H   -0.000059  -0.000241  -0.000293  -0.005725  -0.003709  -0.024493
              31         32
     1  O   -0.000000   0.000000
     2  C    0.000000  -0.000000
     3  C   -0.000000   0.000000
     4  C    0.000001   0.000000
     5  C   -0.000011  -0.000000
     6  C    0.000011  -0.000001
     7  C   -0.000176   0.000045
     8  C   -0.006441  -0.000792
     9  C    0.007534   0.011421
    10  C   -0.048228  -0.042441
    11  C    0.406394   0.414747
    12  O    0.000000   0.000000
    13  H    0.000000  -0.000000
    14  H   -0.000000   0.000000
    15  H    0.000000  -0.000000
    16  H   -0.000000  -0.000000
    17  H   -0.000000  -0.000000
    18  H   -0.000000  -0.000000
    19  H   -0.000000  -0.000000
    20  H    0.000005   0.000000
    21  H   -0.000001   0.000000
    22  H   -0.000018  -0.000001
    23  H    0.000017   0.000002
    24  H    0.000937   0.000335
    25  H    0.000226  -0.000059
    26  H    0.002049  -0.000241
    27  H    0.000170  -0.000293
    28  H   -0.003356  -0.005725
    29  H    0.007549  -0.003709
    30  H   -0.030639  -0.024493
    31  H    0.548845  -0.022907
    32  H   -0.022907   0.530815
 Mulliken charges:
               1
     1  O   -0.411834
     2  C    0.335367
     3  C   -0.271892
     4  C   -0.333218
     5  C   -0.312468
     6  C   -0.278542
     7  C   -0.312191
     8  C   -0.329841
     9  C   -0.264901
    10  C   -0.241375
    11  C   -0.444884
    12  O   -0.331005
    13  H    0.336347
    14  H    0.161473
    15  H    0.162472
    16  H    0.158687
    17  H    0.169634
    18  H    0.162536
    19  H    0.153292
    20  H    0.151471
    21  H    0.152526
    22  H    0.149496
    23  H    0.162297
    24  H    0.152825
    25  H    0.144556
    26  H    0.146647
    27  H    0.138425
    28  H    0.136000
    29  H    0.135301
    30  H    0.141464
    31  H    0.138039
    32  H    0.143298
 Sum of Mulliken charges =  -0.00000
 Mulliken charges with hydrogens summed into heavy atoms:
               1
     1  O   -0.075487
     2  C    0.335367
     3  C    0.052053
     4  C   -0.004897
     5  C    0.003360
     6  C    0.025454
     7  C   -0.000398
     8  C   -0.032461
     9  C    0.020171
    10  C    0.029927
    11  C   -0.022083
    12  O   -0.331005
 Electronic spatial extent (au):  <R**2>=           4172.3898
 Charge=             -0.0000 electrons
 Dipole moment (field-independent basis, Debye):
    X=             -2.1015    Y=             -0.1093    Z=             -0.0074  Tot=              2.1043
 Quadrupole moment (field-independent basis, Debye-Ang):
   XX=            -94.3315   YY=            -73.6992   ZZ=            -76.0083
   XY=             -2.1448   XZ=             -0.4839   YZ=              1.7858
 Traceless Quadrupole moment (field-independent basis, Debye-Ang):
   XX=            -12.9852   YY=              7.6471   ZZ=              5.3380
   XY=             -2.1448   XZ=             -0.4839   YZ=              1.7858
 Octapole moment (field-independent basis, Debye-Ang**2):
  XXX=            -82.3886  YYY=            -19.9960  ZZZ=             -2.4834  XYY=             27.3395
  XXY=            -12.9339  XXZ=             -9.0128  XZZ=             19.2650  YZZ=             -7.0780
  YYZ=             -6.6447  XYZ=              8.5807
 Hexadecapole moment (field-independent basis, Debye-Ang**3):
 XXXX=          -5019.1998 YYYY=           -866.5920 ZZZZ=           -348.5058 XXXY=            -57.2584
 XXXZ=            -10.1640 YYYX=            -86.2253 YYYZ=             23.8499 ZZZX=             -9.5318
 ZZZY=              8.3318 XXYY=           -783.0968 XXZZ=           -757.8412 YYZZ=           -194.9882
 XXYZ=             34.2527 YYXZ=            -28.3562 ZZXY=            -23.8645
 N-N= 7.057610917567D+02 E-N=-2.676260596098D+03  KE= 5.405757928070D+02
 Unable to Open any file for archive entry.
 1\1\GINC-NOTCH075\SP\RM062X\def2TZVP\C10H20O2\U6032257\03-Feb-2022\0\\
 # M062X/def2tzvp int=(grid=ultrafine) nmr=giao guess=read geom=check\\
 Ac1.xyz\\0,1\O,0,5.6586363978,-0.2526077864,-1.1576072521\C,0,5.327967
 6664,-0.703853899,0.0814581362\C,0,4.5068175113,-1.9682830091,0.012775
 0069\C,0,3.1668745281,-1.7687482005,-0.7153941828\C,0,2.3489023864,-3.
 061346864,-0.7768454092\C,0,0.9649020219,-2.8910129856,-1.4205341233\C
 ,0,0.974108928,-2.3529599581,-2.8590422056\C,0,1.7708736815,-3.2093682
 467,-3.8480230055\C,0,1.6672676577,-2.7009968198,-5.2896187261\C,0,2.5
 300573844,-3.4729459639,-6.2971301626\C,0,2.1307968761,-4.9420279896,-
 6.4643178796\O,0,5.6636474088,-0.1234548299,1.0897382219\H,0,6.1670007
 891,0.5634282832,-1.0152504586\H,0,4.3490463779,-2.3087623912,1.038585
 2412\H,0,5.0945599006,-2.7300813454,-0.5138555979\H,0,2.5874467235,-0.
 9906832744,-0.201714633\H,0,3.367025523,-1.3957552284,-1.7243404832\H,
 0,2.9224984977,-3.822828215,-1.3207818575\H,0,2.2179720277,-3.45239767
 35,0.240369282\H,0,0.452463142,-3.8617787972,-1.4070882594\H,0,0.36292
 47415,-2.2191336929,-0.7947791423\H,0,-0.0638576393,-2.2780578188,-3.2
 085910765\H,0,1.3667580775,-1.3279143377,-2.8726375892\H,0,1.417107940
 3,-4.2467867677,-3.7881906852\H,0,2.8293230466,-3.2309843835,-3.555847
 8019\H,0,0.6164449169,-2.7359763144,-5.6102770499\H,0,1.9564090369,-1.
 6417625883,-5.3110762039\H,0,2.4691148731,-2.9719897059,-7.2712320033\
 H,0,3.5827913486,-3.4128610623,-5.989391643\H,0,2.263968558,-5.5071631
 276,-5.5366395264\H,0,1.0783879931,-5.0311614285,-6.7575142291\H,0,2.7
 33961677,-5.4306435779,-7.2360047011\\Version=ES64L-G16RevC.01\State=1
 -A\HF=-543.5417994\RMSD=2.651e-09\Dipole=-0.3362273,-0.3282331,-0.6816
 434\Quadrupole=2.4243949,2.8789145,-5.3033094,-0.6315294,-5.0664455,-5
 .278317\PG=C01 [X(C10H20O2)]\\@
 The archive entry for this job was punched.


 REFRAIN FROM ILLUSIONS, INSIST ON WORK AND NOT WORDS,
 PATIENTLY SEEK DIVINE AND SCIENTIFIC TRUTH.
 LAST WORDS OF MARIA MENDELEEVA TO HER SON DMITRI, C. 1850
 Job cpu time:       0 days  0 hours 36 minutes 24.3 seconds.
 Elapsed time:       0 days  0 hours  1 minutes 18.8 seconds.
 File lengths (MBytes):  RWF=    140 Int=      0 D2E=      0 Chk=     24 Scr=      1
 Normal termination of Gaussian 16 at Thu Feb  3 09:04:23 2022.
