 Entering Gaussian System, Link 0=/uufs/chpc.utah.edu/sys/installdir/gaussian16/C01/AVX2/g16/g16
 Input=Ac1_clust-5.com
 Output=Ac1_clust-5.log
 Initial command:
 /uufs/chpc.utah.edu/sys/installdir/gaussian16/C01/AVX2/g16/l1.exe "/scratch/general/lustre/u6032257/3867913/notchpeak.peaks/Gau-130898.inp" -scrdir="/scratch/general/lustre/u6032257/3867913/notchpeak.peaks/"
 Entering Link 1 = /uufs/chpc.utah.edu/sys/installdir/gaussian16/C01/AVX2/g16/l1.exe PID=    130900.
  
 Copyright (c) 1988-2019, Gaussian, Inc.  All Rights Reserved.
  
 This is part of the Gaussian(R) 16 program.  It is based on
 the Gaussian(R) 09 system (copyright 2009, Gaussian, Inc.),
 the Gaussian(R) 03 system (copyright 2003, Gaussian, Inc.),
 the Gaussian(R) 98 system (copyright 1998, Gaussian, Inc.),
 the Gaussian(R) 94 system (copyright 1995, Gaussian, Inc.),
 the Gaussian 92(TM) system (copyright 1992, Gaussian, Inc.),
 the Gaussian 90(TM) system (copyright 1990, Gaussian, Inc.),
 the Gaussian 88(TM) system (copyright 1988, Gaussian, Inc.),
 the Gaussian 86(TM) system (copyright 1986, Carnegie Mellon
 University), and the Gaussian 82(TM) system (copyright 1983,
 Carnegie Mellon University). Gaussian is a federally registered
 trademark of Gaussian, Inc.
  
 This software contains proprietary and confidential information,
 including trade secrets, belonging to Gaussian, Inc.
  
 This software is provided under written license and may be
 used, copied, transmitted, or stored only in accord with that
 written license.
  
 The following legend is applicable only to US Government
 contracts under FAR:
  
                    RESTRICTED RIGHTS LEGEND
  
 Use, reproduction and disclosure by the US Government is
 subject to restrictions as set forth in subparagraphs (a)
 and (c) of the Commercial Computer Software - Restricted
 Rights clause in FAR 52.227-19.
  
 Gaussian, Inc.
 340 Quinnipiac St., Bldg. 40, Wallingford CT 06492
  
  
 ---------------------------------------------------------------
 Warning -- This program may not be used in any manner that
 competes with the business of Gaussian, Inc. or will provide
 assistance to any competitor of Gaussian, Inc.  The licensee
 of this program is prohibited from giving any competitor of
 Gaussian, Inc. access to this program.  By using this program,
 the user acknowledges that Gaussian, Inc. is engaged in the
 business of creating and licensing software in the field of
 computational chemistry and represents and warrants to the
 licensee that it is not a competitor of Gaussian, Inc. and that
 it will not use this program in any manner prohibited above.
 ---------------------------------------------------------------
  

 Cite this work as:
 Gaussian 16, Revision C.01,
 M. J. Frisch, G. W. Trucks, H. B. Schlegel, G. E. Scuseria, 
 M. A. Robb, J. R. Cheeseman, G. Scalmani, V. Barone, 
 G. A. Petersson, H. Nakatsuji, X. Li, M. Caricato, A. V. Marenich, 
 J. Bloino, B. G. Janesko, R. Gomperts, B. Mennucci, H. P. Hratchian, 
 J. V. Ortiz, A. F. Izmaylov, J. L. Sonnenberg, D. Williams-Young, 
 F. Ding, F. Lipparini, F. Egidi, J. Goings, B. Peng, A. Petrone, 
 T. Henderson, D. Ranasinghe, V. G. Zakrzewski, J. Gao, N. Rega, 
 G. Zheng, W. Liang, M. Hada, M. Ehara, K. Toyota, R. Fukuda, 
 J. Hasegawa, M. Ishida, T. Nakajima, Y. Honda, O. Kitao, H. Nakai, 
 T. Vreven, K. Throssell, J. A. Montgomery, Jr., J. E. Peralta, 
 F. Ogliaro, M. J. Bearpark, J. J. Heyd, E. N. Brothers, K. N. Kudin, 
 V. N. Staroverov, T. A. Keith, R. Kobayashi, J. Normand, 
 K. Raghavachari, A. P. Rendell, J. C. Burant, S. S. Iyengar, 
 J. Tomasi, M. Cossi, J. M. Millam, M. Klene, C. Adamo, R. Cammi, 
 J. W. Ochterski, R. L. Martin, K. Morokuma, O. Farkas, 
 J. B. Foresman, and D. J. Fox, Gaussian, Inc., Wallingford CT, 2019.
 
 ******************************************
 Gaussian 16:  ES64L-G16RevC.01  3-Jul-2019
                 5-Feb-2022 
 ******************************************
 %NProcShared=52
 Will use up to   52 processors via shared memory.
 %mem=16GB
 %chk=Ac1_clust-5.chk
 ----------------------------------------------------------------------
 # B3LYP/6-31G(d,p) empiricaldispersion=GD3BJ int=(grid=ultrafine) opt 
 freq=noraman
 ----------------------------------------------------------------------
 1/18=20,19=15,26=4,38=1/1,3;
 2/9=110,12=2,17=6,18=5,40=1/2;
 3/5=1,6=6,7=101,11=2,25=1,30=1,71=1,74=-5,75=-5,124=41/1,2,3;
 4//1;
 5/5=2,38=5/2;
 6/7=2,8=2,9=2,10=2,28=1/1;
 7//1,2,3,16;
 1/18=20,19=15,26=4/3(2);
 2/9=110/2;
 99//99;
 2/9=110/2;
 3/5=1,6=6,7=101,11=2,25=1,30=1,71=1,74=-5,75=-5,124=41/1,2,3;
 4/5=5,16=3,69=1/1;
 5/5=2,38=5/2;
 7//1,2,3,16;
 1/18=20,19=15,26=4/3(-5);
 2/9=110/2;
 6/7=2,8=2,9=2,10=2,19=2,28=1/1;
 99/9=1/99;
 -------
 Ac1.xyz
 -------
 Symbolic Z-matrix:
 Charge =  0 Multiplicity = 1
 O                     5.4939    0.7649   -0.0175 
 C                     5.2401   -0.4748   -0.487 
 C                     3.7792   -0.8704   -0.2799 
 C                     3.4226   -2.2837   -0.7975 
 C                     1.9399   -2.6364   -0.5647 
 C                     1.531    -4.0305   -1.0903 
 C                     0.9392   -4.0555   -2.5163 
 C                     1.8982   -3.593    -3.6284 
 C                     1.3184   -3.799    -5.0409 
 C                     2.2838   -3.4144   -6.1788 
 C                     2.62     -1.9156   -6.2382 
 O                     6.092    -1.1787   -1.0113 
 H                     6.4244    0.8984   -0.2009 
 H                     3.1671   -0.1234   -0.7845 
 H                     3.5712   -0.7988    0.7874 
 H                     3.6666   -2.3561   -1.8579 
 H                     4.0489   -3.0273   -0.2989 
 H                     1.7478   -2.6008    0.5092 
 H                     1.2945   -1.871    -0.9996 
 H                     2.3713   -4.7239   -1.0221 
 H                     0.7751   -4.439    -0.4171 
 H                     0.6146   -5.0754   -2.7306 
 H                     0.0332   -3.4476   -2.5438 
 H                     2.845    -4.1291   -3.5417 
 H                     2.1238   -2.5362   -3.487 
 H                     1.042    -4.8478   -5.1625 
 H                     0.3902   -3.234    -5.144 
 H                     3.2057   -3.9919   -6.0904 
 H                     1.8401   -3.7108   -7.1308 
 H                     1.7175   -1.3087   -6.3187 
 H                     3.1658   -1.5891   -5.3527 
 H                     3.245    -1.6921   -7.1034 
 

 GradGradGradGradGradGradGradGradGradGradGradGradGradGradGradGradGradGrad
 Berny optimization.
 Initialization pass.
                           ----------------------------
                           !    Initial Parameters    !
                           ! (Angstroms and Degrees)  !
 --------------------------                            --------------------------
 ! Name  Definition              Value          Derivative Info.                !
 --------------------------------------------------------------------------------
 ! R1    R(1,2)                  1.3497         estimate D2E/DX2                !
 ! R2    R(1,13)                 0.9578         estimate D2E/DX2                !
 ! R3    R(2,3)                  1.5276         estimate D2E/DX2                !
 ! R4    R(2,12)                 1.2232         estimate D2E/DX2                !
 ! R5    R(3,4)                  1.5468         estimate D2E/DX2                !
 ! R6    R(3,14)                 1.0896         estimate D2E/DX2                !
 ! R7    R(3,15)                 1.0897         estimate D2E/DX2                !
 ! R8    R(4,5)                  1.5417         estimate D2E/DX2                !
 ! R9    R(4,16)                 1.0905         estimate D2E/DX2                !
 ! R10   R(4,17)                 1.0926         estimate D2E/DX2                !
 ! R11   R(5,6)                  1.545          estimate D2E/DX2                !
 ! R12   R(5,18)                 1.0915         estimate D2E/DX2                !
 ! R13   R(5,19)                 1.0916         estimate D2E/DX2                !
 ! R14   R(6,7)                  1.5441         estimate D2E/DX2                !
 ! R15   R(6,20)                 1.0916         estimate D2E/DX2                !
 ! R16   R(6,21)                 1.0915         estimate D2E/DX2                !
 ! R17   R(7,8)                  1.5396         estimate D2E/DX2                !
 ! R18   R(7,22)                 1.0916         estimate D2E/DX2                !
 ! R19   R(7,23)                 1.0914         estimate D2E/DX2                !
 ! R20   R(8,9)                  1.5407         estimate D2E/DX2                !
 ! R21   R(8,24)                 1.0915         estimate D2E/DX2                !
 ! R22   R(8,25)                 1.0898         estimate D2E/DX2                !
 ! R23   R(9,10)                 1.541          estimate D2E/DX2                !
 ! R24   R(9,26)                 1.0914         estimate D2E/DX2                !
 ! R25   R(9,27)                 1.0915         estimate D2E/DX2                !
 ! R26   R(10,11)                1.5372         estimate D2E/DX2                !
 ! R27   R(10,28)                1.0914         estimate D2E/DX2                !
 ! R28   R(10,29)                1.0913         estimate D2E/DX2                !
 ! R29   R(11,30)                1.0906         estimate D2E/DX2                !
 ! R30   R(11,31)                1.0902         estimate D2E/DX2                !
 ! R31   R(11,32)                1.0905         estimate D2E/DX2                !
 ! A1    A(2,1,13)             104.1292         estimate D2E/DX2                !
 ! A2    A(1,2,3)              111.7482         estimate D2E/DX2                !
 ! A3    A(1,2,12)             123.1421         estimate D2E/DX2                !
 ! A4    A(3,2,12)             125.1097         estimate D2E/DX2                !
 ! A5    A(2,3,4)              114.3135         estimate D2E/DX2                !
 ! A6    A(2,3,14)             107.2715         estimate D2E/DX2                !
 ! A7    A(2,3,15)             107.3556         estimate D2E/DX2                !
 ! A8    A(4,3,14)             109.9941         estimate D2E/DX2                !
 ! A9    A(4,3,15)             110.107          estimate D2E/DX2                !
 ! A10   A(14,3,15)            107.5353         estimate D2E/DX2                !
 ! A11   A(3,4,5)              112.3469         estimate D2E/DX2                !
 ! A12   A(3,4,16)             109.5403         estimate D2E/DX2                !
 ! A13   A(3,4,17)             109.6935         estimate D2E/DX2                !
 ! A14   A(5,4,16)             110.2927         estimate D2E/DX2                !
 ! A15   A(5,4,17)             109.0663         estimate D2E/DX2                !
 ! A16   A(16,4,17)            105.682          estimate D2E/DX2                !
 ! A17   A(4,5,6)              114.1786         estimate D2E/DX2                !
 ! A18   A(4,5,18)             108.0803         estimate D2E/DX2                !
 ! A19   A(4,5,19)             110.3678         estimate D2E/DX2                !
 ! A20   A(6,5,18)             108.5152         estimate D2E/DX2                !
 ! A21   A(6,5,19)             109.9189         estimate D2E/DX2                !
 ! A22   A(18,5,19)            105.3704         estimate D2E/DX2                !
 ! A23   A(5,6,7)              115.4813         estimate D2E/DX2                !
 ! A24   A(5,6,20)             110.377          estimate D2E/DX2                !
 ! A25   A(5,6,21)             108.1292         estimate D2E/DX2                !
 ! A26   A(7,6,20)             110.0259         estimate D2E/DX2                !
 ! A27   A(7,6,21)             107.3431         estimate D2E/DX2                !
 ! A28   A(20,6,21)            104.8821         estimate D2E/DX2                !
 ! A29   A(6,7,8)              115.0546         estimate D2E/DX2                !
 ! A30   A(6,7,22)             108.0837         estimate D2E/DX2                !
 ! A31   A(6,7,23)             109.415          estimate D2E/DX2                !
 ! A32   A(8,7,22)             108.9113         estimate D2E/DX2                !
 ! A33   A(8,7,23)             109.3634         estimate D2E/DX2                !
 ! A34   A(22,7,23)            105.5825         estimate D2E/DX2                !
 ! A35   A(7,8,9)              112.8086         estimate D2E/DX2                !
 ! A36   A(7,8,24)             109.5966         estimate D2E/DX2                !
 ! A37   A(7,8,25)             109.0579         estimate D2E/DX2                !
 ! A38   A(9,8,24)             109.4867         estimate D2E/DX2                !
 ! A39   A(9,8,25)             109.0567         estimate D2E/DX2                !
 ! A40   A(24,8,25)            106.6431         estimate D2E/DX2                !
 ! A41   A(8,9,10)             114.0694         estimate D2E/DX2                !
 ! A42   A(8,9,26)             109.0222         estimate D2E/DX2                !
 ! A43   A(8,9,27)             109.7187         estimate D2E/DX2                !
 ! A44   A(10,9,26)            108.4343         estimate D2E/DX2                !
 ! A45   A(10,9,27)            109.4996         estimate D2E/DX2                !
 ! A46   A(26,9,27)            105.7558         estimate D2E/DX2                !
 ! A47   A(9,10,11)            114.1352         estimate D2E/DX2                !
 ! A48   A(9,10,28)            109.7123         estimate D2E/DX2                !
 ! A49   A(9,10,29)            108.7625         estimate D2E/DX2                !
 ! A50   A(11,10,28)           109.5299         estimate D2E/DX2                !
 ! A51   A(11,10,29)           108.6642         estimate D2E/DX2                !
 ! A52   A(28,10,29)           105.6857         estimate D2E/DX2                !
 ! A53   A(10,11,30)           111.3745         estimate D2E/DX2                !
 ! A54   A(10,11,31)           111.722          estimate D2E/DX2                !
 ! A55   A(10,11,32)           110.8454         estimate D2E/DX2                !
 ! A56   A(30,11,31)           107.9141         estimate D2E/DX2                !
 ! A57   A(30,11,32)           107.5588         estimate D2E/DX2                !
 ! A58   A(31,11,32)           107.224          estimate D2E/DX2                !
 ! D1    D(13,1,2,3)          -179.9808         estimate D2E/DX2                !
 ! D2    D(13,1,2,12)            0.0145         estimate D2E/DX2                !
 ! D3    D(1,2,3,4)           -179.991          estimate D2E/DX2                !
 ! D4    D(1,2,3,14)            57.7741         estimate D2E/DX2                !
 ! D5    D(1,2,3,15)           -57.5502         estimate D2E/DX2                !
 ! D6    D(12,2,3,4)             0.0139         estimate D2E/DX2                !
 ! D7    D(12,2,3,14)         -122.221          estimate D2E/DX2                !
 ! D8    D(12,2,3,15)          122.4547         estimate D2E/DX2                !
 ! D9    D(2,3,4,5)            179.9443         estimate D2E/DX2                !
 ! D10   D(2,3,4,16)           -57.1135         estimate D2E/DX2                !
 ! D11   D(2,3,4,17)            58.4599         estimate D2E/DX2                !
 ! D12   D(14,3,4,5)           -59.3199         estimate D2E/DX2                !
 ! D13   D(14,3,4,16)           63.6223         estimate D2E/DX2                !
 ! D14   D(14,3,4,17)          179.1957         estimate D2E/DX2                !
 ! D15   D(15,3,4,5)            59.0153         estimate D2E/DX2                !
 ! D16   D(15,3,4,16)         -178.0425         estimate D2E/DX2                !
 ! D17   D(15,3,4,17)          -62.4692         estimate D2E/DX2                !
 ! D18   D(3,4,5,6)            178.9154         estimate D2E/DX2                !
 ! D19   D(3,4,5,18)           -60.2375         estimate D2E/DX2                !
 ! D20   D(3,4,5,19)            54.5103         estimate D2E/DX2                !
 ! D21   D(16,4,5,6)            56.3974         estimate D2E/DX2                !
 ! D22   D(16,4,5,18)          177.2444         estimate D2E/DX2                !
 ! D23   D(16,4,5,19)          -68.0078         estimate D2E/DX2                !
 ! D24   D(17,4,5,6)           -59.2424         estimate D2E/DX2                !
 ! D25   D(17,4,5,18)           61.6047         estimate D2E/DX2                !
 ! D26   D(17,4,5,19)          176.3525         estimate D2E/DX2                !
 ! D27   D(4,5,6,7)            -93.9429         estimate D2E/DX2                !
 ! D28   D(4,5,6,20)            31.6264         estimate D2E/DX2                !
 ! D29   D(4,5,6,21)           145.8251         estimate D2E/DX2                !
 ! D30   D(18,5,6,7)           145.452          estimate D2E/DX2                !
 ! D31   D(18,5,6,20)          -88.9787         estimate D2E/DX2                !
 ! D32   D(18,5,6,21)           25.22           estimate D2E/DX2                !
 ! D33   D(19,5,6,7)            30.7016         estimate D2E/DX2                !
 ! D34   D(19,5,6,20)          156.2709         estimate D2E/DX2                !
 ! D35   D(19,5,6,21)          -89.5304         estimate D2E/DX2                !
 ! D36   D(5,6,7,8)             62.9127         estimate D2E/DX2                !
 ! D37   D(5,6,7,22)          -175.1491         estimate D2E/DX2                !
 ! D38   D(5,6,7,23)           -60.6481         estimate D2E/DX2                !
 ! D39   D(20,6,7,8)           -62.8366         estimate D2E/DX2                !
 ! D40   D(20,6,7,22)           59.1015         estimate D2E/DX2                !
 ! D41   D(20,6,7,23)          173.6025         estimate D2E/DX2                !
 ! D42   D(21,6,7,8)          -176.4276         estimate D2E/DX2                !
 ! D43   D(21,6,7,22)          -54.4894         estimate D2E/DX2                !
 ! D44   D(21,6,7,23)           60.0116         estimate D2E/DX2                !
 ! D45   D(6,7,8,9)            173.0232         estimate D2E/DX2                !
 ! D46   D(6,7,8,24)            50.757          estimate D2E/DX2                !
 ! D47   D(6,7,8,25)           -65.6432         estimate D2E/DX2                !
 ! D48   D(22,7,8,9)            51.5331         estimate D2E/DX2                !
 ! D49   D(22,7,8,24)          -70.7331         estimate D2E/DX2                !
 ! D50   D(22,7,8,25)          172.8667         estimate D2E/DX2                !
 ! D51   D(23,7,8,9)           -63.3886         estimate D2E/DX2                !
 ! D52   D(23,7,8,24)          174.3452         estimate D2E/DX2                !
 ! D53   D(23,7,8,25)           57.945          estimate D2E/DX2                !
 ! D54   D(7,8,9,10)          -176.9589         estimate D2E/DX2                !
 ! D55   D(7,8,9,26)           -55.6043         estimate D2E/DX2                !
 ! D56   D(7,8,9,27)            59.7798         estimate D2E/DX2                !
 ! D57   D(24,8,9,10)          -54.6309         estimate D2E/DX2                !
 ! D58   D(24,8,9,26)           66.7236         estimate D2E/DX2                !
 ! D59   D(24,8,9,27)         -177.8923         estimate D2E/DX2                !
 ! D60   D(25,8,9,10)           61.7069         estimate D2E/DX2                !
 ! D61   D(25,8,9,26)         -176.9386         estimate D2E/DX2                !
 ! D62   D(25,8,9,27)          -61.5545         estimate D2E/DX2                !
 ! D63   D(8,9,10,11)          -65.6155         estimate D2E/DX2                !
 ! D64   D(8,9,10,28)           57.7283         estimate D2E/DX2                !
 ! D65   D(8,9,10,29)          172.8803         estimate D2E/DX2                !
 ! D66   D(26,9,10,11)         172.7049         estimate D2E/DX2                !
 ! D67   D(26,9,10,28)         -63.9513         estimate D2E/DX2                !
 ! D68   D(26,9,10,29)          51.2006         estimate D2E/DX2                !
 ! D69   D(27,9,10,11)          57.7646         estimate D2E/DX2                !
 ! D70   D(27,9,10,28)        -178.8916         estimate D2E/DX2                !
 ! D71   D(27,9,10,29)         -63.7397         estimate D2E/DX2                !
 ! D72   D(9,10,11,30)         -56.0927         estimate D2E/DX2                !
 ! D73   D(9,10,11,31)          64.67           estimate D2E/DX2                !
 ! D74   D(9,10,11,32)        -175.8076         estimate D2E/DX2                !
 ! D75   D(28,10,11,30)       -179.5351         estimate D2E/DX2                !
 ! D76   D(28,10,11,31)        -58.7725         estimate D2E/DX2                !
 ! D77   D(28,10,11,32)         60.75           estimate D2E/DX2                !
 ! D78   D(29,10,11,30)         65.4659         estimate D2E/DX2                !
 ! D79   D(29,10,11,31)       -173.7714         estimate D2E/DX2                !
 ! D80   D(29,10,11,32)        -54.249          estimate D2E/DX2                !
 --------------------------------------------------------------------------------
 Trust Radius=3.00D-01 FncErr=1.00D-07 GrdErr=1.00D-06 EigMax=2.50D+02 EigMin=1.00D-04
 Number of steps in this run=    179 maximum allowed number of steps=    192.
 GradGradGradGradGradGradGradGradGradGradGradGradGradGradGradGradGradGrad

                          Input orientation:                          
 ---------------------------------------------------------------------
 Center     Atomic      Atomic             Coordinates (Angstroms)
 Number     Number       Type             X           Y           Z
 ---------------------------------------------------------------------
      1          8           0        5.493900    0.764900   -0.017500
      2          6           0        5.240100   -0.474800   -0.487000
      3          6           0        3.779200   -0.870400   -0.279900
      4          6           0        3.422600   -2.283700   -0.797500
      5          6           0        1.939900   -2.636400   -0.564700
      6          6           0        1.531000   -4.030500   -1.090300
      7          6           0        0.939200   -4.055500   -2.516300
      8          6           0        1.898200   -3.593000   -3.628400
      9          6           0        1.318400   -3.799000   -5.040900
     10          6           0        2.283800   -3.414400   -6.178800
     11          6           0        2.620000   -1.915600   -6.238200
     12          8           0        6.092000   -1.178700   -1.011300
     13          1           0        6.424400    0.898400   -0.200900
     14          1           0        3.167100   -0.123400   -0.784500
     15          1           0        3.571200   -0.798800    0.787400
     16          1           0        3.666600   -2.356100   -1.857900
     17          1           0        4.048900   -3.027300   -0.298900
     18          1           0        1.747800   -2.600800    0.509200
     19          1           0        1.294500   -1.871000   -0.999600
     20          1           0        2.371300   -4.723900   -1.022100
     21          1           0        0.775100   -4.439000   -0.417100
     22          1           0        0.614600   -5.075400   -2.730600
     23          1           0        0.033200   -3.447600   -2.543800
     24          1           0        2.845000   -4.129100   -3.541700
     25          1           0        2.123800   -2.536200   -3.487000
     26          1           0        1.042000   -4.847800   -5.162500
     27          1           0        0.390200   -3.234000   -5.144000
     28          1           0        3.205700   -3.991900   -6.090400
     29          1           0        1.840100   -3.710800   -7.130800
     30          1           0        1.717500   -1.308700   -6.318700
     31          1           0        3.165800   -1.589100   -5.352700
     32          1           0        3.245000   -1.692100   -7.103400
 ---------------------------------------------------------------------
                    Distance matrix (angstroms):
                    1          2          3          4          5
     1  O    0.000000
     2  C    1.349704   0.000000
     3  C    2.383958   1.527619   0.000000
     4  C    3.767313   2.582990   1.546768   0.000000
     5  C    4.949665   3.945868   2.565715   1.541750   0.000000
     6  C    6.312792   5.173432   3.961992   2.591369   1.544982
     7  C    7.086999   5.952916   4.817878   3.501546   2.612276
     8  C    6.705144   5.546157   4.707777   3.471607   3.209841
     9  C    7.968597   6.867899   6.107320   4.972950   4.666291
    10  C    8.107583   7.055320   6.595846   5.615491   5.678175
    11  C    7.358090   6.482062   6.159345   5.511885   5.759400
    12  O    2.263392   1.223151   2.445207   2.896969   4.423152
    13  H    0.957752   1.835783   3.183077   4.415031   5.721704
    14  H    2.606025   2.123515   1.089631   2.175395   2.805263
    15  H    2.605724   2.124688   1.089734   2.176906   2.804655
    16  H    4.057923   2.809726   2.170269   1.090516   2.175414
    17  H    4.067922   2.823047   2.173779   1.092609   2.161327
    18  H    5.063459   4.208141   2.782723   2.147783   1.091527
    19  H    5.054448   4.216621   2.773608   2.177148   1.091566
    20  H    6.394277   5.154726   4.169233   2.666506   2.180132
    21  H    7.036144   5.971264   4.666728   3.435008   2.151258
    22  H    8.079454   6.898878   5.805398   4.406283   3.520833
    23  H    7.344834   6.338752   5.079342   3.986510   2.865377
    24  H    6.586949   5.331192   4.704380   3.357046   3.451071
    25  H    5.855960   4.791732   3.975013   2.997340   2.929795
    26  H    8.820025   7.655552   6.866714   5.594201   5.180374
    27  H    8.265589   7.267900   6.382115   5.384290   4.871210
    28  H    8.046311   6.921479   6.620768   5.565949   5.828635
    29  H    9.164125   8.134604   7.665691   6.682186   6.654169
    30  H    7.633226   6.863878   6.396078   5.860174   5.909379
    31  H    6.278991   5.405499   5.160047   4.615004   5.052189
    32  H    7.829711   7.017050   6.893527   6.336080   6.734210
                    6          7          8          9         10
     6  C    0.000000
     7  C    1.544127   0.000000
     8  C    2.601575   1.539595   0.000000
     9  C    3.963084   2.565773   1.540701   0.000000
    10  C    5.180649   3.953842   2.585561   1.541016   0.000000
    11  C    5.670943   4.610510   3.185235   2.583580   1.537192
    12  O    5.379751   6.090349   5.501456   6.774283   6.797338
    13  H    7.002175   7.745297   7.239262   8.459456   8.454591
    14  H    4.246854   4.839843   4.662188   5.919854   6.380390
    15  H    4.258175   5.333662   5.486873   6.931478   7.551603
    16  H    2.820215   3.280269   2.791385   4.210403   4.658574
    17  H    2.823569   3.955287   4.003885   5.526094   6.151313
    18  H    2.156257   3.453062   4.257560   5.694179   6.758593
    19  H    2.174304   2.683031   3.200051   4.477707   5.494080
    20  H    1.091585   2.174926   2.880201   4.256148   5.321090
    21  H    1.091538   2.140243   3.505641   4.699394   6.043440
    22  H    2.149928   1.091552   2.156660   2.731669   4.175552
    23  H    2.166989   1.091391   2.162342   2.830323   4.275456
    24  H    2.783106   2.165395   1.091490   2.164965   2.789272
    25  H    2.885917   2.157269   1.089824   2.158226   2.835952
    26  H    4.182094   2.764178   2.158950   1.091405   2.151643
    27  H    4.285828   2.807324   2.167946   1.091517   2.165427
    28  H    5.273245   4.232642   2.816047   2.168078   1.091430
    29  H    6.056847   4.714239   3.504862   2.155837   1.091342
    30  H    5.897385   4.754882   3.533892   2.827304   2.185003
    31  H    5.176974   4.368757   2.931831   2.897199   2.189083
    32  H    6.675574   5.651890   4.183649   3.522034   2.178327
                   11         12         13         14         15
    11  C    0.000000
    12  O    6.318092   0.000000
    13  H    7.670792   2.254237   0.000000
    14  H    5.766641   3.117713   3.463332   0.000000
    15  H    7.177122   3.119948   3.463809   1.757934   0.000000
    16  H    4.525090   2.825875   4.576339   2.527180   3.071139
    17  H    6.209099   2.845891   4.589523   3.073437   2.524769
    18  H    6.837956   4.817298   5.883811   3.134579   2.578640
    19  H    5.403875   4.847208   5.884163   2.570409   3.086478
    20  H    5.929258   5.139277   6.979416   4.674864   4.485584
    21  H    6.607300   6.265146   7.774907   4.947833   4.745530
    22  H    5.129252   6.938456   8.708585   5.901260   6.277509
    23  H    4.763103   6.648723   8.076158   4.895587   5.534481
    24  H    3.495900   5.064661   7.017749   4.873554   5.509934
    25  H    2.863645   4.870165   6.410155   3.770091   4.835703
    26  H    3.499287   7.496483   9.306262   6.782543   7.628405
    27  H    2.812021   7.335802   8.827374   6.032599   7.157546
    28  H    2.162385   6.483986   8.304293   6.566533   7.591680
    29  H    2.151214   7.870099   9.501792   7.409851   8.612453
    30  H    1.090557   6.879073   8.028305   5.842401   7.361580
    31  H    1.090234   5.251555   6.583857   4.797575   6.204011
    32  H    1.090481   6.744084   8.028934   6.511174   7.947900
                   16         17         18         19         20
    16  H    0.000000
    17  H    1.739869   0.000000
    18  H    3.056932   2.475881   0.000000
    19  H    2.568824   3.068343   1.736251   0.000000
    20  H    2.825392   2.493153   2.690945   3.049433   0.000000
    21  H    3.843846   3.567161   2.276655   2.683972   1.730621
    22  H    4.179821   4.679989   4.231323   3.704970   2.475585
    23  H    3.855311   4.619748   3.602462   2.541869   3.067772
    24  H    2.579484   3.630302   4.466468   3.737023   2.631836
    25  H    2.250919   3.756484   4.014370   2.705067   3.304999
    26  H    4.900763   6.000856   6.141282   5.123947   4.350322
    27  H    4.722707   6.074850   5.848307   4.455511   4.809846
    28  H    4.560957   5.931518   6.900388   5.836707   5.188421
    29  H    5.742368   7.212547   7.720765   6.424497   6.214882
    30  H    4.979435   6.680345   6.949148   5.365439   6.336010
    31  H    3.612854   5.328150   6.115238   4.746653   5.404840
    32  H    5.304141   6.980704   7.811467   6.410369   6.851086
                   21         22         23         24         25
    21  H    0.000000
    22  H    2.404797   0.000000
    23  H    2.460923   1.738578   0.000000
    24  H    3.760804   2.555005   3.060468   0.000000
    25  H    3.855376   3.049158   2.467972   1.749415   0.000000
    26  H    4.770448   2.479639   3.136212   2.528702   3.053045
    27  H    4.893236   3.043946   2.633271   3.065063   2.497587
    28  H    6.188218   4.379044   4.789508   2.577751   3.172895
    29  H    6.836539   4.767153   4.937077   3.750525   3.838939
    30  H    6.746538   5.317789   4.654206   4.115537   3.112934
    31  H    6.180415   5.053545   4.599687   3.135958   2.337434
    32  H    7.638879   6.122671   5.846999   4.334129   3.879168
                   26         27         28         29         30
    26  H    0.000000
    27  H    1.740556   0.000000
    28  H    2.505027   3.065473   0.000000
    29  H    2.409136   2.505379   1.739630   0.000000
    30  H    3.783957   2.616950   3.076755   2.538626   0.000000
    31  H    3.894333   3.233142   2.513810   3.069321   1.763336
    32  H    4.310307   3.790328   2.513323   2.459603   1.759547
                   31         32
    31  H    0.000000
    32  H    1.755515   0.000000
 Stoichiometry    C10H20O2
 Framework group  C1[X(C10H20O2)]
 Deg. of freedom    90
 Full point group                 C1      NOp   1
 Largest Abelian subgroup         C1      NOp   1
 Largest concise Abelian subgroup C1      NOp   1
                         Standard orientation:                         
 ---------------------------------------------------------------------
 Center     Atomic      Atomic             Coordinates (Angstroms)
 Number     Number       Type             X           Y           Z
 ---------------------------------------------------------------------
      1          8           0        4.380502   -1.219797   -0.612096
      2          6           0        3.340041   -0.799975    0.138164
      3          6           0        2.568301    0.327670   -0.544809
      4          6           0        1.360888    0.854885    0.265554
      5          6           0        0.616532    1.991080   -0.463822
      6          6           0       -0.614426    2.531883    0.297258
      7          6           0       -1.965968    1.889672   -0.083830
      8          6           0       -2.078040    0.382782    0.211261
      9          6           0       -3.496778   -0.168631   -0.027251
     10          6           0       -3.660194   -1.658744    0.329947
     11          6           0       -2.844617   -2.611317   -0.559099
     12          8           0        3.066584   -1.278892    1.229933
     13          1           0        4.780094   -1.915619   -0.089175
     14          1           0        2.232910   -0.048682   -1.510816
     15          1           0        3.273959    1.136130   -0.734435
     16          1           0        0.678155    0.031984    0.479880
     17          1           0        1.700669    1.217765    1.238520
     18          1           0        1.318536    2.812939   -0.616037
     19          1           0        0.323526    1.671555   -1.465603
     20          1           0       -0.456887    2.459594    1.374994
     21          1           0       -0.694578    3.601858    0.096799
     22          1           0       -2.755303    2.415618    0.456371
     23          1           0       -2.166424    2.067099   -1.141881
     24          1           0       -1.780744    0.188768    1.243406
     25          1           0       -1.375138   -0.157236   -0.422793
     26          1           0       -4.207337    0.408633    0.566917
     27          1           0       -3.783325   -0.010004   -1.068470
     28          1           0       -3.393302   -1.817926    1.376202
     29          1           0       -4.715606   -1.924973    0.250873
     30          1           0       -3.082405   -2.471571   -1.614202
     31          1           0       -1.772081   -2.460691   -0.434250
     32          1           0       -3.055840   -3.651558   -0.309238
 ---------------------------------------------------------------------
 Rotational constants (GHZ):           1.0233269           0.3567857           0.2831692
 Standard basis: 6-31G(d,p) (6D, 7F)
 There are   280 symmetry adapted cartesian basis functions of A   symmetry.
 There are   280 symmetry adapted basis functions of A   symmetry.
   280 basis functions,   476 primitive gaussians,   280 cartesian basis functions
    48 alpha electrons       48 beta electrons
       nuclear repulsion energy       706.5818683911 Hartrees.
 NAtoms=   32 NActive=   32 NUniq=   32 SFac= 1.00D+00 NAtFMM=   60 NAOKFM=F Big=F
 Integral buffers will be    131072 words long.
 Raffenetti 2 integral format.
 Two-electron integral symmetry is turned on.
 Nuclear repulsion after empirical dispersion term =      706.5346811372 Hartrees.
 One-electron integrals computed using PRISM.
 NBasis=   280 RedAO= T EigKep=  2.78D-03  NBF=   280
 NBsUse=   280 1.00D-06 EigRej= -1.00D+00 NBFU=   280
 ExpMin= 1.61D-01 ExpMax= 5.48D+03 ExpMxC= 8.25D+02 IAcc=3 IRadAn=         5 AccDes= 0.00D+00
 Harris functional with IExCor=  402 and IRadAn=       5 diagonalized for initial guess.
 HarFok:  IExCor=  402 AccDes= 0.00D+00 IRadAn=         5 IDoV= 1 UseB2=F ITyADJ=14
 ICtDFT=  3500011 ScaDFX=  1.000000  1.000000  1.000000  1.000000
 FoFCou: FMM=F IPFlag=           0 FMFlag=      100000 FMFlg1=           0
         NFxFlg=           0 DoJE=T BraDBF=F KetDBF=T FulRan=T
         wScrn=  0.000000 ICntrl=       500 IOpCl=  0 I1Cent=   200000004 NGrid=           0
         NMat0=    1 NMatS0=      1 NMatT0=    0 NMatD0=    1 NMtDS0=    0 NMtDT0=    0
 Petite list used in FoFCou.
 Requested convergence on RMS density matrix=1.00D-08 within 128 cycles.
 Requested convergence on MAX density matrix=1.00D-06.
 Requested convergence on             energy=1.00D-06.
 No special actions if energy rises.
 Integral accuracy reduced to 1.0D-05 until final iterations.
 Initial convergence to 1.0D-05 achieved.  Increase integral accuracy.
 SCF Done:  E(RB3LYP) =  -543.663398176     A.U. after   13 cycles
            NFock= 13  Conv=0.63D-08     -V/T= 2.0096

 **********************************************************************

            Population analysis using the SCF Density.

 **********************************************************************

 Orbital symmetries:
       Occupied  (A) (A) (A) (A) (A) (A) (A) (A) (A) (A) (A) (A)
                 (A) (A) (A) (A) (A) (A) (A) (A) (A) (A) (A) (A)
                 (A) (A) (A) (A) (A) (A) (A) (A) (A) (A) (A) (A)
                 (A) (A) (A) (A) (A) (A) (A) (A) (A) (A) (A) (A)
       Virtual   (A) (A) (A) (A) (A) (A) (A) (A) (A) (A) (A) (A)
                 (A) (A) (A) (A) (A) (A) (A) (A) (A) (A) (A) (A)
                 (A) (A) (A) (A) (A) (A) (A) (A) (A) (A) (A) (A)
                 (A) (A) (A) (A) (A) (A) (A) (A) (A) (A) (A) (A)
                 (A) (A) (A) (A) (A) (A) (A) (A) (A) (A) (A) (A)
                 (A) (A) (A) (A) (A) (A) (A) (A) (A) (A) (A) (A)
                 (A) (A) (A) (A) (A) (A) (A) (A) (A) (A) (A) (A)
                 (A) (A) (A) (A) (A) (A) (A) (A) (A) (A) (A) (A)
                 (A) (A) (A) (A) (A) (A) (A) (A) (A) (A) (A) (A)
                 (A) (A) (A) (A) (A) (A) (A) (A) (A) (A) (A) (A)
                 (A) (A) (A) (A) (A) (A) (A) (A) (A) (A) (A) (A)
                 (A) (A) (A) (A) (A) (A) (A) (A) (A) (A) (A) (A)
                 (A) (A) (A) (A) (A) (A) (A) (A) (A) (A) (A) (A)
                 (A) (A) (A) (A) (A) (A) (A) (A) (A) (A) (A) (A)
                 (A) (A) (A) (A) (A) (A) (A) (A) (A) (A) (A) (A)
                 (A) (A) (A) (A) (A) (A) (A) (A) (A) (A) (A) (A)
                 (A) (A) (A) (A) (A) (A) (A) (A) (A) (A) (A) (A)
                 (A) (A) (A) (A) (A) (A) (A) (A) (A) (A) (A) (A)
                 (A) (A) (A) (A) (A) (A) (A) (A) (A) (A) (A) (A)
                 (A) (A) (A) (A)
 The electronic state is 1-A.
 Alpha  occ. eigenvalues --  -19.19802 -19.13765 -10.32079 -10.20004 -10.18235
 Alpha  occ. eigenvalues --  -10.18012 -10.17712 -10.17528 -10.17502 -10.17329
 Alpha  occ. eigenvalues --  -10.17284 -10.16792  -1.10743  -1.01042  -0.81081
 Alpha  occ. eigenvalues --   -0.79276  -0.76585  -0.72739  -0.68746  -0.64804
 Alpha  occ. eigenvalues --   -0.61331  -0.57895  -0.56771  -0.56236  -0.48738
 Alpha  occ. eigenvalues --   -0.48428  -0.47840  -0.46534  -0.44856  -0.44113
 Alpha  occ. eigenvalues --   -0.42427  -0.42096  -0.40786  -0.39740  -0.38786
 Alpha  occ. eigenvalues --   -0.37687  -0.36507  -0.36182  -0.35677  -0.33933
 Alpha  occ. eigenvalues --   -0.32999  -0.32579  -0.32311  -0.31780  -0.31679
 Alpha  occ. eigenvalues --   -0.30662  -0.29609  -0.27226
 Alpha virt. eigenvalues --    0.01095   0.08027   0.08421   0.09928   0.10497
 Alpha virt. eigenvalues --    0.11845   0.12348   0.13691   0.14706   0.15352
 Alpha virt. eigenvalues --    0.16052   0.16482   0.16826   0.17658   0.18295
 Alpha virt. eigenvalues --    0.18942   0.19261   0.19707   0.20471   0.21046
 Alpha virt. eigenvalues --    0.21951   0.22896   0.23770   0.24366   0.25432
 Alpha virt. eigenvalues --    0.25632   0.26467   0.27008   0.29328   0.30950
 Alpha virt. eigenvalues --    0.32969   0.37178   0.49541   0.50315   0.50867
 Alpha virt. eigenvalues --    0.52534   0.52945   0.53038   0.53618   0.54607
 Alpha virt. eigenvalues --    0.55276   0.58514   0.59300   0.60436   0.61951
 Alpha virt. eigenvalues --    0.63588   0.65691   0.65862   0.67010   0.67395
 Alpha virt. eigenvalues --    0.67988   0.69487   0.70525   0.71797   0.74777
 Alpha virt. eigenvalues --    0.75090   0.77466   0.78492   0.80063   0.81830
 Alpha virt. eigenvalues --    0.82534   0.84663   0.84720   0.85777   0.87196
 Alpha virt. eigenvalues --    0.87241   0.87414   0.88926   0.89328   0.89966
 Alpha virt. eigenvalues --    0.91058   0.91867   0.92048   0.93492   0.93766
 Alpha virt. eigenvalues --    0.94082   0.94574   0.95697   0.95861   0.96813
 Alpha virt. eigenvalues --    0.97546   0.99307   0.99644   1.00954   1.04696
 Alpha virt. eigenvalues --    1.07259   1.07490   1.11470   1.12047   1.15935
 Alpha virt. eigenvalues --    1.22823   1.25071   1.27691   1.30072   1.34293
 Alpha virt. eigenvalues --    1.38373   1.40796   1.42677   1.45422   1.49992
 Alpha virt. eigenvalues --    1.52211   1.53270   1.55485   1.55801   1.57749
 Alpha virt. eigenvalues --    1.59927   1.61067   1.61905   1.64252   1.66771
 Alpha virt. eigenvalues --    1.68726   1.70722   1.71063   1.72830   1.73033
 Alpha virt. eigenvalues --    1.77811   1.78528   1.79249   1.82428   1.85074
 Alpha virt. eigenvalues --    1.85305   1.86432   1.87402   1.87655   1.88612
 Alpha virt. eigenvalues --    1.90101   1.91206   1.91830   1.92847   1.94099
 Alpha virt. eigenvalues --    1.95339   2.02208   2.05389   2.06085   2.08397
 Alpha virt. eigenvalues --    2.08622   2.09584   2.11889   2.12445   2.14525
 Alpha virt. eigenvalues --    2.15188   2.16194   2.16661   2.17655   2.21604
 Alpha virt. eigenvalues --    2.22347   2.24341   2.24944   2.25941   2.27357
 Alpha virt. eigenvalues --    2.29180   2.29974   2.30594   2.31280   2.34136
 Alpha virt. eigenvalues --    2.34727   2.35704   2.37573   2.39561   2.41245
 Alpha virt. eigenvalues --    2.42787   2.43744   2.46059   2.47325   2.50137
 Alpha virt. eigenvalues --    2.52958   2.53474   2.55955   2.57716   2.59723
 Alpha virt. eigenvalues --    2.61404   2.63289   2.63400   2.65520   2.66846
 Alpha virt. eigenvalues --    2.67957   2.69493   2.71123   2.73333   2.75185
 Alpha virt. eigenvalues --    2.77417   2.78727   2.79676   2.81717   2.83790
 Alpha virt. eigenvalues --    2.84432   2.85575   2.87119   2.88980   2.89207
 Alpha virt. eigenvalues --    2.90265   2.91454   2.91529   2.92437   2.92884
 Alpha virt. eigenvalues --    2.93533   2.94838   2.97433   3.01655   3.17277
 Alpha virt. eigenvalues --    3.20448   3.24552   3.26936   3.29906   3.32125
 Alpha virt. eigenvalues --    3.32691   3.34021   3.36624   3.37025   3.40002
 Alpha virt. eigenvalues --    3.40957   3.43861   3.46092   3.47256   3.48331
 Alpha virt. eigenvalues --    3.52736   3.56046   3.57652   3.59260   3.61623
 Alpha virt. eigenvalues --    3.94374   4.13651   4.23394   4.26540   4.35888
 Alpha virt. eigenvalues --    4.40758   4.49540   4.56974   4.61458   4.66237
 Alpha virt. eigenvalues --    4.74128   4.76840
          Condensed to atoms (all electrons):
               1          2          3          4          5          6
     1  O    8.116181   0.257071  -0.094995   0.002479  -0.000024   0.000000
     2  C    0.257071   4.387632   0.313676  -0.029335   0.004002  -0.000097
     3  C   -0.094995   0.313676   5.152505   0.339629  -0.033346   0.003268
     4  C    0.002479  -0.029335   0.339629   4.907454   0.360721  -0.034026
     5  C   -0.000024   0.004002  -0.033346   0.360721   4.929874   0.362019
     6  C    0.000000  -0.000097   0.003268  -0.034026   0.362019   4.925897
     7  C   -0.000000   0.000001  -0.000015  -0.001241  -0.037264   0.372745
     8  C   -0.000000  -0.000000  -0.000055  -0.001180  -0.002651  -0.041575
     9  C   -0.000000  -0.000000  -0.000001   0.000117  -0.000015   0.003687
    10  C   -0.000000   0.000000  -0.000000   0.000004   0.000003  -0.000137
    11  C   -0.000000  -0.000000   0.000000  -0.000008  -0.000001   0.000003
    12  O   -0.080143   0.572881  -0.087960   0.005333   0.000383   0.000000
    13  H    0.267530  -0.009354   0.011314  -0.000313   0.000002  -0.000000
    14  H    0.002341  -0.024983   0.368366  -0.035303  -0.002963   0.000006
    15  H    0.002380  -0.024991   0.368200  -0.035313  -0.002392   0.000002
    16  H    0.000075  -0.002309  -0.037032   0.389701  -0.042816  -0.001328
    17  H    0.000055  -0.002599  -0.036723   0.387278  -0.037847  -0.004648
    18  H   -0.000000  -0.000012  -0.004941  -0.038333   0.377050  -0.032132
    19  H   -0.000001   0.000038  -0.003715  -0.039825   0.382425  -0.042395
    20  H    0.000000  -0.000003   0.000238  -0.008009  -0.044080   0.384185
    21  H   -0.000000   0.000002  -0.000149   0.003872  -0.032696   0.370707
    22  H    0.000000  -0.000000   0.000002  -0.000114   0.004939  -0.034504
    23  H    0.000000  -0.000000   0.000009  -0.000088  -0.007705  -0.036800
    24  H    0.000000  -0.000001   0.000014  -0.000243  -0.001425  -0.002989
    25  H   -0.000000  -0.000014   0.000149  -0.002799   0.004483  -0.004290
    26  H    0.000000  -0.000000   0.000000  -0.000004   0.000006   0.000010
    27  H    0.000000   0.000000   0.000000  -0.000002  -0.000009   0.000038
    28  H   -0.000000  -0.000000   0.000000  -0.000000   0.000000  -0.000000
    29  H   -0.000000  -0.000000   0.000000  -0.000000  -0.000000   0.000002
    30  H   -0.000000  -0.000000   0.000000   0.000000  -0.000000   0.000000
    31  H    0.000000   0.000000   0.000000  -0.000009  -0.000009   0.000009
    32  H    0.000000   0.000000  -0.000000   0.000000   0.000000  -0.000000
               7          8          9         10         11         12
     1  O   -0.000000  -0.000000  -0.000000  -0.000000  -0.000000  -0.080143
     2  C    0.000001  -0.000000  -0.000000   0.000000  -0.000000   0.572881
     3  C   -0.000015  -0.000055  -0.000001  -0.000000   0.000000  -0.087960
     4  C   -0.001241  -0.001180   0.000117   0.000004  -0.000008   0.005333
     5  C   -0.037264  -0.002651  -0.000015   0.000003  -0.000001   0.000383
     6  C    0.372745  -0.041575   0.003687  -0.000137   0.000003   0.000000
     7  C    4.893505   0.376518  -0.032595   0.003531   0.000133  -0.000000
     8  C    0.376518   4.899676   0.376250  -0.039933  -0.004895  -0.000001
     9  C   -0.032595   0.376250   4.903772   0.374619  -0.045777  -0.000000
    10  C    0.003531  -0.039933   0.374619   4.876815   0.376008   0.000000
    11  C    0.000133  -0.004895  -0.045777   0.376008   4.915234  -0.000000
    12  O   -0.000000  -0.000001  -0.000000   0.000000  -0.000000   8.040313
    13  H    0.000000  -0.000000   0.000000  -0.000000   0.000000   0.011498
    14  H   -0.000007   0.000012  -0.000000   0.000000   0.000000   0.001186
    15  H   -0.000002  -0.000000   0.000000  -0.000000  -0.000000   0.001169
    16  H   -0.000203   0.001918  -0.000019  -0.000009  -0.000015   0.003501
    17  H   -0.000038   0.000016  -0.000005   0.000000   0.000000   0.002928
    18  H    0.003899   0.000065   0.000001  -0.000000  -0.000000  -0.000002
    19  H   -0.007296  -0.000789  -0.000077   0.000002  -0.000000  -0.000000
    20  H   -0.036167  -0.006936   0.000027  -0.000001   0.000000  -0.000001
    21  H   -0.032204   0.004920  -0.000132   0.000002   0.000000   0.000000
    22  H    0.379496  -0.042157  -0.005760   0.000063   0.000003  -0.000000
    23  H    0.380691  -0.039504  -0.003446   0.000021  -0.000012   0.000000
    24  H   -0.040710   0.385868  -0.040885  -0.003230  -0.000718  -0.000000
    25  H   -0.036389   0.384383  -0.038742  -0.004076   0.002914  -0.000004
    26  H   -0.005011  -0.039962   0.378407  -0.033764   0.005097   0.000000
    27  H   -0.003290  -0.039452   0.379772  -0.038349  -0.006994   0.000000
    28  H    0.000053  -0.007566  -0.037918   0.385818  -0.039890  -0.000000
    29  H   -0.000138   0.004639  -0.031777   0.379947  -0.039727  -0.000000
    30  H   -0.000022  -0.000779  -0.004555  -0.035949   0.386420  -0.000000
    31  H   -0.000113   0.002624  -0.004769  -0.034871   0.388449   0.000000
    32  H   -0.000001   0.000149   0.004307  -0.028150   0.381117   0.000000
              13         14         15         16         17         18
     1  O    0.267530   0.002341   0.002380   0.000075   0.000055  -0.000000
     2  C   -0.009354  -0.024983  -0.024991  -0.002309  -0.002599  -0.000012
     3  C    0.011314   0.368366   0.368200  -0.037032  -0.036723  -0.004941
     4  C   -0.000313  -0.035303  -0.035313   0.389701   0.387278  -0.038333
     5  C    0.000002  -0.002963  -0.002392  -0.042816  -0.037847   0.377050
     6  C   -0.000000   0.000006   0.000002  -0.001328  -0.004648  -0.032132
     7  C    0.000000  -0.000007  -0.000002  -0.000203  -0.000038   0.003899
     8  C   -0.000000   0.000012  -0.000000   0.001918   0.000016   0.000065
     9  C    0.000000  -0.000000   0.000000  -0.000019  -0.000005   0.000001
    10  C   -0.000000   0.000000  -0.000000  -0.000009   0.000000  -0.000000
    11  C    0.000000   0.000000  -0.000000  -0.000015   0.000000  -0.000000
    12  O    0.011498   0.001186   0.001169   0.003501   0.002928  -0.000002
    13  H    0.401532  -0.000366  -0.000361  -0.000005  -0.000004   0.000000
    14  H   -0.000366   0.582609  -0.028726  -0.004663   0.005165  -0.000482
    15  H   -0.000361  -0.028726   0.582291   0.005131  -0.004817   0.004815
    16  H   -0.000005  -0.004663   0.005131   0.602280  -0.035695   0.005980
    17  H   -0.000004   0.005165  -0.004817  -0.035695   0.613160  -0.006444
    18  H    0.000000  -0.000482   0.004815   0.005980  -0.006444   0.651454
    19  H    0.000000   0.004692  -0.000434  -0.004930   0.005704  -0.040923
    20  H   -0.000000   0.000010   0.000009   0.000384   0.004752   0.001265
    21  H    0.000000   0.000002  -0.000003  -0.000039   0.000137  -0.010050
    22  H   -0.000000   0.000000  -0.000000  -0.000055   0.000014  -0.000216
    23  H   -0.000000  -0.000003   0.000000   0.000109   0.000006   0.000106
    24  H   -0.000000   0.000000  -0.000000   0.001895   0.000081  -0.000013
    25  H   -0.000000   0.000113  -0.000005   0.002304   0.000073  -0.000065
    26  H   -0.000000   0.000000  -0.000000   0.000004   0.000000   0.000000
    27  H   -0.000000  -0.000000  -0.000000   0.000005   0.000000  -0.000000
    28  H   -0.000000  -0.000000  -0.000000  -0.000002   0.000000  -0.000000
    29  H    0.000000  -0.000000   0.000000   0.000000  -0.000000  -0.000000
    30  H   -0.000000   0.000000  -0.000000  -0.000002  -0.000000  -0.000000
    31  H   -0.000000  -0.000000   0.000000   0.000265  -0.000001   0.000000
    32  H   -0.000000  -0.000000  -0.000000  -0.000000   0.000000   0.000000
              19         20         21         22         23         24
     1  O   -0.000001   0.000000  -0.000000   0.000000   0.000000   0.000000
     2  C    0.000038  -0.000003   0.000002  -0.000000  -0.000000  -0.000001
     3  C   -0.003715   0.000238  -0.000149   0.000002   0.000009   0.000014
     4  C   -0.039825  -0.008009   0.003872  -0.000114  -0.000088  -0.000243
     5  C    0.382425  -0.044080  -0.032696   0.004939  -0.007705  -0.001425
     6  C   -0.042395   0.384185   0.370707  -0.034504  -0.036800  -0.002989
     7  C   -0.007296  -0.036167  -0.032204   0.379496   0.380691  -0.040710
     8  C   -0.000789  -0.006936   0.004920  -0.042157  -0.039504   0.385868
     9  C   -0.000077   0.000027  -0.000132  -0.005760  -0.003446  -0.040885
    10  C    0.000002  -0.000001   0.000002   0.000063   0.000021  -0.003230
    11  C   -0.000000   0.000000   0.000000   0.000003  -0.000012  -0.000718
    12  O   -0.000000  -0.000001   0.000000  -0.000000   0.000000  -0.000000
    13  H    0.000000  -0.000000   0.000000  -0.000000  -0.000000  -0.000000
    14  H    0.004692   0.000010   0.000002   0.000000  -0.000003   0.000000
    15  H   -0.000434   0.000009  -0.000003  -0.000000   0.000000  -0.000000
    16  H   -0.004930   0.000384  -0.000039  -0.000055   0.000109   0.001895
    17  H    0.005704   0.004752   0.000137   0.000014   0.000006   0.000081
    18  H   -0.040923   0.001265  -0.010050  -0.000216   0.000106  -0.000013
    19  H    0.644717   0.005438   0.001385   0.000184   0.004879   0.000186
    20  H    0.005438   0.638136  -0.039386  -0.004053   0.005895   0.005005
    21  H    0.001385  -0.039386   0.653699  -0.004008  -0.004363   0.000011
    22  H    0.000184  -0.004053  -0.004008   0.651495  -0.040554  -0.004700
    23  H    0.004879   0.005895  -0.004363  -0.040554   0.649139   0.006213
    24  H    0.000186   0.005005   0.000011  -0.004700   0.006213   0.641051
    25  H    0.001272  -0.000271  -0.000055   0.006205  -0.007517  -0.044366
    26  H    0.000001   0.000001  -0.000006   0.006311  -0.000509  -0.005477
    27  H    0.000003   0.000006   0.000004  -0.000523   0.004470   0.006121
    28  H   -0.000000  -0.000001   0.000000   0.000005   0.000006   0.005472
    29  H   -0.000000   0.000000  -0.000000  -0.000008   0.000004   0.000034
    30  H   -0.000000  -0.000000  -0.000000   0.000001   0.000000   0.000083
    31  H   -0.000004   0.000000  -0.000000  -0.000001   0.000011   0.000452
    32  H    0.000000  -0.000000   0.000000   0.000000  -0.000000  -0.000022
              25         26         27         28         29         30
     1  O   -0.000000   0.000000   0.000000  -0.000000  -0.000000  -0.000000
     2  C   -0.000014  -0.000000   0.000000  -0.000000  -0.000000  -0.000000
     3  C    0.000149   0.000000   0.000000   0.000000   0.000000   0.000000
     4  C   -0.002799  -0.000004  -0.000002  -0.000000  -0.000000   0.000000
     5  C    0.004483   0.000006  -0.000009   0.000000  -0.000000  -0.000000
     6  C   -0.004290   0.000010   0.000038  -0.000000   0.000002   0.000000
     7  C   -0.036389  -0.005011  -0.003290   0.000053  -0.000138  -0.000022
     8  C    0.384383  -0.039962  -0.039452  -0.007566   0.004639  -0.000779
     9  C   -0.038742   0.378407   0.379772  -0.037918  -0.031777  -0.004555
    10  C   -0.004076  -0.033764  -0.038349   0.385818   0.379947  -0.035949
    11  C    0.002914   0.005097  -0.006994  -0.039890  -0.039727   0.386420
    12  O   -0.000004   0.000000   0.000000  -0.000000  -0.000000  -0.000000
    13  H   -0.000000  -0.000000  -0.000000  -0.000000   0.000000  -0.000000
    14  H    0.000113   0.000000  -0.000000  -0.000000  -0.000000   0.000000
    15  H   -0.000005  -0.000000  -0.000000  -0.000000   0.000000  -0.000000
    16  H    0.002304   0.000004   0.000005  -0.000002   0.000000  -0.000002
    17  H    0.000073   0.000000   0.000000   0.000000  -0.000000  -0.000000
    18  H   -0.000065   0.000000  -0.000000  -0.000000  -0.000000  -0.000000
    19  H    0.001272   0.000001   0.000003  -0.000000  -0.000000  -0.000000
    20  H   -0.000271   0.000001   0.000006  -0.000001   0.000000  -0.000000
    21  H   -0.000055  -0.000006   0.000004   0.000000  -0.000000  -0.000000
    22  H    0.006205   0.006311  -0.000523   0.000005  -0.000008   0.000001
    23  H   -0.007517  -0.000509   0.004470   0.000006   0.000004   0.000000
    24  H   -0.044366  -0.005477   0.006121   0.005472   0.000034   0.000083
    25  H    0.638166   0.006101  -0.006532  -0.000243  -0.000025   0.000466
    26  H    0.006101   0.649804  -0.040447  -0.003235  -0.004327   0.000031
    27  H   -0.006532  -0.040447   0.649881   0.006088  -0.003247   0.005388
    28  H   -0.000243  -0.003235   0.006088   0.639928  -0.039963   0.005529
    29  H   -0.000025  -0.004327  -0.003247  -0.039963   0.647966  -0.004375
    30  H    0.000466   0.000031   0.005388   0.005529  -0.004375   0.614727
    31  H    0.001618  -0.000024  -0.000140  -0.005322   0.005526  -0.034333
    32  H   -0.000125  -0.000183   0.000007  -0.002547  -0.004172  -0.032619
              31         32
     1  O    0.000000   0.000000
     2  C    0.000000   0.000000
     3  C    0.000000  -0.000000
     4  C   -0.000009   0.000000
     5  C   -0.000009   0.000000
     6  C    0.000009  -0.000000
     7  C   -0.000113  -0.000001
     8  C    0.002624   0.000149
     9  C   -0.004769   0.004307
    10  C   -0.034871  -0.028150
    11  C    0.388449   0.381117
    12  O    0.000000   0.000000
    13  H   -0.000000  -0.000000
    14  H   -0.000000  -0.000000
    15  H    0.000000  -0.000000
    16  H    0.000265  -0.000000
    17  H   -0.000001   0.000000
    18  H    0.000000   0.000000
    19  H   -0.000004   0.000000
    20  H    0.000000  -0.000000
    21  H   -0.000000   0.000000
    22  H   -0.000001   0.000000
    23  H    0.000011  -0.000000
    24  H    0.000452  -0.000022
    25  H    0.001618  -0.000125
    26  H   -0.000024  -0.000183
    27  H   -0.000140   0.000007
    28  H   -0.005322  -0.002547
    29  H    0.005526  -0.004172
    30  H   -0.034333  -0.032619
    31  H    0.606224  -0.031790
    32  H   -0.031790   0.613901
 Mulliken charges:
               1
     1  O   -0.472950
     2  C    0.558395
     3  C   -0.258437
     4  C   -0.170444
     5  C   -0.180666
     6  C   -0.187658
     7  C   -0.177867
     8  C   -0.169604
     9  C   -0.174486
    10  C   -0.178363
    11  C   -0.317339
    12  O   -0.471083
    13  H    0.318527
    14  H    0.132994
    15  H    0.133045
    16  H    0.115572
    17  H    0.109450
    18  H    0.088977
    19  H    0.089463
    20  H    0.093557
    21  H    0.088349
    22  H    0.087933
    23  H    0.088939
    24  H    0.092292
    25  H    0.097270
    26  H    0.087177
    27  H    0.087201
    28  H    0.093790
    29  H    0.089641
    30  H    0.099989
    31  H    0.106207
    32  H    0.100131
 Sum of Mulliken charges =  -0.00000
 Mulliken charges with hydrogens summed into heavy atoms:
               1
     1  O   -0.154423
     2  C    0.558395
     3  C    0.007601
     4  C    0.054578
     5  C   -0.002226
     6  C   -0.005752
     7  C   -0.000995
     8  C    0.019957
     9  C   -0.000108
    10  C    0.005067
    11  C   -0.011012
    12  O   -0.471083
 Electronic spatial extent (au):  <R**2>=           3908.4343
 Charge=             -0.0000 electrons
 Dipole moment (field-independent basis, Debye):
    X=              0.2069    Y=              0.5927    Z=             -1.2474  Tot=              1.3965
 Quadrupole moment (field-independent basis, Debye-Ang):
   XX=            -71.5284   YY=            -74.3943   ZZ=            -79.6182
   XY=             -1.1218   XZ=             -2.2582   YZ=              1.9276
 Traceless Quadrupole moment (field-independent basis, Debye-Ang):
   XX=              3.6519   YY=              0.7860   ZZ=             -4.4379
   XY=             -1.1218   XZ=             -2.2582   YZ=              1.9276
 Octapole moment (field-independent basis, Debye-Ang**2):
  XXX=             70.3331  YYY=            -15.4470  ZZZ=             -1.6340  XYY=             25.0612
  XXY=            -22.7081  XXZ=              2.7933  XZZ=             -2.6758  YZZ=              2.3787
  YYZ=             -1.1582  XYZ=              3.7500
 Hexadecapole moment (field-independent basis, Debye-Ang**3):
 XXXX=          -3297.9435 YYYY=          -1280.3435 ZZZZ=           -258.2142 XXXY=           -173.1443
 XXXZ=             41.8088 YYYX=            -75.2990 YYYZ=             -2.3795 ZZZX=             -4.6681
 ZZZY=              3.1216 XXYY=           -722.5891 XXZZ=           -677.1525 YYZZ=           -269.7174
 XXYZ=              3.8147 YYXZ=             -8.9036 ZZXY=              3.6088
 N-N= 7.065346811372D+02 E-N=-2.676412425268D+03  KE= 5.384873553257D+02
 Calling FoFJK, ICntrl=      2127 FMM=F ISym2X=0 I1Cent= 0 IOpClX= 0 NMat=1 NMatS=1 NMatT=0.
 ***** Axes restored to original set *****
 -------------------------------------------------------------------
 Center     Atomic                   Forces (Hartrees/Bohr)
 Number     Number              X              Y              Z
 -------------------------------------------------------------------
      1        8          -0.009841956   -0.002955975    0.001262789
      2        6          -0.003091976   -0.022091389   -0.008591724
      3        6           0.007626752   -0.010804101   -0.006570942
      4        6          -0.001476751    0.006793518    0.001691273
      5        6           0.007994702   -0.003908380   -0.000200901
      6        6          -0.006603914    0.004936652   -0.003252423
      7        6           0.010068437    0.000157473    0.001364671
      8        6          -0.009946261   -0.001153997   -0.001870027
      9        6           0.009021952    0.000446897    0.001398293
     10        6          -0.004384864    0.006066756    0.002889318
     11        6           0.001074700   -0.005590071    0.000250425
     12        8          -0.010472375    0.013458285    0.008425216
     13        1           0.015199686    0.005677587   -0.001485823
     14        1          -0.003159672    0.004380396    0.000410552
     15        1          -0.002262251    0.002860617    0.003987946
     16        1           0.001085661    0.001161474   -0.001891563
     17        1           0.001704309   -0.000349780    0.001386596
     18        1          -0.000066220    0.000663662    0.004148386
     19        1          -0.002162071    0.002763360   -0.003293144
     20        1           0.004726161   -0.000791510   -0.001223167
     21        1          -0.003121742   -0.001160746    0.001691080
     22        1          -0.000639928   -0.004243716   -0.001243423
     23        1          -0.003032326    0.003593774    0.000372710
     24        1           0.003641024   -0.002440898    0.000039074
     25        1           0.001761902    0.003707723    0.000677078
     26        1          -0.000773594   -0.004435602    0.000478820
     27        1          -0.003382073    0.003436613   -0.000028029
     28        1           0.003426100   -0.002005225    0.001737944
     29        1          -0.002234181   -0.001014533   -0.003080481
     30        1          -0.003251105    0.001349645    0.000193396
     31        1           0.000918623    0.000923545    0.002563680
     32        1           0.001653253    0.000567946   -0.002237601
 -------------------------------------------------------------------
 Cartesian Forces:  Max     0.022091389 RMS     0.005056652

 GradGradGradGradGradGradGradGradGradGradGradGradGradGradGradGradGradGrad
 Berny optimization.
 FormGI is forming the generalized inverse of G from B-inverse, IUseBI=4.
 Internal  Forces:  Max     0.018650863 RMS     0.002898904
 Search for a local minimum.
 Step number   1 out of a maximum of  179
 All quantities printed in internal units (Hartrees-Bohrs-Radians)
 Mixed Optimization -- RFO/linear search
 Second derivative matrix not updated -- first step.
 ITU=  0
     Eigenvalues ---    0.00230   0.00230   0.00230   0.00230   0.00230
     Eigenvalues ---    0.00230   0.00242   0.00274   0.00401   0.00873
     Eigenvalues ---    0.02357   0.03089   0.03179   0.03228   0.03264
     Eigenvalues ---    0.03273   0.03412   0.03416   0.03827   0.04665
     Eigenvalues ---    0.04674   0.04690   0.04691   0.04704   0.04717
     Eigenvalues ---    0.04741   0.05196   0.05348   0.05459   0.08256
     Eigenvalues ---    0.08296   0.08534   0.08558   0.08567   0.08704
     Eigenvalues ---    0.08801   0.09616   0.12163   0.12191   0.12365
     Eigenvalues ---    0.12380   0.12397   0.12485   0.12569   0.12963
     Eigenvalues ---    0.16000   0.16000   0.16000   0.16000   0.21863
     Eigenvalues ---    0.21896   0.21907   0.21908   0.21908   0.21914
     Eigenvalues ---    0.21924   0.22006   0.25000   0.25000   0.27928
     Eigenvalues ---    0.28082   0.28156   0.28364   0.28429   0.28457
     Eigenvalues ---    0.28555   0.28769   0.29644   0.34513   0.34630
     Eigenvalues ---    0.34632   0.34634   0.34636   0.34637   0.34638
     Eigenvalues ---    0.34641   0.34648   0.34651   0.34652   0.34658
     Eigenvalues ---    0.34748   0.34753   0.34757   0.34786   0.34833
     Eigenvalues ---    0.34843   0.34855   0.55084   0.55960   0.94001
 RFO step:  Lambda=-4.50390545D-03 EMin= 2.30000000D-03
 Linear search not attempted -- first point.
 Iteration  1 RMS(Cart)=  0.10837969 RMS(Int)=  0.00093469
 Iteration  2 RMS(Cart)=  0.00191774 RMS(Int)=  0.00008507
 Iteration  3 RMS(Cart)=  0.00000071 RMS(Int)=  0.00008507
 Variable       Old X    -DE/DX   Delta X   Delta X   Delta X     New X
                                 (Linear)    (Quad)   (Total)
    R1        2.55057   0.00343   0.00000   0.00618   0.00618   2.55675
    R2        1.80989   0.01584   0.00000   0.02808   0.02808   1.83797
    R3        2.88678  -0.00933   0.00000  -0.03100  -0.03100   2.85578
    R4        2.31142  -0.01865   0.00000  -0.01975  -0.01975   2.29167
    R5        2.92297  -0.01090   0.00000  -0.03840  -0.03840   2.88457
    R6        2.05910   0.00459   0.00000   0.01299   0.01299   2.07210
    R7        2.05930   0.00453   0.00000   0.01282   0.01282   2.07212
    R8        2.91348  -0.00473   0.00000  -0.01643  -0.01643   2.89706
    R9        2.06078   0.00201   0.00000   0.00570   0.00570   2.06647
   R10        2.06473   0.00185   0.00000   0.00528   0.00528   2.07002
   R11        2.91959  -0.00208   0.00000  -0.00730  -0.00730   2.91229
   R12        2.06269   0.00411   0.00000   0.01173   0.01173   2.07441
   R13        2.06276   0.00453   0.00000   0.01291   0.01291   2.07567
   R14        2.91798  -0.00473   0.00000  -0.01653  -0.01653   2.90144
   R15        2.06280   0.00406   0.00000   0.01159   0.01159   2.07439
   R16        2.06271   0.00364   0.00000   0.01037   0.01037   2.07308
   R17        2.90941  -0.00376   0.00000  -0.01295  -0.01295   2.89647
   R18        2.06273   0.00440   0.00000   0.01254   0.01254   2.07528
   R19        2.06243   0.00451   0.00000   0.01285   0.01285   2.07528
   R20        2.91150  -0.00456   0.00000  -0.01579  -0.01579   2.89571
   R21        2.06262   0.00436   0.00000   0.01243   0.01243   2.07504
   R22        2.05947   0.00405   0.00000   0.01147   0.01147   2.07094
   R23        2.91210  -0.00339   0.00000  -0.01173  -0.01173   2.90037
   R24        2.06246   0.00440   0.00000   0.01255   0.01255   2.07501
   R25        2.06267   0.00466   0.00000   0.01327   0.01327   2.07594
   R26        2.90487  -0.00262   0.00000  -0.00897  -0.00897   2.89590
   R27        2.06250   0.00410   0.00000   0.01167   0.01167   2.07417
   R28        2.06234   0.00387   0.00000   0.01103   0.01103   2.07336
   R29        2.06085   0.00343   0.00000   0.00974   0.00974   2.07059
   R30        2.06024   0.00282   0.00000   0.00800   0.00800   2.06824
   R31        2.06071   0.00284   0.00000   0.00806   0.00806   2.06877
    A1        1.81740   0.00689   0.00000   0.04186   0.04186   1.85925
    A2        1.95037   0.00093   0.00000   0.00365   0.00365   1.95402
    A3        2.14924  -0.00478   0.00000  -0.01878  -0.01878   2.13045
    A4        2.18358   0.00385   0.00000   0.01513   0.01513   2.19871
    A5        1.99515  -0.00691   0.00000  -0.02807  -0.02794   1.96721
    A6        1.87224   0.00198   0.00000   0.00758   0.00771   1.87995
    A7        1.87371   0.00201   0.00000   0.00789   0.00802   1.88173
    A8        1.91976   0.00285   0.00000   0.01709   0.01710   1.93685
    A9        1.92173   0.00286   0.00000   0.01722   0.01722   1.93895
   A10        1.87684  -0.00271   0.00000  -0.02249  -0.02259   1.85425
   A11        1.96082  -0.00150   0.00000  -0.00846  -0.00845   1.95237
   A12        1.91184  -0.00042   0.00000  -0.00810  -0.00807   1.90377
   A13        1.91451  -0.00029   0.00000  -0.00729  -0.00727   1.90725
   A14        1.92497   0.00123   0.00000   0.01024   0.01017   1.93514
   A15        1.90357   0.00104   0.00000   0.00856   0.00848   1.91205
   A16        1.84450   0.00003   0.00000   0.00594   0.00583   1.85032
   A17        1.99279  -0.00063   0.00000  -0.00518  -0.00535   1.98744
   A18        1.88636   0.00008   0.00000   0.00769   0.00768   1.89404
   A19        1.92628  -0.00035   0.00000  -0.01383  -0.01404   1.91224
   A20        1.89395   0.00103   0.00000   0.01680   0.01681   1.91075
   A21        1.91845  -0.00036   0.00000  -0.01237  -0.01258   1.90587
   A22        1.83906   0.00034   0.00000   0.00918   0.00929   1.84835
   A23        2.01553  -0.00141   0.00000  -0.01100  -0.01137   2.00416
   A24        1.92644  -0.00064   0.00000  -0.01999  -0.02047   1.90598
   A25        1.88721   0.00116   0.00000   0.01912   0.01921   1.90642
   A26        1.92031   0.00000   0.00000  -0.01543  -0.01598   1.90434
   A27        1.87349   0.00048   0.00000   0.01356   0.01362   1.88711
   A28        1.83054   0.00068   0.00000   0.01877   0.01899   1.84953
   A29        2.00808  -0.00015   0.00000  -0.00295  -0.00302   2.00506
   A30        1.88642   0.00065   0.00000   0.00998   0.01000   1.89641
   A31        1.90965  -0.00064   0.00000  -0.01114  -0.01121   1.89844
   A32        1.90086  -0.00025   0.00000   0.00252   0.00251   1.90338
   A33        1.90875  -0.00005   0.00000  -0.00705  -0.00715   1.90160
   A34        1.84276   0.00051   0.00000   0.01016   0.01021   1.85297
   A35        1.96888  -0.00032   0.00000  -0.00097  -0.00098   1.96790
   A36        1.91282   0.00009   0.00000  -0.00204  -0.00205   1.91077
   A37        1.90342   0.00031   0.00000   0.00530   0.00529   1.90871
   A38        1.91090  -0.00014   0.00000  -0.00431  -0.00431   1.90659
   A39        1.90340   0.00028   0.00000   0.00459   0.00458   1.90798
   A40        1.86127  -0.00021   0.00000  -0.00258  -0.00257   1.85870
   A41        1.99089  -0.00013   0.00000  -0.00252  -0.00257   1.98832
   A42        1.90280  -0.00045   0.00000  -0.00079  -0.00079   1.90201
   A43        1.91495  -0.00039   0.00000  -0.00960  -0.00966   1.90529
   A44        1.89254   0.00080   0.00000   0.01142   0.01143   1.90396
   A45        1.91113  -0.00022   0.00000  -0.00600  -0.00608   1.90505
   A46        1.84579   0.00044   0.00000   0.00869   0.00870   1.85449
   A47        1.99204  -0.00026   0.00000  -0.00332  -0.00337   1.98866
   A48        1.91484  -0.00058   0.00000  -0.01090  -0.01095   1.90389
   A49        1.89826  -0.00010   0.00000   0.00176   0.00177   1.90004
   A50        1.91166   0.00005   0.00000  -0.00408  -0.00417   1.90749
   A51        1.89655   0.00049   0.00000   0.00834   0.00835   1.90490
   A52        1.84456   0.00046   0.00000   0.00950   0.00952   1.85408
   A53        1.94385  -0.00110   0.00000  -0.00830  -0.00831   1.93554
   A54        1.94992   0.00006   0.00000  -0.00006  -0.00009   1.94983
   A55        1.93462   0.00032   0.00000   0.00396   0.00396   1.93858
   A56        1.88346   0.00014   0.00000  -0.00283  -0.00285   1.88060
   A57        1.87725   0.00050   0.00000   0.00382   0.00383   1.88109
   A58        1.87141   0.00014   0.00000   0.00383   0.00382   1.87524
    D1       -3.14126   0.00002   0.00000   0.00167   0.00164  -3.13962
    D2        0.00025  -0.00002   0.00000  -0.00170  -0.00167  -0.00142
    D3       -3.14143  -0.00000   0.00000   0.00087   0.00086  -3.14058
    D4        1.00835  -0.00058   0.00000  -0.00818  -0.00820   1.00015
    D5       -1.00444   0.00059   0.00000   0.01023   0.01022  -0.99422
    D6        0.00024   0.00004   0.00000   0.00432   0.00433   0.00457
    D7       -2.13316  -0.00054   0.00000  -0.00473  -0.00473  -2.13788
    D8        2.13724   0.00063   0.00000   0.01368   0.01370   2.15093
    D9        3.14062  -0.00005   0.00000  -0.00135  -0.00135   3.13927
   D10       -0.99682   0.00020   0.00000   0.00012   0.00013  -0.99669
   D11        1.02032  -0.00016   0.00000  -0.00145  -0.00146   1.01886
   D12       -1.03533  -0.00014   0.00000   0.00175   0.00168  -1.03364
   D13        1.11042   0.00011   0.00000   0.00321   0.00316   1.11358
   D14        3.12755  -0.00025   0.00000   0.00165   0.00158   3.12913
   D15        1.03001   0.00003   0.00000  -0.00488  -0.00482   1.02519
   D16       -3.10743   0.00028   0.00000  -0.00341  -0.00334  -3.11077
   D17       -1.09029  -0.00009   0.00000  -0.00497  -0.00492  -1.09521
   D18        3.12266  -0.00073   0.00000  -0.01557  -0.01553   3.10713
   D19       -1.05134   0.00023   0.00000   0.00799   0.00801  -1.04334
   D20        0.95138   0.00050   0.00000   0.01589   0.01583   0.96721
   D21        0.98432  -0.00004   0.00000  -0.00661  -0.00652   0.97780
   D22        3.09350   0.00092   0.00000   0.01695   0.01702   3.11051
   D23       -1.18696   0.00119   0.00000   0.02485   0.02484  -1.16212
   D24       -1.03397  -0.00136   0.00000  -0.02444  -0.02444  -1.05841
   D25        1.07520  -0.00040   0.00000  -0.00088  -0.00091   1.07430
   D26        3.07793  -0.00013   0.00000   0.00702   0.00692   3.08485
   D27       -1.63961   0.00153   0.00000   0.07611   0.07598  -1.56363
   D28        0.55199  -0.00013   0.00000   0.02927   0.02938   0.58137
   D29        2.54513   0.00098   0.00000   0.05168   0.05161   2.59674
   D30        2.53862   0.00110   0.00000   0.05759   0.05746   2.59608
   D31       -1.55297  -0.00056   0.00000   0.01074   0.01086  -1.54211
   D32        0.44017   0.00054   0.00000   0.03315   0.03309   0.47326
   D33        0.53584   0.00031   0.00000   0.04400   0.04394   0.57978
   D34        2.72744  -0.00135   0.00000  -0.00285  -0.00266   2.72479
   D35       -1.56260  -0.00024   0.00000   0.01956   0.01957  -1.54303
   D36        1.09803  -0.00126   0.00000  -0.04057  -0.04047   1.05757
   D37       -3.05693  -0.00119   0.00000  -0.03177  -0.03168  -3.08861
   D38       -1.05851  -0.00057   0.00000  -0.02022  -0.02017  -1.07868
   D39       -1.09671   0.00072   0.00000   0.00848   0.00839  -1.08831
   D40        1.03152   0.00079   0.00000   0.01727   0.01718   1.04870
   D41        3.02994   0.00141   0.00000   0.02882   0.02869   3.05863
   D42       -3.07924  -0.00033   0.00000  -0.01312  -0.01308  -3.09233
   D43       -0.95102  -0.00026   0.00000  -0.00433  -0.00430  -0.95532
   D44        1.04740   0.00036   0.00000   0.00723   0.00721   1.05461
   D45        3.01983   0.00047   0.00000   0.03154   0.03152   3.05135
   D46        0.88588   0.00080   0.00000   0.03920   0.03919   0.92506
   D47       -1.14569   0.00082   0.00000   0.04044   0.04043  -1.10526
   D48        0.89942  -0.00009   0.00000   0.01867   0.01867   0.91809
   D49       -1.23453   0.00024   0.00000   0.02634   0.02634  -1.20819
   D50        3.01709   0.00026   0.00000   0.02758   0.02758   3.04468
   D51       -1.10634  -0.00053   0.00000   0.00902   0.00904  -1.09730
   D52        3.04290  -0.00020   0.00000   0.01669   0.01670   3.05960
   D53        1.01133  -0.00018   0.00000   0.01793   0.01795   1.02928
   D54       -3.08851  -0.00030   0.00000  -0.01261  -0.01259  -3.10111
   D55       -0.97048   0.00032   0.00000  -0.00019  -0.00019  -0.97067
   D56        1.04335   0.00038   0.00000   0.00447   0.00445   1.04780
   D57       -0.95349  -0.00050   0.00000  -0.01900  -0.01898  -0.97247
   D58        1.16455   0.00012   0.00000  -0.00658  -0.00658   1.15797
   D59       -3.10481   0.00018   0.00000  -0.00192  -0.00194  -3.10674
   D60        1.07699  -0.00067   0.00000  -0.02192  -0.02190   1.05509
   D61       -3.08816  -0.00005   0.00000  -0.00950  -0.00951  -3.09767
   D62       -1.07433   0.00001   0.00000  -0.00484  -0.00486  -1.07919
   D63       -1.14521   0.00064   0.00000   0.03077   0.03075  -1.11446
   D64        1.00755   0.00008   0.00000   0.01460   0.01462   1.02216
   D65        3.01733   0.00026   0.00000   0.02099   0.02098   3.03831
   D66        3.01427   0.00072   0.00000   0.02513   0.02510   3.03937
   D67       -1.11616   0.00015   0.00000   0.00895   0.00897  -1.10719
   D68        0.89362   0.00033   0.00000   0.01534   0.01533   0.90895
   D69        1.00818  -0.00013   0.00000   0.01178   0.01177   1.01995
   D70       -3.12225  -0.00069   0.00000  -0.00440  -0.00437  -3.12661
   D71       -1.11247  -0.00051   0.00000   0.00199   0.00199  -1.11047
   D72       -0.97900  -0.00014   0.00000  -0.00955  -0.00955  -0.98855
   D73        1.12870  -0.00068   0.00000  -0.01899  -0.01898   1.10972
   D74       -3.06842  -0.00025   0.00000  -0.01152  -0.01151  -3.07993
   D75       -3.13348   0.00077   0.00000   0.01029   0.01028  -3.12320
   D76       -1.02577   0.00022   0.00000   0.00085   0.00085  -1.02493
   D77        1.06029   0.00066   0.00000   0.00832   0.00832   1.06861
   D78        1.14260  -0.00008   0.00000  -0.00340  -0.00341   1.13919
   D79       -3.03288  -0.00062   0.00000  -0.01284  -0.01284  -3.04572
   D80       -0.94682  -0.00019   0.00000  -0.00537  -0.00536  -0.95219
         Item               Value     Threshold  Converged?
 Maximum Force            0.018651     0.000450     NO 
 RMS     Force            0.002899     0.000300     NO 
 Maximum Displacement     0.495448     0.001800     NO 
 RMS     Displacement     0.108737     0.001200     NO 
 Predicted change in Energy=-2.359109D-03
 GradGradGradGradGradGradGradGradGradGradGradGradGradGradGradGradGradGrad

                          Input orientation:                          
 ---------------------------------------------------------------------
 Center     Atomic      Atomic             Coordinates (Angstroms)
 Number     Number       Type             X           Y           Z
 ---------------------------------------------------------------------
      1          8           0        5.462855    0.713739   -0.241021
      2          6           0        5.164965   -0.534543   -0.669494
      3          6           0        3.726715   -0.901287   -0.385403
      4          6           0        3.372177   -2.307806   -0.860850
      5          6           0        1.910862   -2.660618   -0.560275
      6          6           0        1.489364   -4.054538   -1.064634
      7          6           0        0.937243   -4.082136   -2.497039
      8          6           0        1.915897   -3.602493   -3.574759
      9          6           0        1.362419   -3.768303   -4.994002
     10          6           0        2.343086   -3.348398   -6.097457
     11          6           0        2.703727   -1.859160   -6.075227
     12          8           0        5.985607   -1.240606   -1.215999
     13          1           0        6.397319    0.866848   -0.463080
     14          1           0        3.089438   -0.151288   -0.868838
     15          1           0        3.560360   -0.795701    0.693269
     16          1           0        3.579601   -2.386018   -1.931675
     17          1           0        4.032311   -3.032111   -0.371443
     18          1           0        1.753775   -2.600937    0.524520
     19          1           0        1.250928   -1.901856   -1.002135
     20          1           0        2.346071   -4.737466   -0.996474
     21          1           0        0.722716   -4.464319   -0.395457
     22          1           0        0.619799   -5.106967   -2.731491
     23          1           0        0.030376   -3.464143   -2.538207
     24          1           0        2.858709   -4.158477   -3.486812
     25          1           0        2.159099   -2.548090   -3.401345
     26          1           0        1.078623   -4.818063   -5.146212
     27          1           0        0.438102   -3.182677   -5.091335
     28          1           0        3.260142   -3.944935   -6.008623
     29          1           0        1.907758   -3.598637   -7.072990
     30          1           0        1.803710   -1.237991   -6.143769
     31          1           0        3.230121   -1.583625   -5.156071
     32          1           0        3.354225   -1.599099   -6.916473
 ---------------------------------------------------------------------
                    Distance matrix (angstroms):
                    1          2          3          4          5
     1  O    0.000000
     2  C    1.352973   0.000000
     3  C    2.375571   1.511216   0.000000
     4  C    3.726238   2.528866   1.526447   0.000000
     5  C    4.909670   3.888613   2.534393   1.533057   0.000000
     6  C    6.261264   5.104561   3.925567   2.576351   1.541120
     7  C    6.969304   5.813688   4.728420   3.428450   2.592239
     8  C    6.505734   5.330039   4.554949   3.340998   3.158207
     9  C    7.713177   6.604387   5.920208   4.822357   4.602792
    10  C    7.780216   6.733763   6.366345   5.437271   5.596450
[...]
 Alpha virt. eigenvalues --    4.24497   4.25670   4.27726   4.31255   4.34072
 Alpha virt. eigenvalues --    4.36412   4.38415   4.41398   4.43486   4.46954
 Alpha virt. eigenvalues --    4.47898   4.49910   4.52592   4.53370   4.53641
 Alpha virt. eigenvalues --    4.56455   4.58383   4.59091   4.63113   4.63378
 Alpha virt. eigenvalues --    4.64379   4.66785   4.67486   4.71281   4.74099
 Alpha virt. eigenvalues --    4.75504   4.79356   4.81464   4.83494   4.99759
 Alpha virt. eigenvalues --    5.04271   5.06814   5.10625   5.16970   5.21683
 Alpha virt. eigenvalues --    5.22326   5.38608   5.41615   5.50155   5.59901
 Alpha virt. eigenvalues --    5.75211   5.84516   5.86375   6.15443   6.19253
 Alpha virt. eigenvalues --    6.32393   6.33976   6.43999   6.48721   6.64841
 Alpha virt. eigenvalues --    6.68550   6.73945   6.81113   6.88557   7.07335
 Alpha virt. eigenvalues --    7.09539   7.27303  22.42278  22.47195  22.52558
 Alpha virt. eigenvalues --   22.57493  22.59670  22.60209  22.62430  22.64173
 Alpha virt. eigenvalues --   22.67425  23.26713  43.93537  44.01070
          Condensed to atoms (all electrons):
               1          2          3          4          5          6
     1  O    7.934239   0.396203  -0.141168   0.011706  -0.000427   0.000011
     2  C    0.396203   4.431984   0.220232  -0.004240   0.000270   0.000265
     3  C   -0.141168   0.220232   5.524332   0.109328  -0.013560   0.005961
     4  C    0.011706  -0.004240   0.109328   5.377077   0.148006  -0.022547
     5  C   -0.000427   0.000270  -0.013560   0.148006   5.345890   0.190251
     6  C    0.000011   0.000265   0.005961  -0.022547   0.190251   5.167572
     7  C   -0.000001  -0.000008  -0.001302   0.001303  -0.035985   0.251159
     8  C    0.000000   0.000007   0.000656   0.001529   0.018859  -0.047008
     9  C   -0.000000  -0.000016  -0.000047   0.002089  -0.002409   0.010956
    10  C   -0.000000  -0.000002   0.000018  -0.000271   0.000317  -0.001031
    11  C    0.000000   0.000004  -0.000062   0.000271  -0.000173   0.000206
    12  O   -0.088000   0.671697  -0.123847   0.014371   0.000502   0.000173
    13  H    0.290663  -0.032340   0.024364  -0.002106   0.000085  -0.000003
    14  H    0.003858  -0.014310   0.397615  -0.036505  -0.002009   0.000111
    15  H    0.004109  -0.016243   0.403766  -0.040025  -0.004657  -0.000157
    16  H    0.000306  -0.002946  -0.047361   0.442140  -0.054577   0.001563
    17  H    0.000109  -0.005635  -0.023859   0.415949  -0.040893  -0.005230
    18  H   -0.000010   0.000080  -0.007546  -0.036101   0.422066  -0.033188
    19  H   -0.000010  -0.000341  -0.002455  -0.052713   0.423597  -0.049098
    20  H    0.000000  -0.000052   0.000123  -0.003187  -0.065077   0.442192
    21  H   -0.000000   0.000023  -0.000503   0.005987  -0.046486   0.442789
    22  H    0.000000  -0.000002   0.000069  -0.000982   0.011857  -0.050746
    23  H    0.000000   0.000007  -0.000050   0.002293  -0.016312  -0.033353
    24  H    0.000000   0.000047   0.000079   0.000157  -0.005663   0.006571
    25  H   -0.000000  -0.000237   0.001222  -0.014781   0.015866  -0.015420
    26  H    0.000000  -0.000000   0.000002  -0.000084   0.000048  -0.000288
    27  H    0.000000   0.000000   0.000003   0.000004   0.000057  -0.000236
    28  H    0.000000  -0.000000   0.000002  -0.000000   0.000032  -0.000058
    29  H   -0.000000   0.000000  -0.000000   0.000005  -0.000009   0.000043
    30  H   -0.000000  -0.000001   0.000006  -0.000028   0.000023  -0.000011
    31  H   -0.000002   0.000081  -0.000094   0.000324  -0.000226   0.000154
    32  H   -0.000000   0.000000   0.000001  -0.000006   0.000006  -0.000006
               7          8          9         10         11         12
     1  O   -0.000001   0.000000  -0.000000  -0.000000   0.000000  -0.088000
     2  C   -0.000008   0.000007  -0.000016  -0.000002   0.000004   0.671697
     3  C   -0.001302   0.000656  -0.000047   0.000018  -0.000062  -0.123847
     4  C    0.001303   0.001529   0.002089  -0.000271   0.000271   0.014371
     5  C   -0.035985   0.018859  -0.002409   0.000317  -0.000173   0.000502
     6  C    0.251159  -0.047008   0.010956  -0.001031   0.000206   0.000173
     7  C    5.199638   0.203581  -0.045464   0.009908  -0.000132  -0.000044
     8  C    0.203581   5.407260   0.194336  -0.050915   0.018894  -0.000125
     9  C   -0.045464   0.194336   5.213357   0.260111  -0.061273  -0.000009
    10  C    0.009908  -0.050915   0.260111   5.108094   0.255483   0.000004
    11  C   -0.000132   0.018894  -0.061273   0.255483   5.093771  -0.000026
    12  O   -0.000044  -0.000125  -0.000009   0.000004  -0.000026   7.838048
    13  H    0.000000   0.000000   0.000000  -0.000000   0.000000   0.005819
    14  H   -0.000237   0.000372  -0.000006  -0.000003   0.000017   0.001607
    15  H    0.000027  -0.000072  -0.000000   0.000000  -0.000000   0.002427
    16  H   -0.000494  -0.002505   0.001360  -0.000135  -0.000178   0.008174
    17  H    0.001450  -0.001126  -0.000063   0.000008  -0.000004   0.002862
    18  H    0.004602   0.000080   0.000087  -0.000004   0.000001   0.000012
    19  H    0.007239  -0.008809  -0.000487   0.000043   0.000014   0.000016
    20  H   -0.039142  -0.010611  -0.000807  -0.000002   0.000016  -0.000028
    21  H   -0.056005   0.011527  -0.000653   0.000032  -0.000001   0.000001
    22  H    0.440653  -0.051211  -0.004787   0.000090  -0.000138  -0.000000
    23  H    0.441363  -0.063090  -0.003937  -0.000416   0.000188   0.000000
    24  H   -0.045266   0.409579  -0.032597  -0.000072  -0.002122   0.000053
    25  H   -0.036820   0.417595  -0.033586  -0.007305  -0.001279  -0.000113
    26  H   -0.006275  -0.048340   0.431831  -0.040613   0.009005   0.000000
    27  H   -0.002037  -0.068696   0.444364  -0.036922  -0.010012   0.000000
    28  H   -0.000343  -0.013334  -0.036909   0.430411  -0.054166  -0.000000
    29  H   -0.000602   0.014189  -0.062470   0.437230  -0.038693   0.000000
    30  H   -0.000196  -0.005520   0.006657  -0.048926   0.406345   0.000000
    31  H    0.000498   0.009425  -0.015970  -0.040256   0.417994   0.000085
    32  H    0.000050  -0.000868   0.011292  -0.041432   0.414210   0.000001
              13         14         15         16         17         18
     1  O    0.290663   0.003858   0.004109   0.000306   0.000109  -0.000010
     2  C   -0.032340  -0.014310  -0.016243  -0.002946  -0.005635   0.000080
     3  C    0.024364   0.397615   0.403766  -0.047361  -0.023859  -0.007546
     4  C   -0.002106  -0.036505  -0.040025   0.442140   0.415949  -0.036101
     5  C    0.000085  -0.002009  -0.004657  -0.054577  -0.040893   0.422066
     6  C   -0.000003   0.000111  -0.000157   0.001563  -0.005230  -0.033188
     7  C    0.000000  -0.000237   0.000027  -0.000494   0.001450   0.004602
     8  C    0.000000   0.000372  -0.000072  -0.002505  -0.001126   0.000080
     9  C    0.000000  -0.000006  -0.000000   0.001360  -0.000063   0.000087
    10  C   -0.000000  -0.000003   0.000000  -0.000135   0.000008  -0.000004
    11  C    0.000000   0.000017  -0.000000  -0.000178  -0.000004   0.000001
    12  O    0.005819   0.001607   0.002427   0.008174   0.002862   0.000012
    13  H    0.379575  -0.000623  -0.000596  -0.000045  -0.000024   0.000001
    14  H   -0.000623   0.496905  -0.019759  -0.003836   0.004766   0.000871
    15  H   -0.000596  -0.019759   0.494368   0.006029  -0.002667   0.001243
    16  H   -0.000045  -0.003836   0.006029   0.508314  -0.019718   0.004588
    17  H   -0.000024   0.004766  -0.002667  -0.019718   0.511113  -0.004103
    18  H    0.000001   0.000871   0.001243   0.004588  -0.004103   0.534920
    19  H    0.000000   0.000927   0.000567  -0.000254   0.005841  -0.024360
    20  H    0.000000  -0.000026   0.000039   0.000793   0.001462   0.000957
    21  H    0.000000  -0.000004  -0.000007  -0.000290   0.000469  -0.011214
    22  H   -0.000000  -0.000003   0.000001   0.000042  -0.000040  -0.000168
    23  H    0.000000   0.000024  -0.000006  -0.000207   0.000009  -0.000252
    24  H   -0.000000   0.000017  -0.000012  -0.005392   0.000451  -0.000232
    25  H    0.000000   0.000079   0.000006  -0.003930   0.000524   0.000377
    26  H   -0.000000   0.000000   0.000000  -0.000013   0.000002   0.000002
    27  H   -0.000000   0.000001  -0.000000  -0.000070   0.000002  -0.000008
    28  H    0.000000   0.000000  -0.000000   0.000033   0.000000   0.000000
    29  H    0.000000  -0.000000   0.000000   0.000004  -0.000000   0.000000
    30  H   -0.000000   0.000000  -0.000000   0.000033   0.000000   0.000000
    31  H   -0.000000   0.000015   0.000002   0.000017   0.000003  -0.000001
    32  H   -0.000000  -0.000000  -0.000000  -0.000006  -0.000000  -0.000000
              19         20         21         22         23         24
     1  O   -0.000010   0.000000  -0.000000   0.000000   0.000000   0.000000
     2  C   -0.000341  -0.000052   0.000023  -0.000002   0.000007   0.000047
     3  C   -0.002455   0.000123  -0.000503   0.000069  -0.000050   0.000079
     4  C   -0.052713  -0.003187   0.005987  -0.000982   0.002293   0.000157
     5  C    0.423597  -0.065077  -0.046486   0.011857  -0.016312  -0.005663
     6  C   -0.049098   0.442192   0.442789  -0.050746  -0.033353   0.006571
     7  C    0.007239  -0.039142  -0.056005   0.440653   0.441363  -0.045266
     8  C   -0.008809  -0.010611   0.011527  -0.051211  -0.063090   0.409579
     9  C   -0.000487  -0.000807  -0.000653  -0.004787  -0.003937  -0.032597
    10  C    0.000043  -0.000002   0.000032   0.000090  -0.000416  -0.000072
    11  C    0.000014   0.000016  -0.000001  -0.000138   0.000188  -0.002122
    12  O    0.000016  -0.000028   0.000001  -0.000000   0.000000   0.000053
    13  H    0.000000   0.000000   0.000000  -0.000000   0.000000  -0.000000
    14  H    0.000927  -0.000026  -0.000004  -0.000003   0.000024   0.000017
    15  H    0.000567   0.000039  -0.000007   0.000001  -0.000006  -0.000012
    16  H   -0.000254   0.000793  -0.000290   0.000042  -0.000207  -0.005392
    17  H    0.005841   0.001462   0.000469  -0.000040   0.000009   0.000451
    18  H   -0.024360   0.000957  -0.011214  -0.000168  -0.000252  -0.000232
    19  H    0.536471   0.006331   0.002694  -0.000057   0.003461   0.001012
    20  H    0.006331   0.526498  -0.020036  -0.002397   0.006097   0.001459
    21  H    0.002694  -0.020036   0.537489  -0.006764  -0.003179   0.000236
    22  H   -0.000057  -0.002397  -0.006764   0.538307  -0.022137  -0.002255
    23  H    0.003461   0.006097  -0.003179  -0.022137   0.533606   0.006373
    24  H    0.001012   0.001459   0.000236  -0.002255   0.006373   0.536601
    25  H   -0.001489   0.001441  -0.000646   0.006589  -0.003008  -0.033827
    26  H    0.000003   0.000158  -0.000052   0.002520   0.000818  -0.004076
    27  H    0.000064  -0.000024   0.000018   0.000662   0.001627   0.006746
    28  H   -0.000002  -0.000009  -0.000001   0.000157  -0.000037   0.002086
    29  H   -0.000001  -0.000001  -0.000000  -0.000058   0.000014   0.000166
    30  H    0.000004  -0.000000  -0.000000   0.000018  -0.000015   0.000182
    31  H    0.000030  -0.000005   0.000002  -0.000042   0.000023   0.000717
    32  H   -0.000000   0.000000   0.000000   0.000003  -0.000005  -0.000109
              25         26         27         28         29         30
     1  O   -0.000000   0.000000   0.000000   0.000000  -0.000000  -0.000000
     2  C   -0.000237  -0.000000   0.000000  -0.000000   0.000000  -0.000001
     3  C    0.001222   0.000002   0.000003   0.000002  -0.000000   0.000006
     4  C   -0.014781  -0.000084   0.000004  -0.000000   0.000005  -0.000028
     5  C    0.015866   0.000048   0.000057   0.000032  -0.000009   0.000023
     6  C   -0.015420  -0.000288  -0.000236  -0.000058   0.000043  -0.000011
     7  C   -0.036820  -0.006275  -0.002037  -0.000343  -0.000602  -0.000196
     8  C    0.417595  -0.048340  -0.068696  -0.013334   0.014189  -0.005520
     9  C   -0.033586   0.431831   0.444364  -0.036909  -0.062470   0.006657
    10  C   -0.007305  -0.040613  -0.036922   0.430411   0.437230  -0.048926
    11  C   -0.001279   0.009005  -0.010012  -0.054166  -0.038693   0.406345
    12  O   -0.000113   0.000000   0.000000  -0.000000   0.000000   0.000000
    13  H    0.000000  -0.000000  -0.000000   0.000000   0.000000  -0.000000
    14  H    0.000079   0.000000   0.000001   0.000000  -0.000000   0.000000
    15  H    0.000006   0.000000  -0.000000  -0.000000   0.000000  -0.000000
    16  H   -0.003930  -0.000013  -0.000070   0.000033   0.000004   0.000033
    17  H    0.000524   0.000002   0.000002   0.000000  -0.000000   0.000000
    18  H    0.000377   0.000002  -0.000008   0.000000   0.000000   0.000000
    19  H   -0.001489   0.000003   0.000064  -0.000002  -0.000001   0.000004
    20  H    0.001441   0.000158  -0.000024  -0.000009  -0.000001  -0.000000
    21  H   -0.000646  -0.000052   0.000018  -0.000001  -0.000000  -0.000000
    22  H    0.006589   0.002520   0.000662   0.000157  -0.000058   0.000018
    23  H   -0.003008   0.000818   0.001627  -0.000037   0.000014  -0.000015
    24  H   -0.033827  -0.004076   0.006746   0.002086   0.000166   0.000182
    25  H    0.571115   0.006641  -0.003771   0.001452  -0.000591   0.000839
    26  H    0.006641   0.545933  -0.024225  -0.002631  -0.006999   0.000171
    27  H   -0.003771  -0.024225   0.541278   0.006718  -0.002767   0.002274
    28  H    0.001452  -0.002631   0.006718   0.554540  -0.024660   0.007680
    29  H   -0.000591  -0.006999  -0.002767  -0.024660   0.552967  -0.003413
    30  H    0.000839   0.000171   0.002274   0.007680  -0.003413   0.551829
    31  H   -0.008721  -0.000665   0.001416  -0.003607   0.006306  -0.031747
    32  H    0.000439  -0.000292  -0.000277  -0.003678  -0.005552  -0.022978
              31         32
     1  O   -0.000002  -0.000000
     2  C    0.000081   0.000000
     3  C   -0.000094   0.000001
     4  C    0.000324  -0.000006
     5  C   -0.000226   0.000006
     6  C    0.000154  -0.000006
     7  C    0.000498   0.000050
     8  C    0.009425  -0.000868
     9  C   -0.015970   0.011292
    10  C   -0.040256  -0.041432
    11  C    0.417994   0.414210
    12  O    0.000085   0.000001
    13  H   -0.000000  -0.000000
    14  H    0.000015  -0.000000
    15  H    0.000002  -0.000000
    16  H    0.000017  -0.000006
    17  H    0.000003  -0.000000
    18  H   -0.000001  -0.000000
    19  H    0.000030  -0.000000
    20  H   -0.000005   0.000000
    21  H    0.000002   0.000000
    22  H   -0.000042   0.000003
    23  H    0.000023  -0.000005
    24  H    0.000717  -0.000109
    25  H   -0.008721   0.000439
    26  H   -0.000665  -0.000292
    27  H    0.001416  -0.000277
    28  H   -0.003607  -0.003678
    29  H    0.006306  -0.005552
    30  H   -0.031747  -0.022978
    31  H    0.544431  -0.023234
    32  H   -0.023234   0.528553
 Mulliken charges:
               1
     1  O   -0.411588
     2  C    0.355475
     3  C   -0.325926
     4  C   -0.318962
     5  C   -0.289272
     6  C   -0.261599
     7  C   -0.291119
     8  C   -0.335659
     9  C   -0.274949
    10  C   -0.233448
    11  C   -0.448160
    12  O   -0.333659
    13  H    0.335227
    14  H    0.170133
    15  H    0.171616
    16  H    0.168564
    17  H    0.158342
    18  H    0.147302
    19  H    0.151761
    20  H    0.153839
    21  H    0.144573
    22  H    0.140821
    23  H    0.150100
    24  H    0.159091
    25  H    0.141339
    26  H    0.137422
    27  H    0.143810
    28  H    0.136323
    29  H    0.134893
    30  H    0.136775
    31  H    0.143047
    32  H    0.143889
 Sum of Mulliken charges =  -0.00000
 Mulliken charges with hydrogens summed into heavy atoms:
               1
     1  O   -0.076361
     2  C    0.355475
     3  C    0.015823
     4  C    0.007944
     5  C    0.009792
     6  C    0.036813
     7  C   -0.000199
     8  C   -0.035228
     9  C    0.006282
    10  C    0.037768
    11  C   -0.024449
    12  O   -0.333659
 Electronic spatial extent (au):  <R**2>=           3790.4103
 Charge=             -0.0000 electrons
 Dipole moment (field-independent basis, Debye):
    X=              0.0918    Y=              0.8099    Z=             -1.2262  Tot=              1.4724
 Quadrupole moment (field-independent basis, Debye-Ang):
   XX=            -73.3578   YY=            -75.9130   ZZ=            -80.8657
   XY=             -0.6063   XZ=             -1.9909   YZ=              1.9960
 Traceless Quadrupole moment (field-independent basis, Debye-Ang):
   XX=              3.3544   YY=              0.7992   ZZ=             -4.1535
   XY=             -0.6063   XZ=             -1.9909   YZ=              1.9960
 Octapole moment (field-independent basis, Debye-Ang**2):
  XXX=             63.1857  YYY=            -13.2349  ZZZ=             -1.6362  XYY=             23.9525
  XXY=            -22.6948  XXZ=              5.3525  XZZ=             -2.3314  YZZ=              2.7372
  YYZ=             -1.3759  XYZ=              3.0758
 Hexadecapole moment (field-independent basis, Debye-Ang**3):
 XXXX=          -3245.2083 YYYY=          -1315.0317 ZZZZ=           -262.6021 XXXY=           -166.0333
 XXXZ=             49.9601 YYYX=            -68.9188 YYYZ=             -4.1280 ZZZX=             -4.4052
 ZZZY=              3.2593 XXYY=           -711.3306 XXZZ=           -659.5982 YYZZ=           -279.4476
 XXYZ=              3.0175 YYXZ=             -9.7730 ZZXY=              3.3637
 N-N= 7.122150633457D+02 E-N=-2.689361574280D+03  KE= 5.405744233877D+02
 Unable to Open any file for archive entry.
 1\1\GINC-NOTCH214\SP\RM062X\def2TZVP\C10H20O2\U6032257\05-Feb-2022\0\\
 # M062X/def2tzvp int=(grid=ultrafine) nmr=giao guess=read geom=check\\
 Ac1.xyz\\0,1\O,0,5.4853931755,0.708312379,-0.0842553972\C,0,5.18518893
 15,-0.5114625934,-0.5983710811\C,0,3.7446250133,-0.884163385,-0.339614
 9628\C,0,3.3959104661,-2.289197642,-0.8240957335\C,0,1.9255616438,-2.6
 423314221,-0.5738809872\C,0,1.5123343778,-4.039654206,-1.0774417601\C,
 0,0.9565002258,-4.0819358466,-2.5088234715\C,0,1.9145501363,-3.6090117
 286,-3.6062081216\C,0,1.3360638992,-3.7818509063,-5.0142373884\C,0,2.2
 939985564,-3.3768178961,-6.1430545615\C,0,2.6759479192,-1.8935548039,-
 6.1368912189\O,0,6.0003287089,-1.1835102382,-1.1910002089\H,0,6.418965
 9898,0.8672683791,-0.303489279\H,0,3.1169649895,-0.1289893297,-0.83095
 59757\H,0,3.5524186436,-0.7674020231,0.7341423242\H,0,3.6442376266,-2.
 3694448674,-1.8852918022\H,0,4.0388190124,-3.0157904559,-0.3139659484\
 H,0,1.7372506321,-2.5754539538,0.5054915656\H,0,1.2784036706,-1.883146
 0281,-1.0360723865\H,0,2.3709438024,-4.720379395,-0.9979626544\H,0,0.7
 441486672,-4.4466526354,-0.409377906\H,0,0.6453351775,-5.1116143971,-2
 .73090006\H,0,0.0409545021,-3.474992951,-2.5516283371\H,0,2.8610661545
 ,-4.1632127511,-3.5320524911\H,0,2.1633421538,-2.5547115441,-3.4437048
 855\H,0,1.0447746801,-4.8316522574,-5.1521093778\H,0,0.4096334174,-3.1
 956879554,-5.0978851749\H,0,3.2043642913,-3.9878057161,-6.0786512631\H
 ,0,1.8292625245,-3.6234170597,-7.1057828488\H,0,1.7832883846,-1.258364
 9463,-6.176119187\H,0,3.2364234052,-1.6221444559,-5.2369786626\H,0,3.3
 010992208,-1.6429273674,-6.9996307571\\Version=ES64L-G16RevC.01\State=
 1-A\HF=-543.5403781\RMSD=2.701e-09\Dipole=-0.4765921,0.2220199,0.24323
 07\Quadrupole=-2.4017657,1.2700019,1.1317638,2.7216691,0.6593667,0.690
 8518\PG=C01 [X(C10H20O2)]\\@
 The archive entry for this job was punched.


 ORIGINALITY CONSISTS NOT IN SAYING WHAT NO ONE HAS EVER SAID BEFORE, 
 BUT IN SAYING WHAT YOU THINK YOUR SELF.

                                    -- JAMES F. STEPHEN
 Job cpu time:       0 days  0 hours 41 minutes 46.8 seconds.
 Elapsed time:       0 days  0 hours  0 minutes 58.5 seconds.
 File lengths (MBytes):  RWF=    140 Int=      0 D2E=      0 Chk=     24 Scr=      1
 Normal termination of Gaussian 16 at Sat Feb  5 09:01:56 2022.
