 Entering Gaussian System, Link 0=/uufs/chpc.utah.edu/sys/installdir/gaussian16/C01/AVX2/g16/g16
 Input=Ac2_conf-5.com
 Output=Ac2_conf-5.log
 Initial command:
 /uufs/chpc.utah.edu/sys/installdir/gaussian16/C01/AVX2/g16/l1.exe "/scratch/general/lustre/u6032257/3867922/notchpeak.peaks/Gau-58165.inp" -scrdir="/scratch/general/lustre/u6032257/3867922/notchpeak.peaks/"
 Entering Link 1 = /uufs/chpc.utah.edu/sys/installdir/gaussian16/C01/AVX2/g16/l1.exe PID=     58167.
  
 Copyright (c) 1988-2019, Gaussian, Inc.  All Rights Reserved.
  
 This is part of the Gaussian(R) 16 program.  It is based on
 the Gaussian(R) 09 system (copyright 2009, Gaussian, Inc.),
 the Gaussian(R) 03 system (copyright 2003, Gaussian, Inc.),
 the Gaussian(R) 98 system (copyright 1998, Gaussian, Inc.),
 the Gaussian(R) 94 system (copyright 1995, Gaussian, Inc.),
 the Gaussian 92(TM) system (copyright 1992, Gaussian, Inc.),
 the Gaussian 90(TM) system (copyright 1990, Gaussian, Inc.),
 the Gaussian 88(TM) system (copyright 1988, Gaussian, Inc.),
 the Gaussian 86(TM) system (copyright 1986, Carnegie Mellon
 University), and the Gaussian 82(TM) system (copyright 1983,
 Carnegie Mellon University). Gaussian is a federally registered
 trademark of Gaussian, Inc.
  
 This software contains proprietary and confidential information,
 including trade secrets, belonging to Gaussian, Inc.
  
 This software is provided under written license and may be
 used, copied, transmitted, or stored only in accord with that
 written license.
  
 The following legend is applicable only to US Government
 contracts under FAR:
  
                    RESTRICTED RIGHTS LEGEND
  
 Use, reproduction and disclosure by the US Government is
 subject to restrictions as set forth in subparagraphs (a)
 and (c) of the Commercial Computer Software - Restricted
 Rights clause in FAR 52.227-19.
  
 Gaussian, Inc.
 340 Quinnipiac St., Bldg. 40, Wallingford CT 06492
  
  
 ---------------------------------------------------------------
 Warning -- This program may not be used in any manner that
 competes with the business of Gaussian, Inc. or will provide
 assistance to any competitor of Gaussian, Inc.  The licensee
 of this program is prohibited from giving any competitor of
 Gaussian, Inc. access to this program.  By using this program,
 the user acknowledges that Gaussian, Inc. is engaged in the
 business of creating and licensing software in the field of
 computational chemistry and represents and warrants to the
 licensee that it is not a competitor of Gaussian, Inc. and that
 it will not use this program in any manner prohibited above.
 ---------------------------------------------------------------
  

 Cite this work as:
 Gaussian 16, Revision C.01,
 M. J. Frisch, G. W. Trucks, H. B. Schlegel, G. E. Scuseria, 
 M. A. Robb, J. R. Cheeseman, G. Scalmani, V. Barone, 
 G. A. Petersson, H. Nakatsuji, X. Li, M. Caricato, A. V. Marenich, 
 J. Bloino, B. G. Janesko, R. Gomperts, B. Mennucci, H. P. Hratchian, 
 J. V. Ortiz, A. F. Izmaylov, J. L. Sonnenberg, D. Williams-Young, 
 F. Ding, F. Lipparini, F. Egidi, J. Goings, B. Peng, A. Petrone, 
 T. Henderson, D. Ranasinghe, V. G. Zakrzewski, J. Gao, N. Rega, 
 G. Zheng, W. Liang, M. Hada, M. Ehara, K. Toyota, R. Fukuda, 
 J. Hasegawa, M. Ishida, T. Nakajima, Y. Honda, O. Kitao, H. Nakai, 
 T. Vreven, K. Throssell, J. A. Montgomery, Jr., J. E. Peralta, 
 F. Ogliaro, M. J. Bearpark, J. J. Heyd, E. N. Brothers, K. N. Kudin, 
 V. N. Staroverov, T. A. Keith, R. Kobayashi, J. Normand, 
 K. Raghavachari, A. P. Rendell, J. C. Burant, S. S. Iyengar, 
 J. Tomasi, M. Cossi, J. M. Millam, M. Klene, C. Adamo, R. Cammi, 
 J. W. Ochterski, R. L. Martin, K. Morokuma, O. Farkas, 
 J. B. Foresman, and D. J. Fox, Gaussian, Inc., Wallingford CT, 2019.
 
 ******************************************
 Gaussian 16:  ES64L-G16RevC.01  3-Jul-2019
                 5-Feb-2022 
 ******************************************
 %NProcShared=32
 Will use up to   32 processors via shared memory.
 %mem=16GB
 %chk=Ac2_conf-5.chk
 ----------------------------------------------------------------------
 # B3LYP/6-31G(d,p) empiricaldispersion=GD3BJ int=(grid=ultrafine) opt 
 freq=noraman
 ----------------------------------------------------------------------
 1/18=20,19=15,26=4,38=1/1,3;
 2/9=110,12=2,17=6,18=5,40=1/2;
 3/5=1,6=6,7=101,11=2,25=1,30=1,71=1,74=-5,75=-5,124=41/1,2,3;
 4//1;
 5/5=2,38=5/2;
 6/7=2,8=2,9=2,10=2,28=1/1;
 7//1,2,3,16;
 1/18=20,19=15,26=4/3(2);
 2/9=110/2;
 99//99;
 2/9=110/2;
 3/5=1,6=6,7=101,11=2,25=1,30=1,71=1,74=-5,75=-5,124=41/1,2,3;
 4/5=5,16=3,69=1/1;
 5/5=2,38=5/2;
 7//1,2,3,16;
 1/18=20,19=15,26=4/3(-5);
 2/9=110/2;
 6/7=2,8=2,9=2,10=2,19=2,28=1/1;
 99/9=1/99;
 -------
 Ac2.xyz
 -------
 Symbolic Z-matrix:
 Charge =  0 Multiplicity = 1
 O                     4.2186    0.4606    0.917 
 C                     4.1451   -0.8714    0.6709 
 C                     2.7715   -1.3256    0.1536 
 N                     2.1077   -0.2491   -0.6047 
 C                     1.1927   -0.4913   -1.6043 
 O                     0.7227    0.6918   -2.0481 
 C                    -0.2457    0.8441   -3.0922 
 C                    -1.5973    0.2034   -2.7141 
 C                    -0.4252    2.3657   -3.2075 
 C                     0.2739    0.2939   -4.4366 
 O                     0.8596   -1.5988   -2.0164 
 O                     5.0586   -1.6299    0.883 
 H                     5.1102    0.5926    1.2442 
 H                     2.9265   -2.2156   -0.4613 
 H                     2.1593   -1.6269    1.0031 
 H                     2.2342    0.7089   -0.3189 
 H                    -2.3689    0.4368   -3.4475 
 H                    -1.9428    0.5567   -1.7427 
 H                    -1.5272   -0.8828   -2.654 
 H                     0.5158    2.8581   -3.4551 
 H                    -1.1484    2.6276   -3.98 
 H                    -0.7742    2.7961   -2.2683 
 H                     0.3851   -0.7904   -4.4141 
 H                     1.2506    0.711    -4.6819 
 H                    -0.4053    0.5317   -5.255 
 

 GradGradGradGradGradGradGradGradGradGradGradGradGradGradGradGradGradGrad
 Berny optimization.
 Initialization pass.
                           ----------------------------
                           !    Initial Parameters    !
                           ! (Angstroms and Degrees)  !
 --------------------------                            --------------------------
 ! Name  Definition              Value          Derivative Info.                !
 --------------------------------------------------------------------------------
 ! R1    R(1,2)                  1.3565         estimate D2E/DX2                !
 ! R2    R(1,13)                 0.9589         estimate D2E/DX2                !
 ! R3    R(2,3)                  1.5364         estimate D2E/DX2                !
 ! R4    R(2,12)                 1.2061         estimate D2E/DX2                !
 ! R5    R(3,4)                  1.4746         estimate D2E/DX2                !
 ! R6    R(3,14)                 1.0928         estimate D2E/DX2                !
 ! R7    R(3,15)                 1.0896         estimate D2E/DX2                !
 ! R8    R(4,5)                  1.3766         estimate D2E/DX2                !
 ! R9    R(4,16)                 1.0077         estimate D2E/DX2                !
 ! R10   R(5,6)                  1.3482         estimate D2E/DX2                !
 ! R11   R(5,11)                 1.2277         estimate D2E/DX2                !
 ! R12   R(6,7)                  1.4322         estimate D2E/DX2                !
 ! R13   R(7,8)                  1.5428         estimate D2E/DX2                !
 ! R14   R(7,9)                  1.5365         estimate D2E/DX2                !
 ! R15   R(7,10)                 1.5428         estimate D2E/DX2                !
 ! R16   R(8,17)                 1.0898         estimate D2E/DX2                !
 ! R17   R(8,18)                 1.0899         estimate D2E/DX2                !
 ! R18   R(8,19)                 1.0901         estimate D2E/DX2                !
 ! R19   R(9,20)                 1.0905         estimate D2E/DX2                !
 ! R20   R(9,21)                 1.0901         estimate D2E/DX2                !
 ! R21   R(9,22)                 1.0905         estimate D2E/DX2                !
 ! R22   R(10,23)                1.0902         estimate D2E/DX2                !
 ! R23   R(10,24)                1.09           estimate D2E/DX2                !
 ! R24   R(10,25)                1.0898         estimate D2E/DX2                !
 ! A1    A(2,1,13)             104.3272         estimate D2E/DX2                !
 ! A2    A(1,2,3)              113.565          estimate D2E/DX2                !
 ! A3    A(1,2,12)             122.9939         estimate D2E/DX2                !
 ! A4    A(3,2,12)             123.3945         estimate D2E/DX2                !
 ! A5    A(2,3,4)              111.086          estimate D2E/DX2                !
 ! A6    A(2,3,14)             107.6618         estimate D2E/DX2                !
 ! A7    A(2,3,15)             108.7571         estimate D2E/DX2                !
 ! A8    A(4,3,14)             111.6563         estimate D2E/DX2                !
 ! A9    A(4,3,15)             110.4792         estimate D2E/DX2                !
 ! A10   A(14,3,15)            107.0483         estimate D2E/DX2                !
 ! A11   A(3,4,5)              122.9674         estimate D2E/DX2                !
 ! A12   A(3,4,16)             119.4499         estimate D2E/DX2                !
 ! A13   A(5,4,16)             117.1707         estimate D2E/DX2                !
 ! A14   A(4,5,6)              108.4424         estimate D2E/DX2                !
 ! A15   A(4,5,11)             125.6457         estimate D2E/DX2                !
 ! A16   A(6,5,11)             125.9115         estimate D2E/DX2                !
 ! A17   A(5,6,7)              124.6827         estimate D2E/DX2                !
 ! A18   A(6,7,8)              111.6874         estimate D2E/DX2                !
 ! A19   A(6,7,9)              103.8283         estimate D2E/DX2                !
 ! A20   A(6,7,10)             111.6931         estimate D2E/DX2                !
 ! A21   A(8,7,9)              109.1051         estimate D2E/DX2                !
 ! A22   A(8,7,10)             111.1318         estimate D2E/DX2                !
 ! A23   A(9,7,10)             109.0948         estimate D2E/DX2                !
 ! A24   A(7,8,17)             111.4935         estimate D2E/DX2                !
 ! A25   A(7,8,18)             111.1944         estimate D2E/DX2                !
 ! A26   A(7,8,19)             111.7751         estimate D2E/DX2                !
 ! A27   A(17,8,18)            107.8143         estimate D2E/DX2                !
 ! A28   A(17,8,19)            107.2189         estimate D2E/DX2                !
 ! A29   A(18,8,19)            107.1125         estimate D2E/DX2                !
 ! A30   A(7,9,20)             111.3081         estimate D2E/DX2                !
 ! A31   A(7,9,21)             111.6294         estimate D2E/DX2                !
 ! A32   A(7,9,22)             111.3229         estimate D2E/DX2                !
 ! A33   A(20,9,21)            107.6426         estimate D2E/DX2                !
 ! A34   A(20,9,22)            107.0675         estimate D2E/DX2                !
 ! A35   A(21,9,22)            107.6491         estimate D2E/DX2                !
 ! A36   A(7,10,23)            111.7813         estimate D2E/DX2                !
 ! A37   A(7,10,24)            111.1882         estimate D2E/DX2                !
 ! A38   A(7,10,25)            111.5115         estimate D2E/DX2                !
 ! A39   A(23,10,24)           107.0876         estimate D2E/DX2                !
 ! A40   A(23,10,25)           107.2229         estimate D2E/DX2                !
 ! A41   A(24,10,25)           107.8157         estimate D2E/DX2                !
 ! D1    D(13,1,2,3)           178.9204         estimate D2E/DX2                !
 ! D2    D(13,1,2,12)            1.329          estimate D2E/DX2                !
 ! D3    D(1,2,3,4)             29.6888         estimate D2E/DX2                !
 ! D4    D(1,2,3,14)           152.2269         estimate D2E/DX2                !
 ! D5    D(1,2,3,15)           -92.1108         estimate D2E/DX2                !
 ! D6    D(12,2,3,4)          -152.7308         estimate D2E/DX2                !
 ! D7    D(12,2,3,14)          -30.1927         estimate D2E/DX2                !
 ! D8    D(12,2,3,15)           85.4695         estimate D2E/DX2                !
 ! D9    D(2,3,4,5)            152.5923         estimate D2E/DX2                !
 ! D10   D(2,3,4,16)           -34.988          estimate D2E/DX2                !
 ! D11   D(14,3,4,5)            32.3956         estimate D2E/DX2                !
 ! D12   D(14,3,4,16)         -155.1846         estimate D2E/DX2                !
 ! D13   D(15,3,4,5)           -86.6179         estimate D2E/DX2                !
 ! D14   D(15,3,4,16)           85.8018         estimate D2E/DX2                !
 ! D15   D(3,4,5,6)            176.8566         estimate D2E/DX2                !
 ! D16   D(3,4,5,11)            -2.9053         estimate D2E/DX2                !
 ! D17   D(16,4,5,6)             4.2752         estimate D2E/DX2                !
 ! D18   D(16,4,5,11)         -175.4867         estimate D2E/DX2                !
 ! D19   D(4,5,6,7)            179.7378         estimate D2E/DX2                !
 ! D20   D(11,5,6,7)            -0.5011         estimate D2E/DX2                !
 ! D21   D(5,6,7,8)             62.7407         estimate D2E/DX2                !
 ! D22   D(5,6,7,9)           -179.8309         estimate D2E/DX2                !
 ! D23   D(5,6,7,10)           -62.4119         estimate D2E/DX2                !
 ! D24   D(6,7,8,17)           172.2556         estimate D2E/DX2                !
 ! D25   D(6,7,8,18)            51.9014         estimate D2E/DX2                !
 ! D26   D(6,7,8,19)           -67.7515         estimate D2E/DX2                !
 ! D27   D(9,7,8,17)            58.0528         estimate D2E/DX2                !
 ! D28   D(9,7,8,18)           -62.3014         estimate D2E/DX2                !
 ! D29   D(9,7,8,19)           178.0457         estimate D2E/DX2                !
 ! D30   D(10,7,8,17)          -62.281          estimate D2E/DX2                !
 ! D31   D(10,7,8,18)          177.3647         estimate D2E/DX2                !
 ! D32   D(10,7,8,19)           57.7119         estimate D2E/DX2                !
 ! D33   D(6,7,9,20)            59.6736         estimate D2E/DX2                !
 ! D34   D(6,7,9,21)           179.9798         estimate D2E/DX2                !
 ! D35   D(6,7,9,22)           -59.6956         estimate D2E/DX2                !
 ! D36   D(8,7,9,20)           178.884          estimate D2E/DX2                !
 ! D37   D(8,7,9,21)           -60.8099         estimate D2E/DX2                !
 ! D38   D(8,7,9,22)            59.5147         estimate D2E/DX2                !
 ! D39   D(10,7,9,20)          -59.5384         estimate D2E/DX2                !
 ! D40   D(10,7,9,21)           60.7677         estimate D2E/DX2                !
 ! D41   D(10,7,9,22)         -178.9077         estimate D2E/DX2                !
 ! D42   D(6,7,10,23)           67.734          estimate D2E/DX2                !
 ! D43   D(6,7,10,24)          -51.8871         estimate D2E/DX2                !
 ! D44   D(6,7,10,25)         -172.2512         estimate D2E/DX2                !
 ! D45   D(8,7,10,23)          -57.7262         estimate D2E/DX2                !
 ! D46   D(8,7,10,24)         -177.3473         estimate D2E/DX2                !
 ! D47   D(8,7,10,25)           62.2886         estimate D2E/DX2                !
 ! D48   D(9,7,10,23)         -178.0661         estimate D2E/DX2                !
 ! D49   D(9,7,10,24)           62.3127         estimate D2E/DX2                !
 ! D50   D(9,7,10,25)          -58.0513         estimate D2E/DX2                !
 --------------------------------------------------------------------------------
 Trust Radius=3.00D-01 FncErr=1.00D-07 GrdErr=1.00D-06 EigMax=2.50D+02 EigMin=1.00D-04
 Number of steps in this run=    125 maximum allowed number of steps=    150.
 GradGradGradGradGradGradGradGradGradGradGradGradGradGradGradGradGradGrad

                          Input orientation:                          
 ---------------------------------------------------------------------
 Center     Atomic      Atomic             Coordinates (Angstroms)
 Number     Number       Type             X           Y           Z
 ---------------------------------------------------------------------
      1          8           0        4.218600    0.460600    0.917000
      2          6           0        4.145100   -0.871400    0.670900
      3          6           0        2.771500   -1.325600    0.153600
      4          7           0        2.107700   -0.249100   -0.604700
      5          6           0        1.192700   -0.491300   -1.604300
      6          8           0        0.722700    0.691800   -2.048100
      7          6           0       -0.245700    0.844100   -3.092200
      8          6           0       -1.597300    0.203400   -2.714100
      9          6           0       -0.425200    2.365700   -3.207500
     10          6           0        0.273900    0.293900   -4.436600
     11          8           0        0.859600   -1.598800   -2.016400
     12          8           0        5.058600   -1.629900    0.883000
     13          1           0        5.110200    0.592600    1.244200
     14          1           0        2.926500   -2.215600   -0.461300
     15          1           0        2.159300   -1.626900    1.003100
     16          1           0        2.234200    0.708900   -0.318900
     17          1           0       -2.368900    0.436800   -3.447500
     18          1           0       -1.942800    0.556700   -1.742700
     19          1           0       -1.527200   -0.882800   -2.654000
     20          1           0        0.515800    2.858100   -3.455100
     21          1           0       -1.148400    2.627600   -3.980000
     22          1           0       -0.774200    2.796100   -2.268300
     23          1           0        0.385100   -0.790400   -4.414100
     24          1           0        1.250600    0.711000   -4.681900
     25          1           0       -0.405300    0.531700   -5.255000
 ---------------------------------------------------------------------
                    Distance matrix (angstroms):
                    1          2          3          4          5
     1  O    0.000000
     2  C    1.356537   0.000000
     3  C    2.422269   1.536448   0.000000
     4  N    2.697247   2.483025   1.474619   0.000000
     5  C    4.052054   3.746689   2.505769   1.376621   0.000000
     6  O    4.589835   4.642131   3.621459   2.210638   1.348178
     7  C    6.012548   6.031831   4.934198   3.594612   2.462952
     8  C    6.861176   6.751931   5.444994   4.287348   3.081942
     9  C    6.496598   6.812374   5.928033   4.475190   3.653806
    10  C    6.652028   6.513883   5.470898   4.282654   3.079392
    11  O    4.912112   4.306414   2.904978   2.317831   1.227737
    12  O    2.253208   1.206147   2.419804   3.581574   4.735848
    13  H    0.958871   1.844827   3.215341   3.625175   4.963426
    14  H    3.275863   2.138630   1.092807   2.134975   2.699208
    15  H    2.933562   2.150474   1.089597   2.118022   3.003737
    16  H    2.350946   2.669942   2.156650   1.007694   2.043882
    17  H    7.902188   7.816956   6.519025   5.347141   4.116279
    18  H    6.711638   6.702795   5.418822   4.283796   3.308900
    19  H    6.897172   6.574958   5.153398   4.220628   2.941598
    20  H    6.210796   6.641149   5.967767   4.507063   3.886146
    21  H    7.581635   7.867338   6.933978   5.501840   4.566425
    22  H    6.366219   6.803599   5.951974   4.510671   3.888006
    23  H    6.684411   6.324665   5.181238   4.215671   2.938819
    24  H    6.341877   6.287654   5.462869   4.275508   3.304618
    25  H    7.712269   7.602047   6.541756   5.343230   4.114334
                    6          7          8          9         10
     6  O    0.000000
     7  C    1.432180   0.000000
     8  C    2.462619   1.542815   0.000000
     9  C    2.337482   1.536483   2.508546   0.000000
    10  C    2.462657   1.542762   2.544914   2.508343   0.000000
    11  O    2.294906   2.889082   3.125871   4.334362   3.127735
    12  O    5.725528   7.075202   7.784672   7.922693   7.408948
    13  H    5.486277   6.895889   7.798088   7.321350   7.466626
    14  H    3.978397   5.132860   5.602806   6.305856   5.397859
    15  H    4.092678   5.353629   5.592818   6.352137   6.069147
    16  H    2.296749   3.722818   4.546747   4.261620   4.579351
    17  H    3.403136   2.190915   1.089825   2.748859   2.825444
    18  H    2.686338   2.187212   1.089867   2.778710   3.498560
    19  H    2.812211   2.194640   1.090118   3.474697   2.793966
    20  H    2.591392   2.183523   3.472997   1.090525   2.756262
    21  H    3.313695   2.187219   2.771418   1.090122   2.770844
    22  H    2.591771   2.183673   2.756506   1.090478   3.472901
    23  H    2.812267   2.194748   2.794199   3.474685   1.090219
    24  H    2.686252   2.187184   3.498632   2.778524   1.089994
    25  H    3.403267   2.191066   2.825742   2.748856   1.089789
                   11         12         13         14         15
    11  O    0.000000
    12  O    5.102851   0.000000
    13  H    5.788035   2.252251   0.000000
    14  H    2.659108   2.587670   3.945030   0.000000
    15  H    3.287459   2.901788   3.700287   1.754888   0.000000
    16  H    3.177501   3.858987   3.275391   3.008697   2.685006
    17  H    4.076141   8.842637   8.830247   6.632788   6.676174
    18  H    3.546059   7.790707   7.659482   5.747844   5.397662
    19  H    2.572159   7.512742   7.837592   5.140013   5.245793
    20  H    4.695957   7.719993   6.951577   6.365276   6.533901
    21  H    5.074470   8.961134   8.402593   7.241729   7.339818
    22  H    4.695519   7.971306   7.198558   6.486722   6.234614
    23  H    2.574418   7.113763   7.500375   4.910655   5.761386
    24  H    3.548654   7.137842   7.073132   5.402508   6.213754
    25  H    4.077687   8.497162   8.524321   6.451985   7.099334
                   16         17         18         19         20
    16  H    0.000000
    17  H    5.572316   0.000000
    18  H    4.415620   1.761329   0.000000
    19  H    4.704714   1.754835   1.753668   0.000000
    20  H    4.172255   3.766198   3.778025   4.337043   0.000000
    21  H    5.341072   2.563744   3.150430   3.771561   1.760174
    22  H    4.148136   3.082187   2.580076   3.774928   1.753978
    23  H    4.736849   3.166205   3.790801   2.600650   3.774694
    24  H    4.472498   3.834020   4.342869   3.790613   2.579730
    25  H    5.600307   2.670541   3.834160   3.166176   3.082240
                   21         22         23         24         25
    21  H    0.000000
    22  H    1.760209   0.000000
    23  H    3.771311   4.337213   0.000000
    24  H    3.149797   3.777952   1.753570   0.000000
    25  H    2.563322   3.766161   1.754934   1.761419   0.000000
 Stoichiometry    C7H13NO4
 Framework group  C1[X(C7H13NO4)]
 Deg. of freedom    69
 Full point group                 C1      NOp   1
 Largest Abelian subgroup         C1      NOp   1
 Largest concise Abelian subgroup C1      NOp   1
                         Standard orientation:                         
 ---------------------------------------------------------------------
 Center     Atomic      Atomic             Coordinates (Angstroms)
 Number     Number       Type             X           Y           Z
 ---------------------------------------------------------------------
      1          8           0       -3.319817    1.452597   -0.127587
      2          6           0       -3.464911    0.117769    0.065733
      3          6           0       -2.255284   -0.705777   -0.402506
      4          7           0       -1.007961    0.072748   -0.290324
      5          6           0        0.224862   -0.510511   -0.103127
      6          8           0        1.161240    0.459391   -0.111446
      7          6           0        2.565724    0.237724    0.060097
      8          6           0        3.147884   -0.633604   -1.072226
      9          6           0        3.173102    1.646407   -0.026418
     10          6           0        2.883076   -0.364556    1.444533
     11          8           0        0.433519   -1.711676    0.041798
     12          8           0       -4.467906   -0.374960    0.519619
     13          1           0       -4.142790    1.829085    0.189282
     14          1           0       -2.218962   -1.615036    0.202602
     15          1           0       -2.420159   -1.015024   -1.434205
     16          1           0       -1.025784    1.064962   -0.465374
     17          1           0        4.234848   -0.688316   -1.015350
     18          1           0        2.884928   -0.234238   -2.051598
     19          1           0        2.770725   -1.655556   -1.030733
     20          1           0        2.770273    2.299892    0.748135
     21          1           0        4.256732    1.624628    0.090358
     22          1           0        2.953366    2.114690   -0.986401
     23          1           0        2.499930   -1.380650    1.541129
     24          1           0        2.432697    0.224839    2.243194
     25          1           0        3.956909   -0.406041    1.625646
 ---------------------------------------------------------------------
 Rotational constants (GHZ):           2.2102803           0.3743007           0.3499551
 Standard basis: 6-31G(d,p) (6D, 7F)
 There are   245 symmetry adapted cartesian basis functions of A   symmetry.
 There are   245 symmetry adapted basis functions of A   symmetry.
   245 basis functions,   427 primitive gaussians,   245 cartesian basis functions
    47 alpha electrons       47 beta electrons
       nuclear repulsion energy       736.4872315157 Hartrees.
 NAtoms=   25 NActive=   25 NUniq=   25 SFac= 1.00D+00 NAtFMM=   60 NAOKFM=F Big=F
 Integral buffers will be    131072 words long.
 Raffenetti 2 integral format.
 Two-electron integral symmetry is turned on.
 Nuclear repulsion after empirical dispersion term =      736.4495986711 Hartrees.
 One-electron integrals computed using PRISM.
 NBasis=   245 RedAO= T EigKep=  2.71D-03  NBF=   245
 NBsUse=   245 1.00D-06 EigRej= -1.00D+00 NBFU=   245
 ExpMin= 1.61D-01 ExpMax= 5.48D+03 ExpMxC= 8.25D+02 IAcc=3 IRadAn=         5 AccDes= 0.00D+00
 Harris functional with IExCor=  402 and IRadAn=       5 diagonalized for initial guess.
 HarFok:  IExCor=  402 AccDes= 0.00D+00 IRadAn=         5 IDoV= 1 UseB2=F ITyADJ=14
 ICtDFT=  3500011 ScaDFX=  1.000000  1.000000  1.000000  1.000000
 FoFCou: FMM=F IPFlag=           0 FMFlag=      100000 FMFlg1=           0
         NFxFlg=           0 DoJE=T BraDBF=F KetDBF=T FulRan=T
         wScrn=  0.000000 ICntrl=       500 IOpCl=  0 I1Cent=   200000004 NGrid=           0
         NMat0=    1 NMatS0=      1 NMatT0=    0 NMatD0=    1 NMtDS0=    0 NMtDT0=    0
 Petite list used in FoFCou.
 Requested convergence on RMS density matrix=1.00D-08 within 128 cycles.
 Requested convergence on MAX density matrix=1.00D-06.
 Requested convergence on             energy=1.00D-06.
 No special actions if energy rises.
 Integral accuracy reduced to 1.0D-05 until final iterations.
 Initial convergence to 1.0D-05 achieved.  Increase integral accuracy.
 SCF Done:  E(RB3LYP) =  -630.319620083     A.U. after   14 cycles
            NFock= 14  Conv=0.68D-08     -V/T= 2.0092

 **********************************************************************

            Population analysis using the SCF Density.

 **********************************************************************

 Orbital symmetries:
       Occupied  (A) (A) (A) (A) (A) (A) (A) (A) (A) (A) (A) (A)
                 (A) (A) (A) (A) (A) (A) (A) (A) (A) (A) (A) (A)
                 (A) (A) (A) (A) (A) (A) (A) (A) (A) (A) (A) (A)
                 (A) (A) (A) (A) (A) (A) (A) (A) (A) (A) (A)
       Virtual   (A) (A) (A) (A) (A) (A) (A) (A) (A) (A) (A) (A)
                 (A) (A) (A) (A) (A) (A) (A) (A) (A) (A) (A) (A)
                 (A) (A) (A) (A) (A) (A) (A) (A) (A) (A) (A) (A)
                 (A) (A) (A) (A) (A) (A) (A) (A) (A) (A) (A) (A)
                 (A) (A) (A) (A) (A) (A) (A) (A) (A) (A) (A) (A)
                 (A) (A) (A) (A) (A) (A) (A) (A) (A) (A) (A) (A)
                 (A) (A) (A) (A) (A) (A) (A) (A) (A) (A) (A) (A)
                 (A) (A) (A) (A) (A) (A) (A) (A) (A) (A) (A) (A)
                 (A) (A) (A) (A) (A) (A) (A) (A) (A) (A) (A) (A)
                 (A) (A) (A) (A) (A) (A) (A) (A) (A) (A) (A) (A)
                 (A) (A) (A) (A) (A) (A) (A) (A) (A) (A) (A) (A)
                 (A) (A) (A) (A) (A) (A) (A) (A) (A) (A) (A) (A)
                 (A) (A) (A) (A) (A) (A) (A) (A) (A) (A) (A) (A)
                 (A) (A) (A) (A) (A) (A) (A) (A) (A) (A) (A) (A)
                 (A) (A) (A) (A) (A) (A) (A) (A) (A) (A) (A) (A)
                 (A) (A) (A) (A) (A) (A) (A) (A) (A) (A) (A) (A)
                 (A) (A) (A) (A) (A) (A)
 The electronic state is 1-A.
 Alpha  occ. eigenvalues --  -19.21666 -19.17947 -19.15574 -19.11475 -14.36447
 Alpha  occ. eigenvalues --  -10.34009 -10.33329 -10.25777 -10.25042 -10.17704
 Alpha  occ. eigenvalues --  -10.17149 -10.17114  -1.12685  -1.09739  -1.03487
 Alpha  occ. eigenvalues --   -1.00312  -0.92549  -0.80753  -0.75047  -0.69164
 Alpha  occ. eigenvalues --   -0.68923  -0.64244  -0.62619  -0.56811  -0.51649
 Alpha  occ. eigenvalues --   -0.50414  -0.49760  -0.49467  -0.46702  -0.46421
 Alpha  occ. eigenvalues --   -0.44382  -0.43465  -0.42842  -0.41319  -0.41029
 Alpha  occ. eigenvalues --   -0.40487  -0.39069  -0.38184  -0.36269  -0.35567
 Alpha  occ. eigenvalues --   -0.34705  -0.33677  -0.32810  -0.29746  -0.28661
 Alpha  occ. eigenvalues --   -0.26451  -0.25456
 Alpha virt. eigenvalues --   -0.00709   0.05246   0.06342   0.08900   0.10775
 Alpha virt. eigenvalues --    0.11772   0.12306   0.15139   0.15243   0.15577
 Alpha virt. eigenvalues --    0.16502   0.17057   0.18460   0.19478   0.19705
 Alpha virt. eigenvalues --    0.19888   0.20846   0.22876   0.23138   0.23627
 Alpha virt. eigenvalues --    0.25656   0.26762   0.28572   0.32879   0.36962
 Alpha virt. eigenvalues --    0.40913   0.48882   0.49304   0.50032   0.51328
 Alpha virt. eigenvalues --    0.51454   0.53464   0.54861   0.55888   0.57111
 Alpha virt. eigenvalues --    0.58828   0.60416   0.61249   0.64593   0.66568
 Alpha virt. eigenvalues --    0.66760   0.68543   0.68777   0.70036   0.71065
 Alpha virt. eigenvalues --    0.73784   0.75182   0.78083   0.79863   0.81407
 Alpha virt. eigenvalues --    0.82478   0.83708   0.84237   0.84922   0.86097
 Alpha virt. eigenvalues --    0.86461   0.87356   0.88055   0.88373   0.89816
 Alpha virt. eigenvalues --    0.90991   0.91930   0.92542   0.92748   0.93328
 Alpha virt. eigenvalues --    0.94988   0.96950   0.97570   1.04112   1.05919
 Alpha virt. eigenvalues --    1.06499   1.07423   1.11558   1.12616   1.13712
 Alpha virt. eigenvalues --    1.15902   1.21688   1.24872   1.27640   1.31388
 Alpha virt. eigenvalues --    1.32800   1.36033   1.38275   1.41393   1.42729
 Alpha virt. eigenvalues --    1.45118   1.45970   1.50004   1.50652   1.53716
 Alpha virt. eigenvalues --    1.54446   1.57011   1.59778   1.63860   1.66547
 Alpha virt. eigenvalues --    1.68653   1.70660   1.71866   1.74858   1.76644
 Alpha virt. eigenvalues --    1.78995   1.79680   1.80905   1.82935   1.84674
 Alpha virt. eigenvalues --    1.85567   1.86176   1.86827   1.88121   1.90600
 Alpha virt. eigenvalues --    1.91307   1.92141   1.96912   1.98883   2.01920
 Alpha virt. eigenvalues --    2.03228   2.04429   2.05151   2.05561   2.06008
 Alpha virt. eigenvalues --    2.08754   2.10141   2.11592   2.13104   2.13497
 Alpha virt. eigenvalues --    2.14252   2.15446   2.16022   2.18517   2.18588
 Alpha virt. eigenvalues --    2.20780   2.23607   2.25200   2.31167   2.31710
 Alpha virt. eigenvalues --    2.33565   2.35944   2.39180   2.40302   2.41237
 Alpha virt. eigenvalues --    2.44600   2.47000   2.51506   2.54123   2.55132
 Alpha virt. eigenvalues --    2.56173   2.57478   2.60989   2.63102   2.63275
 Alpha virt. eigenvalues --    2.66480   2.68239   2.69705   2.72843   2.73579
 Alpha virt. eigenvalues --    2.74917   2.75977   2.77501   2.79140   2.82520
 Alpha virt. eigenvalues --    2.85744   2.87196   2.88840   2.89932   2.91166
 Alpha virt. eigenvalues --    2.95544   2.95825   2.96959   3.01124   3.06400
 Alpha virt. eigenvalues --    3.11640   3.12730   3.17802   3.22759   3.24262
 Alpha virt. eigenvalues --    3.26326   3.28977   3.42768   3.43317   3.43421
 Alpha virt. eigenvalues --    3.44405   3.44598   3.45053   3.51675   3.52814
 Alpha virt. eigenvalues --    3.53742   3.91600   4.00791   4.11639   4.15357
 Alpha virt. eigenvalues --    4.28577   4.30155   4.40868   4.43967   4.53560
 Alpha virt. eigenvalues --    4.55984   4.61772   4.73163
          Condensed to atoms (all electrons):
               1          2          3          4          5          6
     1  O    8.114182   0.255225  -0.091547  -0.002490   0.000043  -0.000005
     2  C    0.255225   4.374118   0.322185  -0.023842   0.002594   0.000003
     3  C   -0.091547   0.322185   4.983672   0.215410  -0.021581   0.002703
     4  N   -0.002490  -0.023842   0.215410   7.014883   0.301474  -0.107543
     5  C    0.000043   0.002594  -0.021581   0.301474   4.118332   0.293201
     6  O   -0.000005   0.000003   0.002703  -0.107543   0.293201   8.343956
     7  C    0.000000   0.000000  -0.000110   0.004550  -0.015831   0.183136
     8  C   -0.000000   0.000000   0.000017  -0.000388  -0.003412  -0.043363
     9  C    0.000000  -0.000000   0.000001  -0.000208   0.003639  -0.052977
    10  C   -0.000000  -0.000000   0.000008  -0.000375  -0.003663  -0.043169
    11  O   -0.000002   0.000339   0.004611  -0.086477   0.543888  -0.071941
    12  O   -0.083239   0.580075  -0.068679   0.001813  -0.000044   0.000000
    13  H    0.272746  -0.010007   0.010264  -0.000365   0.000014  -0.000000
    14  H    0.002358  -0.024062   0.382185  -0.035657  -0.000202   0.000174
    15  H    0.000547  -0.030820   0.374792  -0.042856  -0.001571   0.000011
    16  H    0.011675  -0.004721  -0.029969   0.334182  -0.017717   0.009157
    17  H    0.000000  -0.000000  -0.000000   0.000003   0.000164   0.002882
    18  H   -0.000000  -0.000000  -0.000001  -0.000038   0.000442   0.000192
    19  H    0.000000  -0.000000  -0.000001   0.000073   0.001933  -0.003067
    20  H   -0.000000   0.000000   0.000000  -0.000017   0.000043   0.000607
    21  H    0.000000  -0.000000  -0.000000   0.000003  -0.000037   0.003437
    22  H   -0.000000  -0.000000  -0.000000  -0.000019   0.000034   0.000585
    23  H    0.000000  -0.000000  -0.000000   0.000079   0.001938  -0.003049
    24  H   -0.000000   0.000000   0.000001  -0.000041   0.000466   0.000141
    25  H    0.000000  -0.000000  -0.000000   0.000004   0.000165   0.002896
               7          8          9         10         11         12
     1  O    0.000000  -0.000000   0.000000  -0.000000  -0.000002  -0.083239
     2  C    0.000000   0.000000  -0.000000  -0.000000   0.000339   0.580075
     3  C   -0.000110   0.000017   0.000001   0.000008   0.004611  -0.068679
     4  N    0.004550  -0.000388  -0.000208  -0.000375  -0.086477   0.001813
     5  C   -0.015831  -0.003412   0.003639  -0.003663   0.543888  -0.000044
     6  O    0.183136  -0.043363  -0.052977  -0.043169  -0.071941   0.000000
     7  C    4.605249   0.380308   0.405477   0.380945   0.003114  -0.000000
     8  C    0.380308   5.016541  -0.065386  -0.064127  -0.004894  -0.000000
     9  C    0.405477  -0.065386   4.978640  -0.065364   0.000147   0.000000
    10  C    0.380945  -0.064127  -0.065364   5.016157  -0.004998   0.000000
    11  O    0.003114  -0.004894   0.000147  -0.004998   8.114225   0.000000
    12  O   -0.000000  -0.000000   0.000000   0.000000   0.000000   8.003359
    13  H    0.000000   0.000000  -0.000000  -0.000000   0.000000   0.011031
    14  H    0.000000   0.000000   0.000000   0.000000   0.008221   0.001452
    15  H    0.000003  -0.000001  -0.000000   0.000000   0.000708   0.001112
    16  H   -0.000238   0.000049  -0.000100   0.000054   0.002783   0.000156
    17  H   -0.024828   0.366855  -0.003427  -0.001609   0.000161   0.000000
    18  H   -0.026402   0.369834  -0.006179   0.005389  -0.000055   0.000000
    19  H   -0.023058   0.377176   0.004776  -0.005909   0.009380   0.000000
    20  H   -0.025301   0.005764   0.371558  -0.006332   0.000003  -0.000000
    21  H   -0.028201  -0.001867   0.371890  -0.001931   0.000008  -0.000000
    22  H   -0.025273  -0.006370   0.371234   0.005771   0.000003   0.000000
    23  H   -0.023061  -0.005904   0.004768   0.377072   0.009365  -0.000000
    24  H   -0.026359   0.005371  -0.006155   0.370238  -0.000043  -0.000000
    25  H   -0.024883  -0.001589  -0.003474   0.366627   0.000161  -0.000000
              13         14         15         16         17         18
     1  O    0.272746   0.002358   0.000547   0.011675   0.000000  -0.000000
     2  C   -0.010007  -0.024062  -0.030820  -0.004721  -0.000000  -0.000000
     3  C    0.010264   0.382185   0.374792  -0.029969  -0.000000  -0.000001
     4  N   -0.000365  -0.035657  -0.042856   0.334182   0.000003  -0.000038
     5  C    0.000014  -0.000202  -0.001571  -0.017717   0.000164   0.000442
     6  O   -0.000000   0.000174   0.000011   0.009157   0.002882   0.000192
     7  C    0.000000   0.000000   0.000003  -0.000238  -0.024828  -0.026402
     8  C    0.000000   0.000000  -0.000001   0.000049   0.366855   0.369834
     9  C   -0.000000   0.000000  -0.000000  -0.000100  -0.003427  -0.006179
    10  C   -0.000000   0.000000   0.000000   0.000054  -0.001609   0.005389
    11  O    0.000000   0.008221   0.000708   0.002783   0.000161  -0.000055
    12  O    0.011031   0.001452   0.001112   0.000156   0.000000   0.000000
    13  H    0.389853  -0.000209  -0.000331  -0.000435  -0.000000  -0.000000
    14  H   -0.000209   0.515919  -0.031928   0.003140  -0.000000  -0.000000
    15  H   -0.000331  -0.031928   0.576070   0.000851   0.000000   0.000000
    16  H   -0.000435   0.003140   0.000851   0.404783  -0.000001   0.000008
    17  H   -0.000000  -0.000000   0.000000  -0.000001   0.612481  -0.029575
    18  H   -0.000000  -0.000000   0.000000   0.000008  -0.029575   0.609774
    19  H   -0.000000  -0.000002   0.000001  -0.000016  -0.027744  -0.030081
    20  H    0.000000   0.000000  -0.000000   0.000030  -0.000007  -0.000071
    21  H   -0.000000  -0.000000   0.000000   0.000001   0.001726   0.000158
    22  H   -0.000000  -0.000000   0.000000   0.000036   0.000129   0.004126
    23  H   -0.000000   0.000001  -0.000000  -0.000014   0.000123   0.000002
    24  H   -0.000000  -0.000000  -0.000000   0.000004  -0.000053  -0.000207
    25  H    0.000000   0.000000  -0.000000  -0.000001   0.001122  -0.000054
              19         20         21         22         23         24
     1  O    0.000000  -0.000000   0.000000  -0.000000   0.000000  -0.000000
     2  C   -0.000000   0.000000  -0.000000  -0.000000  -0.000000   0.000000
     3  C   -0.000001   0.000000  -0.000000  -0.000000  -0.000000   0.000001
     4  N    0.000073  -0.000017   0.000003  -0.000019   0.000079  -0.000041
     5  C    0.001933   0.000043  -0.000037   0.000034   0.001938   0.000466
     6  O   -0.003067   0.000607   0.003437   0.000585  -0.003049   0.000141
     7  C   -0.023058  -0.025301  -0.028201  -0.025273  -0.023061  -0.026359
     8  C    0.377176   0.005764  -0.001867  -0.006370  -0.005904   0.005371
     9  C    0.004776   0.371558   0.371890   0.371234   0.004768  -0.006155
    10  C   -0.005909  -0.006332  -0.001931   0.005771   0.377072   0.370238
    11  O    0.009380   0.000003   0.000008   0.000003   0.009365  -0.000043
    12  O    0.000000  -0.000000  -0.000000   0.000000  -0.000000  -0.000000
    13  H   -0.000000   0.000000  -0.000000  -0.000000  -0.000000  -0.000000
    14  H   -0.000002   0.000000  -0.000000  -0.000000   0.000001  -0.000000
    15  H    0.000001  -0.000000   0.000000   0.000000  -0.000000  -0.000000
    16  H   -0.000016   0.000030   0.000001   0.000036  -0.000014   0.000004
    17  H   -0.027744  -0.000007   0.001726   0.000129   0.000123  -0.000053
    18  H   -0.030081  -0.000071   0.000158   0.004126   0.000002  -0.000207
    19  H    0.554993  -0.000198   0.000013  -0.000046   0.003083   0.000002
    20  H   -0.000198   0.602830  -0.029108  -0.031598  -0.000045   0.004102
    21  H    0.000013  -0.029108   0.605947  -0.029189   0.000013   0.000160
    22  H   -0.000046  -0.031598  -0.029189   0.604254  -0.000198  -0.000070
    23  H    0.003083  -0.000045   0.000013  -0.000198   0.554828  -0.029946
    24  H    0.000002   0.004102   0.000160  -0.000070  -0.029946   0.607801
    25  H    0.000124   0.000130   0.001747  -0.000007  -0.027745  -0.029528
              25
     1  O    0.000000
     2  C   -0.000000
     3  C   -0.000000
     4  N    0.000004
     5  C    0.000165
     6  O    0.002896
     7  C   -0.024883
     8  C   -0.001589
     9  C   -0.003474
    10  C    0.366627
    11  O    0.000161
    12  O   -0.000000
    13  H    0.000000
    14  H    0.000000
    15  H   -0.000000
    16  H   -0.000001
    17  H    0.001122
    18  H   -0.000054
    19  H    0.000124
    20  H    0.000130
    21  H    0.001747
    22  H   -0.000007
    23  H   -0.027745
    24  H   -0.029528
    25  H    0.613009
 Mulliken charges:
               1
     1  O   -0.479492
     2  C    0.558913
     3  C   -0.083960
     4  N   -0.572157
     5  C    0.795688
     6  O   -0.517965
     7  C    0.280762
     8  C   -0.324613
     9  C   -0.308859
    10  C   -0.324782
    11  O   -0.528709
    12  O   -0.447036
    13  H    0.327438
    14  H    0.178612
    15  H    0.153413
    16  H    0.286300
    17  H    0.101599
    18  H    0.102738
    19  H    0.138569
    20  H    0.107610
    21  H    0.105230
    22  H    0.106599
    23  H    0.138691
    24  H    0.104116
    25  H    0.101295
 Sum of Mulliken charges =  -0.00000
 Mulliken charges with hydrogens summed into heavy atoms:
               1
     1  O   -0.152054
     2  C    0.558913
     3  C    0.248065
     4  N   -0.285857
     5  C    0.795688
     6  O   -0.517965
     7  C    0.280762
     8  C    0.018293
     9  C    0.010580
    10  C    0.019321
    11  O   -0.528709
    12  O   -0.447036
 Electronic spatial extent (au):  <R**2>=           3163.1286
 Charge=             -0.0000 electrons
 Dipole moment (field-independent basis, Debye):
    X=              0.5123    Y=              3.1467    Z=             -0.9102  Tot=              3.3155
 Quadrupole moment (field-independent basis, Debye-Ang):
   XX=            -68.2235   YY=            -72.6353   ZZ=            -69.8408
   XY=             -6.0139   XZ=              3.5742   YZ=              1.6975
 Traceless Quadrupole moment (field-independent basis, Debye-Ang):
   XX=              2.0097   YY=             -2.4021   ZZ=              0.3924
   XY=             -6.0139   XZ=              3.5742   YZ=              1.6975
 Octapole moment (field-independent basis, Debye-Ang**2):
  XXX=             25.3755  YYY=             16.7710  ZZZ=             -0.7261  XYY=            -25.1823
  XXY=             39.7430  XXZ=            -12.6931  XZZ=             -8.9281  YZZ=              0.1618
  YYZ=              1.1014  XYZ=             -6.4738
 Hexadecapole moment (field-independent basis, Debye-Ang**3):
 XXXX=          -3357.4375 YYYY=           -473.3882 ZZZZ=           -268.7133 XXXY=           -221.3865
 XXXZ=             64.2395 YYYX=            -41.7121 YYYZ=              1.2683 ZZZX=             -4.4126
 ZZZY=             -0.1989 XXYY=           -556.1778 XXZZ=           -588.8658 YYZZ=           -121.5520
 XXYZ=             26.7731 YYXZ=             -8.3454 ZZXY=             -4.6610
 N-N= 7.364495986711D+02 E-N=-2.945608518205D+03  KE= 6.245450701337D+02
 Calling FoFJK, ICntrl=      2127 FMM=F ISym2X=0 I1Cent= 0 IOpClX= 0 NMat=1 NMatS=1 NMatT=0.
 ***** Axes restored to original set *****
 -------------------------------------------------------------------
 Center     Atomic                   Forces (Hartrees/Bohr)
 Number     Number              X              Y              Z
 -------------------------------------------------------------------
      1        8          -0.012555129   -0.006314053   -0.005696374
      2        6          -0.011911910   -0.006355333   -0.002799587
      3        6           0.001854057    0.020149849   -0.010141060
      4        7          -0.000104037   -0.014753065   -0.003409134
      5        6          -0.002368433   -0.016510365   -0.000877157
      6        8           0.008910789    0.010382238    0.009770911
      7        6          -0.018453098    0.001125915   -0.020212671
      8        6           0.004707273   -0.006818483    0.003099535
      9        6           0.003193308    0.001579802    0.003470496
     10        6           0.003204854   -0.006906929    0.004569938
     11        8           0.006485338    0.011222433    0.006296746
     12        8           0.002694558   -0.000367525    0.001151332
     13        1           0.012581813    0.005271678    0.005123658
     14        1          -0.002004433    0.004151892   -0.002575272
     15        1          -0.000873407   -0.002097658    0.006645529
     16        1           0.001672882   -0.000426065    0.001642910
     17        1           0.000622204    0.003438581   -0.003263078
     18        1           0.000554113    0.003582500    0.002576098
     19        1           0.003446844   -0.001195836   -0.000393206
     20        1           0.003257429   -0.000832674   -0.001010489
     21        1          -0.001721108   -0.002872302   -0.001988693
     22        1          -0.001265096   -0.001012763    0.003162779
     23        1          -0.000635967   -0.001327922    0.003372727
     24        1           0.002225003    0.003631928    0.000987387
     25        1          -0.003517848    0.003254156    0.000496675
 -------------------------------------------------------------------
 Cartesian Forces:  Max     0.020212671 RMS     0.006652500

 GradGradGradGradGradGradGradGradGradGradGradGradGradGradGradGradGradGrad
 Berny optimization.
 FormGI is forming the generalized inverse of G from B-inverse, IUseBI=4.
 Internal  Forces:  Max     0.023344550 RMS     0.004624177
 Search for a local minimum.
 Step number   1 out of a maximum of  125
 All quantities printed in internal units (Hartrees-Bohrs-Radians)
 Mixed Optimization -- RFO/linear search
 Second derivative matrix not updated -- first step.
 ITU=  0
     Eigenvalues ---    0.00230   0.00230   0.00283   0.00284   0.00705
     Eigenvalues ---    0.00782   0.01237   0.01266   0.02001   0.02127
     Eigenvalues ---    0.02267   0.02377   0.04495   0.04970   0.05320
     Eigenvalues ---    0.05323   0.05357   0.05361   0.05362   0.05424
     Eigenvalues ---    0.05437   0.06380   0.06806   0.09694   0.13107
     Eigenvalues ---    0.15835   0.15913   0.16000   0.16000   0.16000
     Eigenvalues ---    0.16000   0.16000   0.16000   0.16000   0.16000
     Eigenvalues ---    0.16000   0.16000   0.16278   0.21953   0.22020
     Eigenvalues ---    0.24987   0.25000   0.25000   0.25000   0.25000
     Eigenvalues ---    0.28271   0.28276   0.28833   0.28836   0.34490
     Eigenvalues ---    0.34752   0.34757   0.34787   0.34799   0.34799
     Eigenvalues ---    0.34813   0.34828   0.34833   0.34837   0.34859
     Eigenvalues ---    0.35193   0.40678   0.46361   0.49725   0.53654
     Eigenvalues ---    0.55411   0.55717   0.92036   1.01794
 RFO step:  Lambda=-9.35397991D-03 EMin= 2.30000000D-03
 Linear search not attempted -- first point.
 Iteration  1 RMS(Cart)=  0.11891064 RMS(Int)=  0.00377405
 Iteration  2 RMS(Cart)=  0.00697575 RMS(Int)=  0.00021556
 Iteration  3 RMS(Cart)=  0.00001251 RMS(Int)=  0.00021545
 Iteration  4 RMS(Cart)=  0.00000000 RMS(Int)=  0.00021545
 Variable       Old X    -DE/DX   Delta X   Delta X   Delta X     New X
                                 (Linear)    (Quad)   (Total)
    R1        2.56348  -0.00113   0.00000  -0.00206  -0.00206   2.56142
    R2        1.81200   0.01417   0.00000   0.02502   0.02502   1.83702
    R3        2.90347  -0.01126   0.00000  -0.03782  -0.03782   2.86565
    R4        2.27929   0.00247   0.00000   0.00241   0.00241   2.28170
    R5        2.78663  -0.01940   0.00000  -0.05371  -0.05371   2.73292
    R6        2.06511  -0.00222   0.00000  -0.00626  -0.00626   2.05885
    R7        2.05904   0.00625   0.00000   0.01747   0.01747   2.07651
    R8        2.60144  -0.01318   0.00000  -0.02602  -0.02602   2.57542
    R9        1.90427   0.00027   0.00000   0.00057   0.00057   1.90484
   R10        2.54769   0.00218   0.00000   0.00388   0.00388   2.55156
   R11        2.32009  -0.01400   0.00000  -0.01505  -0.01505   2.30503
   R12        2.70643   0.00624   0.00000   0.01500   0.01500   2.72143
   R13        2.91550  -0.00727   0.00000  -0.02488  -0.02488   2.89062
   R14        2.90353  -0.00379   0.00000  -0.01272  -0.01272   2.89082
   R15        2.91540  -0.00730   0.00000  -0.02500  -0.02500   2.89040
   R16        2.05947   0.00249   0.00000   0.00697   0.00697   2.06644
   R17        2.05955   0.00328   0.00000   0.00918   0.00918   2.06873
   R18        2.06002   0.00139   0.00000   0.00389   0.00389   2.06392
   R19        2.06079   0.00266   0.00000   0.00747   0.00747   2.06826
   R20        2.06003   0.00186   0.00000   0.00521   0.00521   2.06524
   R21        2.06070   0.00273   0.00000   0.00765   0.00765   2.06835
   R22        2.06022   0.00133   0.00000   0.00371   0.00371   2.06393
   R23        2.05979   0.00316   0.00000   0.00884   0.00884   2.06863
   R24        2.05940   0.00253   0.00000   0.00707   0.00707   2.06647
    A1        1.82085   0.00614   0.00000   0.03623   0.03623   1.85708
    A2        1.98208  -0.00535   0.00000  -0.02053  -0.02053   1.96155
    A3        2.14665   0.00087   0.00000   0.00343   0.00342   2.15007
    A4        2.15364   0.00448   0.00000   0.01737   0.01736   2.17100
    A5        1.93882   0.00410   0.00000   0.01670   0.01664   1.95546
    A6        1.87905   0.00143   0.00000   0.00843   0.00851   1.88756
    A7        1.89817  -0.00386   0.00000  -0.01770  -0.01792   1.88025
    A8        1.94877  -0.00553   0.00000  -0.04318  -0.04305   1.90572
    A9        1.92823   0.00219   0.00000   0.02387   0.02395   1.95218
   A10        1.86834   0.00154   0.00000   0.01153   0.01174   1.88008
   A11        2.14619  -0.00742   0.00000  -0.03229  -0.03229   2.11390
   A12        2.08479   0.00143   0.00000   0.00272   0.00273   2.08752
   A13        2.04501   0.00595   0.00000   0.02957   0.02957   2.07458
   A14        1.89268   0.00358   0.00000   0.01384   0.01370   1.90638
   A15        2.19293  -0.00564   0.00000  -0.02173  -0.02187   2.17106
   A16        2.19757   0.00207   0.00000   0.00801   0.00787   2.20543
   A17        2.17612  -0.02334   0.00000  -0.09001  -0.09001   2.08611
   A18        1.94931  -0.00162   0.00000  -0.03052  -0.03078   1.91853
   A19        1.81215  -0.00003   0.00000  -0.00035   0.00034   1.81249
   A20        1.94941  -0.00160   0.00000  -0.03025  -0.03052   1.91889
   A21        1.90424   0.00172   0.00000   0.03036   0.02995   1.93419
   A22        1.93962   0.00000   0.00000   0.00345   0.00192   1.94154
   A23        1.90406   0.00173   0.00000   0.03051   0.03010   1.93416
   A24        1.94593  -0.00440   0.00000  -0.02817  -0.02844   1.91749
   A25        1.94071  -0.00229   0.00000  -0.01444  -0.01465   1.92606
   A26        1.95084  -0.00295   0.00000  -0.01427  -0.01437   1.93648
   A27        1.88172   0.00282   0.00000   0.01077   0.01039   1.89211
   A28        1.87132   0.00418   0.00000   0.02641   0.02625   1.89757
   A29        1.86947   0.00333   0.00000   0.02380   0.02377   1.89324
   A30        1.94269  -0.00181   0.00000  -0.00949  -0.00958   1.93311
   A31        1.94830  -0.00400   0.00000  -0.02590  -0.02609   1.92221
   A32        1.94295  -0.00179   0.00000  -0.00947  -0.00956   1.93339
   A33        1.87872   0.00285   0.00000   0.01477   0.01459   1.89331
   A34        1.86868   0.00246   0.00000   0.01882   0.01883   1.88751
   A35        1.87883   0.00283   0.00000   0.01451   0.01433   1.89316
   A36        1.95095  -0.00300   0.00000  -0.01458  -0.01468   1.93627
   A37        1.94060  -0.00230   0.00000  -0.01451  -0.01471   1.92589
   A38        1.94624  -0.00441   0.00000  -0.02825  -0.02853   1.91771
   A39        1.86903   0.00336   0.00000   0.02399   0.02396   1.89300
   A40        1.87139   0.00421   0.00000   0.02653   0.02636   1.89776
   A41        1.88174   0.00285   0.00000   0.01096   0.01059   1.89232
    D1        3.12275   0.00015   0.00000   0.00518   0.00516   3.12791
    D2        0.02319  -0.00005   0.00000  -0.00217  -0.00215   0.02105
    D3        0.51817   0.00175   0.00000  -0.00212  -0.00219   0.51597
    D4        2.65686  -0.00161   0.00000  -0.03968  -0.03968   2.61718
    D5       -1.60764  -0.00104   0.00000  -0.03080  -0.03075  -1.63839
    D6       -2.66566   0.00184   0.00000   0.00488   0.00482  -2.66084
    D7       -0.52696  -0.00151   0.00000  -0.03269  -0.03267  -0.55963
    D8        1.49172  -0.00094   0.00000  -0.02381  -0.02374   1.46799
    D9        2.66324   0.00035   0.00000  -0.01215  -0.01232   2.65092
   D10       -0.61066   0.00045   0.00000  -0.00988  -0.01002  -0.62068
   D11        0.56541  -0.00053   0.00000  -0.00505  -0.00511   0.56031
   D12       -2.70848  -0.00043   0.00000  -0.00277  -0.00281  -2.71129
   D13       -1.51177  -0.00032   0.00000  -0.00735  -0.00715  -1.51892
   D14        1.49752  -0.00022   0.00000  -0.00507  -0.00486   1.49267
   D15        3.08673   0.00022   0.00000   0.01023   0.01011   3.09684
   D16       -0.05071  -0.00070   0.00000  -0.01944  -0.01934  -0.07005
   D17        0.07462   0.00041   0.00000   0.00978   0.00969   0.08431
   D18       -3.06282  -0.00050   0.00000  -0.01989  -0.01976  -3.08258
   D19        3.13702  -0.00052   0.00000  -0.01699  -0.01720   3.11982
   D20       -0.00875   0.00038   0.00000   0.01268   0.01289   0.00415
   D21        1.09503  -0.00125   0.00000  -0.02185  -0.02150   1.07353
   D22       -3.13864  -0.00003   0.00000  -0.00099  -0.00099  -3.13963
   D23       -1.08929   0.00122   0.00000   0.02017   0.01982  -1.06947
   D24        3.00643   0.00086   0.00000   0.02584   0.02577   3.03220
   D25        0.90585   0.00182   0.00000   0.04117   0.04094   0.94679
   D26       -1.18249   0.00114   0.00000   0.03038   0.03028  -1.15220
   D27        1.01321   0.00079   0.00000   0.02534   0.02551   1.03872
   D28       -1.08736   0.00176   0.00000   0.04067   0.04068  -1.04668
   D29        3.10748   0.00107   0.00000   0.02988   0.03002   3.13751
   D30       -1.08701  -0.00247   0.00000  -0.03447  -0.03439  -1.12139
   D31        3.09560  -0.00151   0.00000  -0.01914  -0.01921   3.07639
   D32        1.00726  -0.00219   0.00000  -0.02993  -0.02987   0.97739
   D33        1.04150   0.00036   0.00000   0.00574   0.00569   1.04719
   D34        3.14124   0.00002   0.00000   0.00033   0.00033   3.14157
   D35       -1.04189  -0.00035   0.00000  -0.00540  -0.00535  -1.04723
   D36        3.12211  -0.00072   0.00000  -0.01541  -0.01570   3.10641
   D37       -1.06133  -0.00106   0.00000  -0.02082  -0.02106  -1.08239
   D38        1.03873  -0.00143   0.00000  -0.02655  -0.02674   1.01199
   D39       -1.03914   0.00141   0.00000   0.02652   0.02670  -1.01244
   D40        1.06060   0.00107   0.00000   0.02111   0.02135   1.08194
   D41       -3.12253   0.00071   0.00000   0.01538   0.01567  -3.10686
   D42        1.18218  -0.00115   0.00000  -0.03037  -0.03028   1.15191
   D43       -0.90560  -0.00183   0.00000  -0.04116  -0.04094  -0.94654
   D44       -3.00635  -0.00088   0.00000  -0.02597  -0.02590  -3.03225
   D45       -1.00751   0.00220   0.00000   0.03009   0.03003  -0.97748
   D46       -3.09529   0.00152   0.00000   0.01930   0.01937  -3.07593
   D47        1.08714   0.00247   0.00000   0.03449   0.03441   1.12155
   D48       -3.10784  -0.00106   0.00000  -0.02963  -0.02977  -3.13761
   D49        1.08756  -0.00174   0.00000  -0.04042  -0.04043   1.04713
   D50       -1.01319  -0.00079   0.00000  -0.02523  -0.02539  -1.03858
         Item               Value     Threshold  Converged?
 Maximum Force            0.023345     0.000450     NO 
 RMS     Force            0.004624     0.000300     NO 
 Maximum Displacement     0.371599     0.001800     NO 
 RMS     Displacement     0.120834     0.001200     NO 
 Predicted change in Energy=-4.969782D-03
 GradGradGradGradGradGradGradGradGradGradGradGradGradGradGradGradGradGrad

                          Input orientation:                          
 ---------------------------------------------------------------------
 Center     Atomic      Atomic             Coordinates (Angstroms)
 Number     Number       Type             X           Y           Z
 ---------------------------------------------------------------------
      1          8           0        4.221629    0.363491    0.909600
      2          6           0        4.092309   -0.950425    0.602789
      3          6           0        2.707679   -1.289194    0.085479
      4          7           0        2.094280   -0.170752   -0.595933
      5          6           0        1.177442   -0.365629   -1.585278
      6          8           0        0.722634    0.831869   -2.012204
      7          6           0       -0.241923    0.884976   -3.080262
      8          6           0       -1.524211    0.164062   -2.660923
      9          6           0       -0.496540    2.381464   -3.269590
     10          6           0        0.350226    0.269481   -4.349116
     11          8           0        0.855369   -1.458589   -2.020648
     12          8           0        4.976164   -1.756998    0.764366
     13          1           0        5.128129    0.480136    1.240736
     14          1           0        2.799452   -2.124440   -0.608021
     15          1           0        2.105064   -1.628222    0.939506
     16          1           0        2.259981    0.766412   -0.263777
     17          1           0       -2.293902    0.299869   -3.425710
     18          1           0       -1.899127    0.572126   -1.716816
     19          1           0       -1.345765   -0.905351   -2.529144
     20          1           0        0.429007    2.901928   -3.534839
     21          1           0       -1.224865    2.541010   -4.068634
     22          1           0       -0.887290    2.828190   -2.349953
     23          1           0        0.529077   -0.799884   -4.217458
     24          1           0        1.300800    0.751819   -4.598258
     25          1           0       -0.338518    0.409853   -5.186813
 ---------------------------------------------------------------------
                    Distance matrix (angstroms):
                    1          2          3          4          5
     1  O    0.000000
     2  C    1.355445   0.000000
     3  C    2.388009   1.516434   0.000000
     4  N    2.660387   2.457019   1.446199   0.000000
     5  C    4.002887   3.691351   2.446635   1.362855   0.000000
     6  O    4.582498   4.622712   3.583237   2.211896   1.350229
     7  C    6.009513   5.976548   4.842425   3.569916   2.411138
     8  C    6.767798   6.590842   5.250102   4.179685   2.955760
     9  C    6.618079   6.866901   5.915846   4.513823   3.631204
    10  C    6.530750   6.325561   5.258582   4.161961   2.954058
    11  O    4.820585   4.197431   2.809896   2.285441   1.219770
    12  O    2.255413   1.207422   2.413659   3.559754   4.678357
    13  H    0.972110   1.877872   3.213055   3.605724   4.930476
    14  H    3.242771   2.125053   1.089495   2.077092   2.584447
    15  H    2.906486   2.126483   1.098840   2.117052   2.971390
    16  H    2.321039   2.656293   2.132587   1.007998   2.049334
    17  H    7.826309   7.653478   6.314221   5.242639   3.985010
    18  H    6.663726   6.602728   5.285398   4.213732   3.219000
    19  H    6.665643   6.275642   4.838801   4.013832   2.747500
    20  H    6.370298   6.736496   5.988702   4.566362   3.877869
    21  H    7.693419   7.892062   6.884186   5.516342   4.515161
    22  H    6.542208   6.913250   5.983977   4.578209   3.879217
    23  H    6.424571   5.996171   4.847783   3.995136   2.745420
    24  H    6.246482   6.143374   5.299286   4.183223   3.215891
    25  H    7.613367   7.416339   6.321641   5.227982   3.983788
                    6          7          8          9         10
     6  O    0.000000
     7  C    1.440118   0.000000
     8  C    2.432101   1.529649   0.000000
     9  C    2.338514   1.529754   2.518621   0.000000
    10  C    2.432309   1.529532   2.524802   2.518503   0.000000
    11  O    2.294316   2.796271   2.950482   4.258347   2.943325
    12  O    5.701236   6.999259   7.594600   7.959281   7.187046
    13  H    5.487597   6.904519   7.718580   7.456205   7.356574
    14  H    3.876167   4.941511   5.305253   6.184714   5.072018
    15  H    4.083596   5.289901   5.417288   6.368863   5.886448
    16  H    2.329102   3.769107   4.519872   4.386538   4.536970
    17  H    3.373502   2.161551   1.093511   2.754618   2.800896
    18  H    2.651103   2.168682   1.094722   2.766236   3.475657
    19  H    2.750170   2.174275   1.092178   3.474564   2.751167
    20  H    2.586460   2.173679   3.474867   1.094476   2.756633
    21  H    3.307993   2.164602   2.778694   1.092878   2.778385
    22  H    2.586741   2.173920   2.756801   1.094524   3.474923
    23  H    2.750133   2.174031   2.750997   3.474380   1.092183
    24  H    2.651105   2.168418   3.475545   2.766140   1.094674
    25  H    3.373765   2.161628   2.801143   2.754626   1.093531
                   11         12         13         14         15
    11  O    0.000000
    12  O    4.982600   0.000000
    13  H    5.714171   2.292333   0.000000
    14  H    2.493659   2.599333   3.952778   0.000000
    15  H    3.217612   2.879318   3.697949   1.767271   0.000000
    16  H    3.163883   3.847379   3.251428   2.960837   2.684430
    17  H    3.870953   8.639520   8.768966   6.305466   6.490266
    18  H    3.435602   7.671421   7.624821   5.529696   5.284990
    19  H    2.325861   7.179087   7.618587   4.728606   4.945937
    20  H    4.635587   7.801628   7.124110   6.280896   6.584162
    21  H    4.951607   8.960107   8.532124   7.066639   7.317950
    22  H    4.639157   8.068645   7.388618   6.415212   6.295581
    23  H    2.316535   6.746201   7.251318   4.465097   5.455654
    24  H    3.424673   6.968515   6.986853   5.142063   6.080976
    25  H    3.865365   8.267867   8.438161   6.102036   6.903379
                   16         17         18         19         20
    16  H    0.000000
    17  H    5.563572   0.000000
    18  H    4.409903   1.774906   0.000000
    19  H    4.574722   1.776331   1.774549   0.000000
    20  H    4.314249   3.767871   3.762099   4.319330   0.000000
    21  H    5.456215   2.564938   3.140411   3.776513   1.774961
    22  H    4.302136   3.086781   2.552352   3.765852   1.772577
    23  H    4.591394   3.131379   3.745904   2.525185   3.765553
    24  H    4.439365   3.808019   4.309818   3.745898   2.552224
    25  H    5.578138   2.633839   3.808243   3.131695   3.086835
                   21         22         23         24         25
    21  H    0.000000
    22  H    1.774906   0.000000
    23  H    3.776246   4.319328   0.000000
    24  H    3.140173   3.762171   1.774358   0.000000
    25  H    2.564716   3.767928   1.776467   1.775022   0.000000
 Stoichiometry    C7H13NO4
 Framework group  C1[X(C7H13NO4)]
 Deg. of freedom    69
 Full point group                 C1      NOp   1
 Largest Abelian subgroup         C1      NOp   1
 Largest concise Abelian subgroup C1      NOp   1
                         Standard orientation:                         
 ---------------------------------------------------------------------
 Center     Atomic      Atomic             Coordinates (Angstroms)
 Number     Number       Type             X           Y           Z
 ---------------------------------------------------------------------
      1          8           0       -3.329916    1.419440   -0.109170
      2          6           0       -3.419597    0.078899    0.070100
      3          6           0       -2.183402   -0.652783   -0.415735
      4          7           0       -0.993721    0.162769   -0.310731
      5          6           0        0.234392   -0.402101   -0.137431
      6          8           0        1.172866    0.568611   -0.127211
      7          6           0        2.555352    0.217134    0.070616
      8          6           0        3.026897   -0.699834   -1.059269
      9          6           0        3.285374    1.560551    0.021150
     10          6           0        2.734167   -0.448799    1.435910
     11          8           0        0.428288   -1.597058    0.011977
     12          8           0       -4.395624   -0.462526    0.530642
     13          1           0       -4.164528    1.796439    0.216857
     14          1           0       -2.058395   -1.548413    0.191901
     15          1           0       -2.369332   -0.973638   -1.450110
     16          1           0       -1.053726    1.154936   -0.478248
     17          1           0        4.102446   -0.876080   -0.970387
     18          1           0        2.831624   -0.236972   -2.031917
     19          1           0        2.509956   -1.661262   -1.023476
     20          1           0        2.921835    2.228803    0.808013
     21          1           0        4.358705    1.410868    0.162355
     22          1           0        3.127870    2.052693   -0.943719
     23          1           0        2.217019   -1.410108    1.472054
     24          1           0        2.331481    0.191409    2.227294
     25          1           0        3.797082   -0.614194    1.632549
 ---------------------------------------------------------------------
 Rotational constants (GHZ):           2.3033505           0.3833194           0.3599701
 Standard basis: 6-31G(d,p) (6D, 7F)
 There are   245 symmetry adapted cartesian basis functions of A   symmetry.
 There are   245 symmetry adapted basis functions of A   symmetry.
   245 basis functions,   427 primitive gaussians,   245 cartesian basis functions
    47 alpha electrons       47 beta electrons
       nuclear repulsion energy       744.7242328739 Hartrees.
 NAtoms=   25 NActive=   25 NUniq=   25 SFac= 1.00D+00 NAtFMM=   60 NAOKFM=F Big=F
 Integral buffers will be    131072 words long.
 Raffenetti 2 integral format.
 Two-electron integral symmetry is turned on.
 Nuclear repulsion after empirical dispersion term =      744.6858032042 Hartrees.
 One-electron integrals computed using PRISM.
 NBasis=   245 RedAO= T EigKep=  2.56D-03  NBF=   245
 NBsUse=   245 1.00D-06 EigRej= -1.00D+00 NBFU=   245
 Initial guess from the checkpoint file:  "Ac2_conf-5.chk"
 B after Tr=    -0.000000   -0.000000    0.000000
         Rot=    0.999929   -0.011312    0.001202    0.003666 Ang=  -1.37 deg.
 ExpMin= 1.61D-01 ExpMax= 5.48D+03 ExpMxC= 8.25D+02 IAcc=3 IRadAn=         5 AccDes= 0.00D+00
 Harris functional with IExCor=  402 and IRadAn=       5 diagonalized for initial guess.
 HarFok:  IExCor=  402 AccDes= 0.00D+00 IRadAn=         5 IDoV= 1 UseB2=F ITyADJ=14
 ICtDFT=  3500011 ScaDFX=  1.000000  1.000000  1.000000  1.000000
 FoFCou: FMM=F IPFlag=           0 FMFlag=      100000 FMFlg1=           0
         NFxFlg=           0 DoJE=T BraDBF=F KetDBF=T FulRan=T
         wScrn=  0.000000 ICntrl=       500 IOpCl=  0 I1Cent=   200000004 NGrid=           0
         NMat0=    1 NMatS0=      1 NMatT0=    0 NMatD0=    1 NMtDS0=    0 NMtDT0=    0
 Petite list used in FoFCou.
 Requested convergence on RMS density matrix=1.00D-08 within 128 cycles.
 Requested convergence on MAX density matrix=1.00D-06.
 Requested convergence on             energy=1.00D-06.
 No special actions if energy rises.
 Integral accuracy reduced to 1.0D-05 until final iterations.
 Initial convergence to 1.0D-05 achieved.  Increase integral accuracy.
 SCF Done:  E(RB3LYP) =  -630.323859194     A.U. after   12 cycles
            NFock= 12  Conv=0.67D-08     -V/T= 2.0090
 Calling FoFJK, ICntrl=      2127 FMM=F ISym2X=0 I1Cent= 0 IOpClX= 0 NMat=1 NMatS=1 NMatT=0.
 ***** Axes restored to original set *****
 -------------------------------------------------------------------
 Center     Atomic                   Forces (Hartrees/Bohr)
 Number     Number              X              Y              Z
 -------------------------------------------------------------------
      1        8          -0.000090031    0.000375649    0.000118126
      2        6          -0.000431251   -0.002521403   -0.000686963
      3        6           0.001073509    0.005034021   -0.002137098
      4        7          -0.000535477   -0.000902896    0.001312467
      5        6           0.003496621   -0.000851764   -0.000449227
      6        8           0.006672010    0.003082543    0.008801681
      7        6          -0.009226565   -0.001194726   -0.010198867
      8        6          -0.002675565   -0.002012582    0.001381022
      9        6           0.001140274    0.000631075    0.001325475
     10        6           0.001806174   -0.001820874   -0.002698078
     11        8           0.001268514   -0.003125399    0.002809054
     12        8           0.000577488    0.000177761    0.001132201
     13        1          -0.000055551   -0.000025990    0.000002090
     14        1          -0.000893627   -0.000765969    0.000130500
     15        1           0.000343031   -0.001532866    0.001326601
     16        1           0.000028544   -0.000151716    0.000299027
     17        1          -0.000389697    0.000633432   -0.000093267
     18        1          -0.000258621    0.000826950   -0.000423438
     19        1          -0.000170914    0.002068882   -0.000726356
     20        1          -0.000151526   -0.000633001   -0.000072210
     21        1          -0.000128446   -0.000296975   -0.000170634
     22        1          -0.000012644   -0.000628142   -0.000190544
     23        1          -0.000826868    0.002121247   -0.000185655
     24        1          -0.000446937    0.000804410   -0.000252692
     25        1          -0.000112447    0.000708334   -0.000353214
 -------------------------------------------------------------------
 Cartesian Forces:  Max     0.010198867 RMS     0.002442567

 GradGradGradGradGradGradGradGradGradGradGradGradGradGradGradGradGradGrad
 Berny optimization.
 Using GEDIIS/GDIIS optimizer.
 FormGI is forming the generalized inverse of G from B-inverse, IUseBI=4.
 Internal  Forces:  Max     0.017103707 RMS     0.002477800
 Search for a local minimum.
 Step number   2 out of a maximum of  125
 All quantities printed in internal units (Hartrees-Bohrs-Radians)
 Mixed Optimization -- RFO/linear search
 Update second derivatives using D2CorX and points    1    2
 DE= -4.24D-03 DEPred=-4.97D-03 R= 8.53D-01
 TightC=F SS=  1.41D+00  RLast= 2.50D-01 DXNew= 5.0454D-01 7.4929D-01
 Trust test= 8.53D-01 RLast= 2.50D-01 DXMaxT set to 5.05D-01
 ITU=  1  0
 Use linear search instead of GDIIS.
     Eigenvalues ---    0.00230   0.00231   0.00283   0.00283   0.00704
     Eigenvalues ---    0.00774   0.01246   0.01266   0.02001   0.02155
     Eigenvalues ---    0.02267   0.02377   0.04368   0.04891   0.05468
     Eigenvalues ---    0.05490   0.05513   0.05562   0.05577   0.05600
     Eigenvalues ---    0.06144   0.06466   0.06734   0.09825   0.12640
     Eigenvalues ---    0.14968   0.15914   0.16000   0.16000   0.16000
     Eigenvalues ---    0.16000   0.16000   0.16000   0.16000   0.16000
     Eigenvalues ---    0.16013   0.16036   0.16565   0.20995   0.22026
     Eigenvalues ---    0.23992   0.24991   0.24999   0.25000   0.27645
     Eigenvalues ---    0.28273   0.28448   0.28816   0.31136   0.33251
     Eigenvalues ---    0.34500   0.34754   0.34764   0.34793   0.34800
     Eigenvalues ---    0.34816   0.34829   0.34835   0.34842   0.34909
     Eigenvalues ---    0.35112   0.44766   0.46362   0.50745   0.53664
     Eigenvalues ---    0.54855   0.57682   0.92354   1.01769
 RFO step:  Lambda=-2.24909849D-03 EMin= 2.29999580D-03
 Quartic linear search produced a step of -0.11724.
 Iteration  1 RMS(Cart)=  0.05035267 RMS(Int)=  0.00104744
 Iteration  2 RMS(Cart)=  0.00149216 RMS(Int)=  0.00010225
 Iteration  3 RMS(Cart)=  0.00000178 RMS(Int)=  0.00010224
 Iteration  4 RMS(Cart)=  0.00000000 RMS(Int)=  0.00010224
 Variable       Old X    -DE/DX   Delta X   Delta X   Delta X     New X
                                 (Linear)    (Quad)   (Total)
    R1        2.56142   0.00035   0.00024  -0.00015   0.00009   2.56151
    R2        1.83702  -0.00005  -0.00293   0.00877   0.00584   1.84286
    R3        2.86565  -0.00025   0.00443  -0.01435  -0.00992   2.85572
    R4        2.28170   0.00046  -0.00028   0.00124   0.00096   2.28265
    R5        2.73292  -0.00041   0.00630  -0.02020  -0.01390   2.71902
    R6        2.05885   0.00043   0.00073  -0.00115  -0.00042   2.05843
    R7        2.07651   0.00132  -0.00205   0.00954   0.00750   2.08400
    R8        2.57542   0.00105   0.00305  -0.00737  -0.00432   2.57110
    R9        1.90484  -0.00004  -0.00007   0.00013   0.00006   1.90490
   R10        2.55156   0.00664  -0.00045   0.01187   0.01142   2.56298
   R11        2.30503   0.00146   0.00177  -0.00390  -0.00213   2.30290
   R12        2.72143   0.01710  -0.00176   0.04215   0.04039   2.76182
   R13        2.89062   0.00225   0.00292  -0.00199   0.00093   2.89155
   R14        2.89082  -0.00116   0.00149  -0.00808  -0.00659   2.88423
   R15        2.89040   0.00233   0.00293  -0.00180   0.00113   2.89152
   R16        2.06644   0.00042  -0.00082   0.00354   0.00272   2.06916
   R17        2.06873   0.00003  -0.00108   0.00336   0.00228   2.07101
   R18        2.06392  -0.00214  -0.00046  -0.00399  -0.00445   2.05947
   R19        2.06826  -0.00041  -0.00088   0.00163   0.00076   2.06902
   R20        2.06524   0.00017  -0.00061   0.00228   0.00167   2.06691
   R21        2.06835  -0.00041  -0.00090   0.00170   0.00080   2.06915
   R22        2.06393  -0.00224  -0.00044  -0.00429  -0.00473   2.05920
   R23        2.06863   0.00002  -0.00104   0.00322   0.00219   2.07082
   R24        2.06647   0.00043  -0.00083   0.00361   0.00278   2.06926
    A1        1.85708  -0.00003  -0.00425   0.01319   0.00894   1.86602
    A2        1.96155  -0.00090   0.00241  -0.01096  -0.00875   1.95280
    A3        2.15007  -0.00052  -0.00040  -0.00102  -0.00162   2.14845
    A4        2.17100   0.00141  -0.00204   0.01082   0.00858   2.17958
    A5        1.95546   0.00258  -0.00195   0.01845   0.01648   1.97193
    A6        1.88756  -0.00013  -0.00100   0.00552   0.00454   1.89210
    A7        1.88025  -0.00179   0.00210  -0.01655  -0.01451   1.86574
    A8        1.90572  -0.00076   0.00505  -0.01681  -0.01179   1.89393
    A9        1.95218   0.00035  -0.00281   0.01385   0.01107   1.96325
   A10        1.88008  -0.00038  -0.00138  -0.00537  -0.00676   1.87333
   A11        2.11390  -0.00090   0.00379  -0.01523  -0.01145   2.10245
   A12        2.08752   0.00016  -0.00032   0.00116   0.00084   2.08836
   A13        2.07458   0.00073  -0.00347   0.01416   0.01070   2.08528
   A14        1.90638  -0.00122  -0.00161   0.00101  -0.00087   1.90550
   A15        2.17106  -0.00396   0.00256  -0.02140  -0.01911   2.15196
   A16        2.20543   0.00521  -0.00092   0.02135   0.02015   2.22558
   A17        2.08611   0.01512   0.01055   0.02027   0.03082   2.11694
   A18        1.91853   0.00113   0.00361   0.00567   0.00899   1.92752
   A19        1.81249  -0.00184  -0.00004  -0.02559  -0.02566   1.78683
   A20        1.91889   0.00123   0.00358   0.00645   0.00974   1.92864
   A21        1.93419  -0.00083  -0.00351  -0.00268  -0.00608   1.92811
   A22        1.94154   0.00110  -0.00023   0.01667   0.01650   1.95804
   A23        1.93416  -0.00094  -0.00353  -0.00312  -0.00655   1.92762
   A24        1.91749  -0.00026   0.00333  -0.01371  -0.01039   1.90709
   A25        1.92606  -0.00040   0.00172  -0.00795  -0.00626   1.91981
   A26        1.93648  -0.00010   0.00168  -0.00374  -0.00204   1.93443
   A27        1.89211  -0.00018  -0.00122  -0.00148  -0.00275   1.88936
   A28        1.89757   0.00027  -0.00308   0.01180   0.00874   1.90631
   A29        1.89324   0.00067  -0.00279   0.01576   0.01299   1.90622
   A30        1.93311  -0.00048   0.00112  -0.00590  -0.00478   1.92833
   A31        1.92221  -0.00030   0.00306  -0.01181  -0.00876   1.91345
   A32        1.93339  -0.00048   0.00112  -0.00592  -0.00480   1.92859
   A33        1.89331   0.00035  -0.00171   0.00673   0.00501   1.89832
   A34        1.88751   0.00060  -0.00221   0.01113   0.00892   1.89643
   A35        1.89316   0.00036  -0.00168   0.00668   0.00499   1.89815
   A36        1.93627  -0.00001   0.00172  -0.00326  -0.00153   1.93475
   A37        1.92589  -0.00040   0.00172  -0.00805  -0.00635   1.91954
   A38        1.91771  -0.00034   0.00334  -0.01423  -0.01091   1.90680
   A39        1.89300   0.00064  -0.00281   0.01576   0.01296   1.90595
   A40        1.89776   0.00028  -0.00309   0.01202   0.00895   1.90670
   A41        1.89232  -0.00016  -0.00124  -0.00155  -0.00285   1.88948
    D1        3.12791  -0.00023  -0.00061  -0.01761  -0.01811   3.10980
    D2        0.02105   0.00019   0.00025   0.01751   0.01766   0.03870
    D3        0.51597   0.00010   0.00026  -0.03474  -0.03451   0.48146
    D4        2.61718   0.00067   0.00465  -0.04059  -0.03589   2.58129
    D5       -1.63839  -0.00077   0.00361  -0.05267  -0.04900  -1.68739
    D6       -2.66084  -0.00037  -0.00057  -0.07063  -0.07128  -2.73212
    D7       -0.55963   0.00020   0.00383  -0.07648  -0.07266  -0.63229
    D8        1.46799  -0.00124   0.00278  -0.08856  -0.08577   1.38222
    D9        2.65092   0.00023   0.00144  -0.01898  -0.01759   2.63333
   D10       -0.62068   0.00025   0.00118  -0.01707  -0.01595  -0.63663
   D11        0.56031  -0.00074   0.00060  -0.02637  -0.02576   0.53455
   D12       -2.71129  -0.00072   0.00033  -0.02446  -0.02411  -2.73540
   D13       -1.51892   0.00000   0.00084  -0.01734  -0.01646  -1.53538
   D14        1.49267   0.00002   0.00057  -0.01542  -0.01482   1.47785
   D15        3.09684  -0.00081  -0.00118  -0.02364  -0.02460   3.07224
   D16       -0.07005   0.00068   0.00227   0.01552   0.01757  -0.05248
   D17        0.08431  -0.00078  -0.00114  -0.02461  -0.02552   0.05878
   D18       -3.08258   0.00070   0.00232   0.01455   0.01665  -3.06594
   D19        3.11982   0.00061   0.00202   0.01655   0.01898   3.13880
   D20        0.00415  -0.00074  -0.00151  -0.02279  -0.02472  -0.02058
   D21        1.07353   0.00132   0.00252   0.00551   0.00803   1.08156
   D22       -3.13963  -0.00012   0.00012  -0.00890  -0.00878   3.13477
   D23       -1.06947  -0.00163  -0.00232  -0.02347  -0.02580  -1.09527
   D24        3.03220  -0.00197  -0.00302  -0.01531  -0.01835   3.01384
   D25        0.94679  -0.00134  -0.00480   0.00013  -0.00472   0.94207
   D26       -1.15220  -0.00186  -0.00355  -0.01194  -0.01553  -1.16774
[...]
 Alpha  occ. eigenvalues --   -1.13866  -1.04814  -0.91630  -0.84526  -0.79040
 Alpha  occ. eigenvalues --   -0.78777  -0.73153  -0.70177  -0.66309  -0.60171
 Alpha  occ. eigenvalues --   -0.59650  -0.59285  -0.56369  -0.55693  -0.54975
 Alpha  occ. eigenvalues --   -0.52293  -0.52245  -0.50909  -0.48939  -0.48640
 Alpha  occ. eigenvalues --   -0.47151  -0.45830  -0.45446  -0.43475  -0.43024
 Alpha  occ. eigenvalues --   -0.41991  -0.40617  -0.40525  -0.38748  -0.36955
 Alpha  occ. eigenvalues --   -0.35634  -0.32995
 Alpha virt. eigenvalues --    0.03761   0.04708   0.06701   0.07384   0.08643
 Alpha virt. eigenvalues --    0.10400   0.10459   0.11882   0.11971   0.13447
 Alpha virt. eigenvalues --    0.13840   0.14847   0.16054   0.16340   0.17326
 Alpha virt. eigenvalues --    0.18154   0.18375   0.18682   0.19695   0.20021
 Alpha virt. eigenvalues --    0.20209   0.21001   0.22571   0.23273   0.24006
 Alpha virt. eigenvalues --    0.25661   0.27269   0.29240   0.30166   0.30495
 Alpha virt. eigenvalues --    0.30883   0.31911   0.32883   0.33586   0.34944
 Alpha virt. eigenvalues --    0.35502   0.36502   0.37830   0.38561   0.38722
 Alpha virt. eigenvalues --    0.39298   0.39934   0.40542   0.41869   0.42598
 Alpha virt. eigenvalues --    0.44301   0.44950   0.45059   0.45779   0.47018
 Alpha virt. eigenvalues --    0.47707   0.47975   0.48246   0.48587   0.49231
 Alpha virt. eigenvalues --    0.50316   0.50941   0.51142   0.52297   0.52765
 Alpha virt. eigenvalues --    0.53113   0.54458   0.55386   0.55889   0.56320
 Alpha virt. eigenvalues --    0.57231   0.59512   0.60457   0.61109   0.61389
 Alpha virt. eigenvalues --    0.63555   0.63986   0.65719   0.66617   0.68208
 Alpha virt. eigenvalues --    0.69391   0.70439   0.72270   0.73103   0.73566
 Alpha virt. eigenvalues --    0.75938   0.79096   0.79705   0.82659   0.84676
 Alpha virt. eigenvalues --    0.85249   0.86254   0.86736   0.87856   0.90212
 Alpha virt. eigenvalues --    0.90851   0.92500   0.93346   0.94951   0.96212
 Alpha virt. eigenvalues --    0.98015   0.98959   0.99692   1.00939   1.02111
 Alpha virt. eigenvalues --    1.03233   1.03950   1.04423   1.05230   1.07036
 Alpha virt. eigenvalues --    1.11475   1.12168   1.13632   1.14114   1.15777
 Alpha virt. eigenvalues --    1.16322   1.17618   1.21705   1.24133   1.26061
 Alpha virt. eigenvalues --    1.27435   1.30604   1.32293   1.34387   1.34810
 Alpha virt. eigenvalues --    1.37384   1.39170   1.40076   1.43578   1.44648
 Alpha virt. eigenvalues --    1.46566   1.48647   1.49539   1.51126   1.52918
 Alpha virt. eigenvalues --    1.54771   1.56197   1.57086   1.57553   1.58564
 Alpha virt. eigenvalues --    1.59079   1.60830   1.61794   1.63114   1.63420
 Alpha virt. eigenvalues --    1.63861   1.64919   1.65560   1.66149   1.66990
 Alpha virt. eigenvalues --    1.68229   1.69004   1.70205   1.70900   1.73618
 Alpha virt. eigenvalues --    1.74901   1.76513   1.78798   1.79261   1.81906
 Alpha virt. eigenvalues --    1.82106   1.84310   1.86257   1.88007   1.89043
 Alpha virt. eigenvalues --    1.90347   1.92228   1.93637   1.95844   1.97011
 Alpha virt. eigenvalues --    1.98490   1.99475   2.01050   2.02363   2.03451
 Alpha virt. eigenvalues --    2.04664   2.08321   2.08436   2.10188   2.10340
 Alpha virt. eigenvalues --    2.12200   2.14128   2.16406   2.16947   2.18155
 Alpha virt. eigenvalues --    2.19224   2.20864   2.23328   2.25371   2.26576
 Alpha virt. eigenvalues --    2.27642   2.29776   2.30579   2.30888   2.31750
 Alpha virt. eigenvalues --    2.33688   2.34234   2.34931   2.35499   2.37175
 Alpha virt. eigenvalues --    2.37610   2.40280   2.40829   2.41946   2.42120
 Alpha virt. eigenvalues --    2.44259   2.45750   2.47239   2.49654   2.50419
 Alpha virt. eigenvalues --    2.52529   2.55527   2.55893   2.56619   2.57130
 Alpha virt. eigenvalues --    2.59537   2.60789   2.61372   2.62143   2.65131
 Alpha virt. eigenvalues --    2.66387   2.67462   2.67757   2.68650   2.71337
 Alpha virt. eigenvalues --    2.74759   2.75909   2.77431   2.79705   2.80065
 Alpha virt. eigenvalues --    2.81175   2.82131   2.84589   2.86113   2.86870
 Alpha virt. eigenvalues --    2.88181   2.89814   2.90782   2.92170   2.94088
 Alpha virt. eigenvalues --    2.96414   2.97724   2.99005   3.01955   3.02581
 Alpha virt. eigenvalues --    3.03599   3.06585   3.07396   3.08109   3.10030
 Alpha virt. eigenvalues --    3.11304   3.12475   3.13108   3.15759   3.16505
 Alpha virt. eigenvalues --    3.17459   3.18125   3.19945   3.20527   3.22570
 Alpha virt. eigenvalues --    3.23121   3.24838   3.25884   3.27746   3.30035
 Alpha virt. eigenvalues --    3.30632   3.32241   3.32802   3.33056   3.33389
 Alpha virt. eigenvalues --    3.34184   3.34740   3.35976   3.37234   3.37342
 Alpha virt. eigenvalues --    3.38317   3.39064   3.39997   3.40647   3.43105
 Alpha virt. eigenvalues --    3.43514   3.46861   3.47222   3.50674   3.51812
 Alpha virt. eigenvalues --    3.53791   3.55260   3.58868   3.59570   3.64137
 Alpha virt. eigenvalues --    3.64698   3.66011   3.66173   3.69143   3.72200
 Alpha virt. eigenvalues --    3.73098   3.75846   3.80216   3.82053   3.83158
 Alpha virt. eigenvalues --    3.85397   3.90224   3.93970   3.95589   3.97664
 Alpha virt. eigenvalues --    4.00335   4.02150   4.02458   4.03850   4.04589
 Alpha virt. eigenvalues --    4.08299   4.10577   4.11073   4.11685   4.15252
 Alpha virt. eigenvalues --    4.22817   4.28644   4.32284   4.32952   4.35834
 Alpha virt. eigenvalues --    4.36701   4.38995   4.40584   4.42796   4.43867
 Alpha virt. eigenvalues --    4.46175   4.49549   4.52578   4.53744   4.63626
 Alpha virt. eigenvalues --    4.66099   4.70162   4.72898   4.75169   4.82353
 Alpha virt. eigenvalues --    4.84021   4.85794   4.87670   4.90179   4.97699
 Alpha virt. eigenvalues --    5.01629   5.09837   5.15209   5.16395   5.16860
 Alpha virt. eigenvalues --    5.20134   5.20982   5.24186   5.26426   5.30011
 Alpha virt. eigenvalues --    5.35551   5.36030   5.38134   5.40414   5.42159
 Alpha virt. eigenvalues --    5.48867   5.51438   5.56281   5.59790   5.67160
 Alpha virt. eigenvalues --    5.71246   5.74475   5.77906   5.87620   5.88147
 Alpha virt. eigenvalues --    5.92951   6.02803   6.12132   6.14833   6.18770
 Alpha virt. eigenvalues --    6.20696   6.24053   6.32163   6.34922   6.39957
 Alpha virt. eigenvalues --    6.40855   6.44166   6.46837   6.54568   6.63380
 Alpha virt. eigenvalues --    6.67331   6.68293   6.70354   6.75333   6.79966
 Alpha virt. eigenvalues --    6.80653   6.88426   6.90599   6.94890   7.06294
 Alpha virt. eigenvalues --    7.07360   7.08364   7.14646   7.29628   7.38698
 Alpha virt. eigenvalues --    7.42516  22.48550  22.52202  22.53613  22.61769
 Alpha virt. eigenvalues --   22.71051  23.28589  23.54012  32.57428  43.91432
 Alpha virt. eigenvalues --   43.98416  44.09444  44.57345
          Condensed to atoms (all electrons):
               1          2          3          4          5          6
     1  O    7.928879   0.381061  -0.124858   0.011388  -0.000765  -0.000056
     2  C    0.381061   4.462815   0.265405  -0.027508   0.006898  -0.000208
     3  C   -0.124858   0.265405   5.290440   0.132459  -0.037395   0.004485
     4  N    0.011388  -0.027508   0.132459   6.706296   0.403347  -0.106666
     5  C   -0.000765   0.006898  -0.037395   0.403347   4.258301   0.368956
     6  O   -0.000056  -0.000208   0.004485  -0.106666   0.368956   8.058277
     7  C   -0.000254   0.000034  -0.001448   0.009733  -0.048316   0.171736
     8  C   -0.000001  -0.000010   0.000123  -0.001744  -0.009289  -0.040203
     9  C   -0.000012   0.000012  -0.000086   0.000337  -0.001663  -0.055057
    10  C    0.000227   0.000056   0.000549  -0.002223  -0.004477  -0.041140
    11  O   -0.000354   0.001397   0.003725  -0.096041   0.598481  -0.074753
    12  O   -0.089985   0.672452  -0.094608   0.009024  -0.000247  -0.000000
    13  H    0.291106  -0.027518   0.021259  -0.002719  -0.000302   0.000029
    14  H    0.002977  -0.038684   0.392068  -0.011590  -0.015944   0.000716
    15  H    0.002244  -0.040415   0.405257  -0.028207   0.003930   0.000003
    16  H    0.002221  -0.005938  -0.032365   0.381406  -0.046797   0.007389
    17  H   -0.000000  -0.000000  -0.000008   0.000040   0.001981   0.004925
    18  H    0.000000   0.000001   0.000024   0.000102  -0.002182   0.001356
    19  H    0.000000   0.000006  -0.000170   0.000518  -0.004553  -0.002498
    20  H   -0.000001  -0.000000  -0.000005  -0.000073  -0.000858  -0.000669
    21  H   -0.000000   0.000000  -0.000001   0.000006   0.000389   0.005649
    22  H    0.000000  -0.000000   0.000004  -0.000008  -0.000615  -0.000448
    23  H    0.000028   0.000053  -0.000009   0.000290  -0.004595  -0.002578
    24  H    0.000314   0.000026  -0.000085   0.000155  -0.002078   0.001442
    25  H    0.000010   0.000000   0.000004  -0.000006   0.001569   0.005090
               7          8          9         10         11         12
     1  O   -0.000254  -0.000001  -0.000012   0.000227  -0.000354  -0.089985
     2  C    0.000034  -0.000010   0.000012   0.000056   0.001397   0.672452
     3  C   -0.001448   0.000123  -0.000086   0.000549   0.003725  -0.094608
     4  N    0.009733  -0.001744   0.000337  -0.002223  -0.096041   0.009024
     5  C   -0.048316  -0.009289  -0.001663  -0.004477   0.598481  -0.000247
     6  O    0.171736  -0.040203  -0.055057  -0.041140  -0.074753  -0.000000
     7  C    5.055224   0.302377   0.309453   0.296507   0.041550  -0.000001
     8  C    0.302377   5.232182  -0.096172  -0.097996  -0.030126  -0.000000
     9  C    0.309453  -0.096172   5.152303  -0.096340   0.001238   0.000000
    10  C    0.296507  -0.097996  -0.096340   5.235889  -0.029106  -0.000001
    11  O    0.041550  -0.030126   0.001238  -0.029106   7.977467  -0.000086
    12  O   -0.000001  -0.000000   0.000000  -0.000001  -0.000086   7.813611
    13  H   -0.000004   0.000001  -0.000001   0.000013   0.000031   0.006639
    14  H   -0.000144   0.000054   0.000003   0.000026   0.010780   0.006778
    15  H   -0.000005  -0.000005  -0.000004   0.000004   0.001247   0.003312
    16  H   -0.000724   0.000288  -0.000299   0.000347   0.003597   0.000150
    17  H   -0.023609   0.397759  -0.012948  -0.006120   0.000759   0.000000
    18  H   -0.030847   0.396800  -0.010385   0.013280  -0.000197  -0.000000
    19  H   -0.024443   0.407932   0.011736  -0.010466   0.008007   0.000000
    20  H   -0.028332   0.013627   0.404060  -0.012969   0.000003  -0.000000
    21  H   -0.027534  -0.009741   0.408266  -0.009662   0.000079  -0.000000
    22  H   -0.028780  -0.012681   0.403992   0.013648   0.000006   0.000000
    23  H   -0.024460  -0.010353   0.011607   0.408788   0.007685  -0.000001
    24  H   -0.030683   0.013215  -0.010417   0.395537  -0.000272   0.000001
    25  H   -0.023373  -0.005757  -0.012724   0.397046   0.000687  -0.000000
              13         14         15         16         17         18
     1  O    0.291106   0.002977   0.002244   0.002221  -0.000000   0.000000
     2  C   -0.027518  -0.038684  -0.040415  -0.005938  -0.000000   0.000001
     3  C    0.021259   0.392068   0.405257  -0.032365  -0.000008   0.000024
     4  N   -0.002719  -0.011590  -0.028207   0.381406   0.000040   0.000102
     5  C   -0.000302  -0.015944   0.003930  -0.046797   0.001981  -0.002182
     6  O    0.000029   0.000716   0.000003   0.007389   0.004925   0.001356
     7  C   -0.000004  -0.000144  -0.000005  -0.000724  -0.023609  -0.030847
     8  C    0.000001   0.000054  -0.000005   0.000288   0.397759   0.396800
     9  C   -0.000001   0.000003  -0.000004  -0.000299  -0.012948  -0.010385
    10  C    0.000013   0.000026   0.000004   0.000347  -0.006120   0.013280
    11  O    0.000031   0.010780   0.001247   0.003597   0.000759  -0.000197
    12  O    0.006639   0.006778   0.003312   0.000150   0.000000  -0.000000
    13  H    0.373256  -0.000789  -0.000579  -0.000291  -0.000000   0.000000
    14  H   -0.000789   0.459067  -0.008381   0.005358   0.000000  -0.000013
    15  H   -0.000579  -0.008381   0.487532  -0.003530   0.000000   0.000000
    16  H   -0.000291   0.005358  -0.003530   0.437203  -0.000006  -0.000004
    17  H   -0.000000   0.000000   0.000000  -0.000006   0.528251  -0.021528
    18  H    0.000000  -0.000013   0.000000  -0.000004  -0.021528   0.520546
    19  H   -0.000000   0.000065   0.000001  -0.000049  -0.019051  -0.020520
    20  H    0.000000  -0.000000  -0.000000   0.000046  -0.000068  -0.000328
    21  H    0.000000  -0.000000   0.000000   0.000007   0.001383   0.000712
    22  H   -0.000000  -0.000001   0.000000   0.000005   0.000620   0.002773
    23  H    0.000003  -0.000018  -0.000000  -0.000106   0.000384  -0.000106
    24  H    0.000004   0.000001  -0.000001   0.000048  -0.000113  -0.000506
    25  H    0.000001  -0.000002  -0.000000  -0.000010  -0.000105  -0.000126
              19         20         21         22         23         24
     1  O    0.000000  -0.000001  -0.000000   0.000000   0.000028   0.000314
     2  C    0.000006  -0.000000   0.000000  -0.000000   0.000053   0.000026
     3  C   -0.000170  -0.000005  -0.000001   0.000004  -0.000009  -0.000085
     4  N    0.000518  -0.000073   0.000006  -0.000008   0.000290   0.000155
     5  C   -0.004553  -0.000858   0.000389  -0.000615  -0.004595  -0.002078
     6  O   -0.002498  -0.000669   0.005649  -0.000448  -0.002578   0.001442
     7  C   -0.024443  -0.028332  -0.027534  -0.028780  -0.024460  -0.030683
     8  C    0.407932   0.013627  -0.009741  -0.012681  -0.010353   0.013215
     9  C    0.011736   0.404060   0.408266   0.403992   0.011607  -0.010417
    10  C   -0.010466  -0.012969  -0.009662   0.013648   0.408788   0.395537
    11  O    0.008007   0.000003   0.000079   0.000006   0.007685  -0.000272
    12  O    0.000000  -0.000000  -0.000000   0.000000  -0.000001   0.000001
    13  H   -0.000000   0.000000   0.000000  -0.000000   0.000003   0.000004
    14  H    0.000065  -0.000000  -0.000000  -0.000001  -0.000018   0.000001
    15  H    0.000001  -0.000000   0.000000   0.000000  -0.000000  -0.000001
    16  H   -0.000049   0.000046   0.000007   0.000005  -0.000106   0.000048
    17  H   -0.019051  -0.000068   0.001383   0.000620   0.000384  -0.000113
    18  H   -0.020520  -0.000328   0.000712   0.002773  -0.000106  -0.000506
    19  H    0.465709  -0.000356  -0.000061  -0.000136   0.002236  -0.000110
    20  H   -0.000356   0.515857  -0.023368  -0.021397  -0.000138   0.002744
    21  H   -0.000061  -0.023368   0.532326  -0.023184  -0.000055   0.000722
    22  H   -0.000136  -0.021397  -0.023184   0.514227  -0.000346  -0.000334
    23  H    0.002236  -0.000138  -0.000055  -0.000346   0.465140  -0.020654
    24  H   -0.000110   0.002744   0.000722  -0.000334  -0.020654   0.523045
    25  H    0.000293   0.000627   0.001397  -0.000080  -0.019171  -0.021519
              25
     1  O    0.000010
     2  C    0.000000
     3  C    0.000004
     4  N   -0.000006
     5  C    0.001569
     6  O    0.005090
     7  C   -0.023373
     8  C   -0.005757
     9  C   -0.012724
    10  C    0.397046
    11  O    0.000687
    12  O   -0.000000
    13  H    0.000001
    14  H   -0.000002
    15  H   -0.000000
    16  H   -0.000010
    17  H   -0.000105
    18  H   -0.000126
    19  H    0.000293
    20  H    0.000627
    21  H    0.001397
    22  H   -0.000080
    23  H   -0.019171
    24  H   -0.021519
    25  H    0.528899
 Mulliken charges:
               1
     1  O   -0.404170
     2  C    0.350065
     3  C   -0.224766
     4  N   -0.378316
     5  C    0.536224
     6  O   -0.305779
     7  C    0.106343
     8  C   -0.450278
     9  C   -0.406899
    10  C   -0.451416
    11  O   -0.425804
    12  O   -0.327038
    13  H    0.339861
    14  H    0.197673
    15  H    0.177597
    16  H    0.252053
    17  H    0.147453
    18  H    0.151147
    19  H    0.185910
    20  H    0.151598
    21  H    0.142669
    22  H    0.152732
    23  H    0.186375
    24  H    0.149516
    25  H    0.147249
 Sum of Mulliken charges =  -0.00000
 Mulliken charges with hydrogens summed into heavy atoms:
               1
     1  O   -0.064308
     2  C    0.350065
     3  C    0.150504
     4  N   -0.126263
     5  C    0.536224
     6  O   -0.305779
     7  C    0.106343
     8  C    0.034232
     9  C    0.040101
    10  C    0.031724
    11  O   -0.425804
    12  O   -0.327038
 Electronic spatial extent (au):  <R**2>=           2725.9471
 Charge=              0.0000 electrons
 Dipole moment (field-independent basis, Debye):
    X=              1.9578    Y=              1.3901    Z=             -2.4407  Tot=              3.4238
 Quadrupole moment (field-independent basis, Debye-Ang):
   XX=            -76.2757   YY=            -67.7532   ZZ=            -72.8918
   XY=             -1.2089   XZ=              5.8942   YZ=              2.5068
 Traceless Quadrupole moment (field-independent basis, Debye-Ang):
   XX=             -3.9688   YY=              4.5537   ZZ=             -0.5849
   XY=             -1.2089   XZ=              5.8942   YZ=              2.5068
 Octapole moment (field-independent basis, Debye-Ang**2):
  XXX=             68.0342  YYY=             15.3958  ZZZ=             -9.7048  XYY=            -25.1390
  XXY=              9.2967  XXZ=            -15.4919  XZZ=            -10.0938  YZZ=              2.2811
  YYZ=              0.9208  XYZ=             -2.7065
 Hexadecapole moment (field-independent basis, Debye-Ang**3):
 XXXX=          -3083.9372 YYYY=           -409.0365 ZZZZ=           -337.6845 XXXY=            -30.3752
 XXXZ=             87.4864 YYYX=            -55.2110 YYYZ=              0.3420 ZZZX=              4.7213
 ZZZY=              2.1478 XXYY=           -471.9194 XXZZ=           -512.3698 YYZZ=           -134.5132
 XXYZ=             12.8920 YYXZ=             -9.0253 ZZXY=             -2.9020
 N-N= 7.595704115288D+02 E-N=-2.993958595567D+03  KE= 6.271352296642D+02
 Unable to Open any file for archive entry.
 1\1\GINC-NOTCH076\SP\RM062X\def2TZVP\C7H13N1O4\U6032257\05-Feb-2022\0\
 \# M062X/def2tzvp int=(grid=ultrafine) nmr=giao guess=read geom=check\
 \Ac2.xyz\\0,1\O,0,4.1327554723,-0.0420582389,-0.7639269811\C,0,3.89457
 32968,-1.0327535215,0.1245964807\C,0,2.4475072305,-1.0688277895,0.6034
 817894\N,0,1.5620603113,-0.0822515737,0.0387805546\C,0,1.0342121521,-0
 .3063565971,-1.2118544958\O,0,0.4963019435,0.8391643845,-1.6795896677\
 C,0,-0.1613533208,0.8703916168,-2.9949752978\C,0,-1.3704465913,-0.0661
 379703,-2.995037768\C,0,-0.6016838943,2.3286392976,-3.1110311511\C,0,0
 .848603593,0.5171807669,-4.088077745\O,0,1.0430438514,-1.3923200346,-1
 .7658382375\O,0,4.7442401835,-1.8032909879,0.5071606847\H,0,5.06896720
 55,-0.1258359332,-1.012048423\H,0,2.0609720096,-2.0595649954,0.3550940
 389\H,0,2.4633654933,-0.9869089594,1.6940873316\H,0,1.7092199768,0.887
 0990458,0.2797275714\H,0,-1.9215065431,0.049078718,-3.9334610646\H,0,-
 2.0436314366,0.1866998829,-2.1704573298\H,0,-1.0577620871,-1.104929809
 ,-2.8930035358\H,0,0.2629141378,2.9964189983,-3.0639368138\H,0,-1.1140
 72747,2.4894303775,-4.0635913111\H,0,-1.286130034,2.5894604223,-2.2992
 127617\H,0,1.1747865059,-0.5184330058,-3.9969816613\H,0,1.7217700179,1
 .1729613818,-4.0202770479\H,0,0.388393273,0.660344524,-5.0705271583\\V
 ersion=ES64L-G16RevC.01\State=1-A\HF=-630.2673627\RMSD=1.909e-09\Dipol
 e=-0.3028442,1.3040146,-0.1494699\Quadrupole=0.3845733,-3.9883863,3.60
 38131,3.9043196,-1.6206107,1.1278865\PG=C01 [X(C7H13N1O4)]\\@
 The archive entry for this job was punched.


 ERROR IS A HARDY PLANT... IT FLOURISHETH IN EVERY SOIL.
            MARTIN FARQUHAR TUPPER
 Job cpu time:       0 days  0 hours 31 minutes 17.6 seconds.
 Elapsed time:       0 days  0 hours  1 minutes  6.0 seconds.
 File lengths (MBytes):  RWF=    117 Int=      0 D2E=      0 Chk=     20 Scr=      1
 Normal termination of Gaussian 16 at Sat Feb  5 09:18:51 2022.
