 Entering Gaussian System, Link 0=/uufs/chpc.utah.edu/sys/installdir/gaussian16/C01/AVX2/g16/g16
 Input=Ac2_conf-1.com
 Output=Ac2_conf-1.log
 Initial command:
 /uufs/chpc.utah.edu/sys/installdir/gaussian16/C01/AVX2/g16/l1.exe "/scratch/general/lustre/u6032257/3867918/notchpeak.peaks/Gau-161260.inp" -scrdir="/scratch/general/lustre/u6032257/3867918/notchpeak.peaks/"
 Entering Link 1 = /uufs/chpc.utah.edu/sys/installdir/gaussian16/C01/AVX2/g16/l1.exe PID=    161262.
  
 Copyright (c) 1988-2019, Gaussian, Inc.  All Rights Reserved.
  
 This is part of the Gaussian(R) 16 program.  It is based on
 the Gaussian(R) 09 system (copyright 2009, Gaussian, Inc.),
 the Gaussian(R) 03 system (copyright 2003, Gaussian, Inc.),
 the Gaussian(R) 98 system (copyright 1998, Gaussian, Inc.),
 the Gaussian(R) 94 system (copyright 1995, Gaussian, Inc.),
 the Gaussian 92(TM) system (copyright 1992, Gaussian, Inc.),
 the Gaussian 90(TM) system (copyright 1990, Gaussian, Inc.),
 the Gaussian 88(TM) system (copyright 1988, Gaussian, Inc.),
 the Gaussian 86(TM) system (copyright 1986, Carnegie Mellon
 University), and the Gaussian 82(TM) system (copyright 1983,
 Carnegie Mellon University). Gaussian is a federally registered
 trademark of Gaussian, Inc.
  
 This software contains proprietary and confidential information,
 including trade secrets, belonging to Gaussian, Inc.
  
 This software is provided under written license and may be
 used, copied, transmitted, or stored only in accord with that
 written license.
  
 The following legend is applicable only to US Government
 contracts under FAR:
  
                    RESTRICTED RIGHTS LEGEND
  
 Use, reproduction and disclosure by the US Government is
 subject to restrictions as set forth in subparagraphs (a)
 and (c) of the Commercial Computer Software - Restricted
 Rights clause in FAR 52.227-19.
  
 Gaussian, Inc.
 340 Quinnipiac St., Bldg. 40, Wallingford CT 06492
  
  
 ---------------------------------------------------------------
 Warning -- This program may not be used in any manner that
 competes with the business of Gaussian, Inc. or will provide
 assistance to any competitor of Gaussian, Inc.  The licensee
 of this program is prohibited from giving any competitor of
 Gaussian, Inc. access to this program.  By using this program,
 the user acknowledges that Gaussian, Inc. is engaged in the
 business of creating and licensing software in the field of
 computational chemistry and represents and warrants to the
 licensee that it is not a competitor of Gaussian, Inc. and that
 it will not use this program in any manner prohibited above.
 ---------------------------------------------------------------
  

 Cite this work as:
 Gaussian 16, Revision C.01,
 M. J. Frisch, G. W. Trucks, H. B. Schlegel, G. E. Scuseria, 
 M. A. Robb, J. R. Cheeseman, G. Scalmani, V. Barone, 
 G. A. Petersson, H. Nakatsuji, X. Li, M. Caricato, A. V. Marenich, 
 J. Bloino, B. G. Janesko, R. Gomperts, B. Mennucci, H. P. Hratchian, 
 J. V. Ortiz, A. F. Izmaylov, J. L. Sonnenberg, D. Williams-Young, 
 F. Ding, F. Lipparini, F. Egidi, J. Goings, B. Peng, A. Petrone, 
 T. Henderson, D. Ranasinghe, V. G. Zakrzewski, J. Gao, N. Rega, 
 G. Zheng, W. Liang, M. Hada, M. Ehara, K. Toyota, R. Fukuda, 
 J. Hasegawa, M. Ishida, T. Nakajima, Y. Honda, O. Kitao, H. Nakai, 
 T. Vreven, K. Throssell, J. A. Montgomery, Jr., J. E. Peralta, 
 F. Ogliaro, M. J. Bearpark, J. J. Heyd, E. N. Brothers, K. N. Kudin, 
 V. N. Staroverov, T. A. Keith, R. Kobayashi, J. Normand, 
 K. Raghavachari, A. P. Rendell, J. C. Burant, S. S. Iyengar, 
 J. Tomasi, M. Cossi, J. M. Millam, M. Klene, C. Adamo, R. Cammi, 
 J. W. Ochterski, R. L. Martin, K. Morokuma, O. Farkas, 
 J. B. Foresman, and D. J. Fox, Gaussian, Inc., Wallingford CT, 2019.
 
 ******************************************
 Gaussian 16:  ES64L-G16RevC.01  3-Jul-2019
                 5-Feb-2022 
 ******************************************
 %NProcShared=40
 Will use up to   40 processors via shared memory.
 %mem=16GB
 %chk=Ac2_conf-1.chk
 ----------------------------------------------------------------------
 # B3LYP/6-31G(d,p) empiricaldispersion=GD3BJ int=(grid=ultrafine) opt 
 freq=noraman
 ----------------------------------------------------------------------
 1/18=20,19=15,26=4,38=1/1,3;
 2/9=110,12=2,17=6,18=5,40=1/2;
 3/5=1,6=6,7=101,11=2,25=1,30=1,71=1,74=-5,75=-5,124=41/1,2,3;
 4//1;
 5/5=2,38=5/2;
 6/7=2,8=2,9=2,10=2,28=1/1;
 7//1,2,3,16;
 1/18=20,19=15,26=4/3(2);
 2/9=110/2;
 99//99;
 2/9=110/2;
 3/5=1,6=6,7=101,11=2,25=1,30=1,71=1,74=-5,75=-5,124=41/1,2,3;
 4/5=5,16=3,69=1/1;
 5/5=2,38=5/2;
 7//1,2,3,16;
 1/18=20,19=15,26=4/3(-5);
 2/9=110/2;
 6/7=2,8=2,9=2,10=2,19=2,28=1/1;
 99/9=1/99;
 -------
 Ac2.xyz
 -------
 Symbolic Z-matrix:
 Charge =  0 Multiplicity = 1
 O                     4.8457   -1.3038    1.3645 
 C                     4.1152   -0.3863    0.6936 
 C                     2.8908   -1.0439    0.0477 
 N                     2.1611   -0.0488   -0.7542 
 C                     1.1855   -0.3955   -1.6607 
 O                     0.6787    0.7327   -2.1965 
 C                    -0.356     0.7724   -3.1857 
 C                    -0.5543    2.2729   -3.4495 
 C                     0.0804    0.0829   -4.4951 
 C                    -1.6752    0.174    -2.655 
 O                     0.8369   -1.5418   -1.9304 
 O                     4.3994    0.7884    0.6328 
 H                     5.5844   -0.8175    1.7333 
 H                     3.2308   -1.8735   -0.5756 
 H                     2.2501   -1.4587    0.8264 
 H                     2.3219    0.9344   -0.596 
 H                    -0.8452    2.8002   -2.5403 
 H                    -1.3277    2.4512   -4.1968 
 H                     0.3651    2.7371   -3.8078 
 H                    -0.6518    0.232    -5.2883 
 H                     0.2015   -0.9926   -4.365 
 H                     1.0359    0.4729   -4.8457 
 H                    -2.4943    0.3274   -3.3573 
 H                    -1.9601    0.6285   -1.7062 
 H                    -1.5927   -0.8995   -2.4845 
 

 GradGradGradGradGradGradGradGradGradGradGradGradGradGradGradGradGradGrad
 Berny optimization.
 Initialization pass.
                           ----------------------------
                           !    Initial Parameters    !
                           ! (Angstroms and Degrees)  !
 --------------------------                            --------------------------
 ! Name  Definition              Value          Derivative Info.                !
 --------------------------------------------------------------------------------
 ! R1    R(1,2)                  1.3511         estimate D2E/DX2                !
 ! R2    R(1,13)                 0.9582         estimate D2E/DX2                !
 ! R3    R(2,3)                  1.5326         estimate D2E/DX2                !
 ! R4    R(2,12)                 1.2101         estimate D2E/DX2                !
 ! R5    R(3,4)                  1.4716         estimate D2E/DX2                !
 ! R6    R(3,14)                 1.0919         estimate D2E/DX2                !
 ! R7    R(3,15)                 1.0904         estimate D2E/DX2                !
 ! R8    R(4,5)                  1.3761         estimate D2E/DX2                !
 ! R9    R(4,16)                 1.0087         estimate D2E/DX2                !
 ! R10   R(5,6)                  1.3479         estimate D2E/DX2                !
 ! R11   R(5,11)                 1.2281         estimate D2E/DX2                !
 ! R12   R(6,7)                  1.432          estimate D2E/DX2                !
 ! R13   R(7,8)                  1.5364         estimate D2E/DX2                !
 ! R14   R(7,9)                  1.5428         estimate D2E/DX2                !
 ! R15   R(7,10)                 1.5427         estimate D2E/DX2                !
 ! R16   R(8,17)                 1.0906         estimate D2E/DX2                !
 ! R17   R(8,18)                 1.0901         estimate D2E/DX2                !
 ! R18   R(8,19)                 1.0905         estimate D2E/DX2                !
 ! R19   R(9,20)                 1.0897         estimate D2E/DX2                !
 ! R20   R(9,21)                 1.0901         estimate D2E/DX2                !
 ! R21   R(9,22)                 1.09           estimate D2E/DX2                !
 ! R22   R(10,23)                1.0898         estimate D2E/DX2                !
 ! R23   R(10,24)                1.0899         estimate D2E/DX2                !
 ! R24   R(10,25)                1.0901         estimate D2E/DX2                !
 ! A1    A(2,1,13)             105.2651         estimate D2E/DX2                !
 ! A2    A(1,2,3)              110.4774         estimate D2E/DX2                !
 ! A3    A(1,2,12)             123.8596         estimate D2E/DX2                !
 ! A4    A(3,2,12)             125.6602         estimate D2E/DX2                !
 ! A5    A(2,3,4)              109.6118         estimate D2E/DX2                !
 ! A6    A(2,3,14)             108.5301         estimate D2E/DX2                !
 ! A7    A(2,3,15)             109.3714         estimate D2E/DX2                !
 ! A8    A(4,3,14)             110.921          estimate D2E/DX2                !
 ! A9    A(4,3,15)             110.7949         estimate D2E/DX2                !
 ! A10   A(14,3,15)            107.5532         estimate D2E/DX2                !
 ! A11   A(3,4,5)              122.6911         estimate D2E/DX2                !
 ! A12   A(3,4,16)             119.641          estimate D2E/DX2                !
 ! A13   A(5,4,16)             117.5082         estimate D2E/DX2                !
 ! A14   A(4,5,6)              108.5142         estimate D2E/DX2                !
 ! A15   A(4,5,11)             125.5243         estimate D2E/DX2                !
 ! A16   A(6,5,11)             125.9613         estimate D2E/DX2                !
 ! A17   A(5,6,7)              124.7134         estimate D2E/DX2                !
 ! A18   A(6,7,8)              103.8242         estimate D2E/DX2                !
 ! A19   A(6,7,9)              111.6839         estimate D2E/DX2                !
 ! A20   A(6,7,10)             111.6832         estimate D2E/DX2                !
 ! A21   A(8,7,9)              109.1021         estimate D2E/DX2                !
 ! A22   A(8,7,10)             109.1187         estimate D2E/DX2                !
 ! A23   A(9,7,10)             111.1293         estimate D2E/DX2                !
 ! A24   A(7,8,17)             111.3157         estimate D2E/DX2                !
 ! A25   A(7,8,18)             111.6549         estimate D2E/DX2                !
 ! A26   A(7,8,19)             111.3055         estimate D2E/DX2                !
 ! A27   A(17,8,18)            107.6491         estimate D2E/DX2                !
 ! A28   A(17,8,19)            107.0377         estimate D2E/DX2                !
 ! A29   A(18,8,19)            107.6551         estimate D2E/DX2                !
 ! A30   A(7,9,20)             111.5031         estimate D2E/DX2                !
 ! A31   A(7,9,21)             111.7806         estimate D2E/DX2                !
 ! A32   A(7,9,22)             111.1646         estimate D2E/DX2                !
 ! A33   A(20,9,21)            107.2479         estimate D2E/DX2                !
 ! A34   A(20,9,22)            107.8142         estimate D2E/DX2                !
 ! A35   A(21,9,22)            107.0992         estimate D2E/DX2                !
 ! A36   A(7,10,23)            111.4949         estimate D2E/DX2                !
 ! A37   A(7,10,24)            111.1756         estimate D2E/DX2                !
 ! A38   A(7,10,25)            111.7818         estimate D2E/DX2                !
 ! A39   A(23,10,24)           107.8076         estimate D2E/DX2                !
 ! A40   A(23,10,25)           107.2352         estimate D2E/DX2                !
 ! A41   A(24,10,25)           107.1144         estimate D2E/DX2                !
 ! D1    D(13,1,2,3)           179.9304         estimate D2E/DX2                !
 ! D2    D(13,1,2,12)           -0.6393         estimate D2E/DX2                !
 ! D3    D(1,2,3,4)           -176.0811         estimate D2E/DX2                !
 ! D4    D(1,2,3,14)           -54.8007         estimate D2E/DX2                !
 ! D5    D(1,2,3,15)            62.2653         estimate D2E/DX2                !
 ! D6    D(12,2,3,4)             4.5013         estimate D2E/DX2                !
 ! D7    D(12,2,3,14)          125.7817         estimate D2E/DX2                !
 ! D8    D(12,2,3,15)         -117.1524         estimate D2E/DX2                !
 ! D9    D(2,3,4,5)            166.4869         estimate D2E/DX2                !
 ! D10   D(2,3,4,16)           -18.2223         estimate D2E/DX2                !
 ! D11   D(14,3,4,5)            46.6587         estimate D2E/DX2                !
 ! D12   D(14,3,4,16)         -138.0505         estimate D2E/DX2                !
 ! D13   D(15,3,4,5)           -72.7181         estimate D2E/DX2                !
 ! D14   D(15,3,4,16)          102.5727         estimate D2E/DX2                !
 ! D15   D(3,4,5,6)            177.9295         estimate D2E/DX2                !
 ! D16   D(3,4,5,11)            -1.9251         estimate D2E/DX2                !
 ! D17   D(16,4,5,6)             2.544          estimate D2E/DX2                !
 ! D18   D(16,4,5,11)         -177.3106         estimate D2E/DX2                !
 ! D19   D(4,5,6,7)            179.7323         estimate D2E/DX2                !
 ! D20   D(11,5,6,7)            -0.4138         estimate D2E/DX2                !
 ! D21   D(5,6,7,8)           -179.8566         estimate D2E/DX2                !
 ! D22   D(5,6,7,9)            -62.4357         estimate D2E/DX2                !
 ! D23   D(5,6,7,10)            62.7034         estimate D2E/DX2                !
 ! D24   D(6,7,8,17)           -59.6841         estimate D2E/DX2                !
 ! D25   D(6,7,8,18)           179.9787         estimate D2E/DX2                !
 ! D26   D(6,7,8,19)            59.641          estimate D2E/DX2                !
 ! D27   D(9,7,8,17)          -178.8868         estimate D2E/DX2                !
 ! D28   D(9,7,8,18)            60.776          estimate D2E/DX2                !
 ! D29   D(9,7,8,19)           -59.5617         estimate D2E/DX2                !
 ! D30   D(10,7,8,17)           59.5256         estimate D2E/DX2                !
 ! D31   D(10,7,8,18)          -60.8116         estimate D2E/DX2                !
 ! D32   D(10,7,8,19)          178.8507         estimate D2E/DX2                !
 ! D33   D(6,7,9,20)          -172.2401         estimate D2E/DX2                !
 ! D34   D(6,7,9,21)            67.7194         estimate D2E/DX2                !
 ! D35   D(6,7,9,22)           -51.8999         estimate D2E/DX2                !
 ! D36   D(8,7,9,20)           -58.046          estimate D2E/DX2                !
 ! D37   D(8,7,9,21)          -178.0865         estimate D2E/DX2                !
 ! D38   D(8,7,9,22)            62.2942         estimate D2E/DX2                !
 ! D39   D(10,7,9,20)           62.3141         estimate D2E/DX2                !
 ! D40   D(10,7,9,21)          -57.7264         estimate D2E/DX2                !
 ! D41   D(10,7,9,22)         -177.3457         estimate D2E/DX2                !
 ! D42   D(6,7,10,23)          172.259          estimate D2E/DX2                !
 ! D43   D(6,7,10,24)           51.9252         estimate D2E/DX2                !
 ! D44   D(6,7,10,25)          -67.7216         estimate D2E/DX2                !
 ! D45   D(8,7,10,23)           58.0555         estimate D2E/DX2                !
 ! D46   D(8,7,10,24)          -62.2783         estimate D2E/DX2                !
 ! D47   D(8,7,10,25)          178.0749         estimate D2E/DX2                !
 ! D48   D(9,7,10,23)          -62.2948         estimate D2E/DX2                !
 ! D49   D(9,7,10,24)          177.3715         estimate D2E/DX2                !
 ! D50   D(9,7,10,25)           57.7246         estimate D2E/DX2                !
 --------------------------------------------------------------------------------
 Trust Radius=3.00D-01 FncErr=1.00D-07 GrdErr=1.00D-06 EigMax=2.50D+02 EigMin=1.00D-04
 Number of steps in this run=    125 maximum allowed number of steps=    150.
 GradGradGradGradGradGradGradGradGradGradGradGradGradGradGradGradGradGrad

                          Input orientation:                          
 ---------------------------------------------------------------------
 Center     Atomic      Atomic             Coordinates (Angstroms)
 Number     Number       Type             X           Y           Z
 ---------------------------------------------------------------------
      1          8           0        4.845700   -1.303800    1.364500
      2          6           0        4.115200   -0.386300    0.693600
      3          6           0        2.890800   -1.043900    0.047700
      4          7           0        2.161100   -0.048800   -0.754200
      5          6           0        1.185500   -0.395500   -1.660700
      6          8           0        0.678700    0.732700   -2.196500
      7          6           0       -0.356000    0.772400   -3.185700
      8          6           0       -0.554300    2.272900   -3.449500
      9          6           0        0.080400    0.082900   -4.495100
     10          6           0       -1.675200    0.174000   -2.655000
     11          8           0        0.836900   -1.541800   -1.930400
     12          8           0        4.399400    0.788400    0.632800
     13          1           0        5.584400   -0.817500    1.733300
     14          1           0        3.230800   -1.873500   -0.575600
     15          1           0        2.250100   -1.458700    0.826400
     16          1           0        2.321900    0.934400   -0.596000
     17          1           0       -0.845200    2.800200   -2.540300
     18          1           0       -1.327700    2.451200   -4.196800
     19          1           0        0.365100    2.737100   -3.807800
     20          1           0       -0.651800    0.232000   -5.288300
     21          1           0        0.201500   -0.992600   -4.365000
     22          1           0        1.035900    0.472900   -4.845700
     23          1           0       -2.494300    0.327400   -3.357300
     24          1           0       -1.960100    0.628500   -1.706200
     25          1           0       -1.592700   -0.899500   -2.484500
 ---------------------------------------------------------------------
                    Distance matrix (angstroms):
                    1          2          3          4          5
     1  O    0.000000
     2  C    1.351127   0.000000
     3  C    2.371317   1.532573   0.000000
     4  N    3.642937   2.455308   1.471642   0.000000
     5  C    4.834657   3.758451   2.499420   1.376132   0.000000
     6  O    5.847388   4.627566   3.617475   2.210991   1.347874
     7  C    7.216135   6.031847   4.929050   3.594768   2.462892
     8  C    8.070154   6.785341   5.924549   4.475302   3.653364
     9  C    7.678928   6.589565   5.459401   4.282638   3.079600
    10  C    7.801436   6.712361   5.443916   4.287176   3.081650
    11  O    5.194563   4.355205   2.894700   2.316463   1.228114
    12  O    2.260944   1.210118   2.444492   2.763089   4.122004
    13  H    0.958216   1.850799   3.185590   4.300877   5.572041
    14  H    2.587750   2.145879   1.091943   2.122660   2.746849
    15  H    2.655313   2.155522   1.090380   2.119914   2.906791
    16  H    3.901623   2.573566   2.156773   1.008745   2.047834
    17  H    8.029734   6.724393   5.952524   4.510520   3.887150
    18  H    9.118056   7.848094   6.930169   5.502111   4.566364
    19  H    7.947159   6.639388   5.961544   4.506809   3.885393
    20  H    8.765896   7.673963   6.530760   5.343156   4.114476
    21  H    7.381911   6.424491   5.167871   4.215290   2.939051
    22  H    7.499188   6.395636   5.448550   4.275350   3.304652
    23  H    8.878728   7.784899   6.517192   5.347000   4.116062
    24  H    7.712451   6.610456   5.422575   4.283612   3.308390
    25  H    7.512074   6.553153   5.151180   4.220029   2.941268
                    6          7          8          9         10
     6  O    0.000000
     7  C    1.432025   0.000000
     8  C    2.337202   1.536364   0.000000
     9  C    2.462471   1.542849   2.508430   0.000000
    10  C    2.462359   1.542729   2.508591   2.544877   0.000000
    11  O    2.295471   2.890382   4.335324   3.128838   3.127245
    12  O    4.674575   6.098773   6.588479   6.741428   6.934543
    13  H    6.473974   7.874814   8.607882   8.360485   8.540611
    14  H    3.991592   5.165128   6.307053   5.395832   5.708327
    15  H    4.050859   5.278874   6.330310   5.949999   5.494892
    16  H    2.302692   3.728799   4.266916   4.577374   4.560098
    17  H    2.591337   2.183536   1.090556   3.472995   2.756625
    18  H    3.313621   2.187440   1.090136   2.771385   2.771921
    19  H    2.590801   2.183355   1.090485   2.756486   3.472932
    20  H    3.402963   2.190994   2.748811   1.089731   2.825771
    21  H    2.811898   2.194716   3.474603   1.090088   2.794111
    22  H    2.685768   2.186935   2.778149   1.089954   3.498367
    23  H    3.402889   2.190844   2.749013   2.825500   1.089808
    24  H    2.685985   2.186953   2.778384   3.498469   1.089936
    25  H    2.811811   2.194620   3.474712   2.794080   1.090082
                   11         12         13         14         15
    11  O    0.000000
    12  O    4.969027   0.000000
    13  H    6.040370   2.279088   0.000000
    14  H    2.770607   3.148264   3.462021   0.000000
    15  H    3.099030   3.115514   3.514422   1.760521   0.000000
    16  H    3.180788   2.418113   4.374780   2.951409   2.784835
    17  H    4.696211   6.451491   8.525911   6.505174   6.249302
    18  H    5.076033   7.673957   9.676136   7.252313   7.302089
    19  H    4.696404   6.308085   8.401194   6.317989   6.529454
    20  H    4.078981   7.802796   9.449577   6.458890   6.976320
    21  H    2.575389   6.765525   8.136064   4.930740   5.600415
    22  H    3.549309   6.436353   8.101680   5.343869   6.113761
    23  H    4.077603   7.978504   9.617193   6.734878   6.572886
    24  H    3.547348   6.777885   8.416683   5.872283   5.338188
    25  H    2.573428   6.962171   8.325102   5.278137   5.103124
                   16         17         18         19         20
    16  H    0.000000
    17  H    4.158369   0.000000
    18  H    5.346590   1.760284   0.000000
    19  H    4.170666   1.753672   1.760293   0.000000
    20  H    5.599459   3.766239   2.563798   3.082449   0.000000
    21  H    4.734426   4.337101   3.771804   3.774639   1.755064
    22  H    4.463936   3.777530   3.149817   2.579498   1.761323
    23  H    5.584712   3.082492   2.564419   3.766400   2.670706
    24  H    4.434145   2.579730   3.150437   3.777495   3.834097
    25  H    4.717384   3.774871   3.772186   4.336930   3.166525
                   21         22         23         24         25
    21  H    0.000000
    22  H    1.753564   0.000000
    23  H    3.166259   3.833904   0.000000
    24  H    3.790738   4.342429   1.761296   0.000000
    25  H    2.600789   3.790552   1.754977   1.753715   0.000000
 Stoichiometry    C7H13NO4
 Framework group  C1[X(C7H13NO4)]
 Deg. of freedom    69
 Full point group                 C1      NOp   1
 Largest Abelian subgroup         C1      NOp   1
 Largest concise Abelian subgroup C1      NOp   1
                         Standard orientation:                         
 ---------------------------------------------------------------------
 Center     Atomic      Atomic             Coordinates (Angstroms)
 Number     Number       Type             X           Y           Z
 ---------------------------------------------------------------------
      1          8           0       -4.584228   -0.399283    0.084224
      2          6           0       -3.427025    0.294388    0.011798
      3          6           0       -2.241118   -0.658845   -0.171920
      4          7           0       -0.984525    0.106918   -0.154304
      5          6           0        0.248324   -0.490717   -0.025261
      6          8           0        1.196269    0.465319   -0.089750
      7          6           0        2.604431    0.225672    0.011955
      8          6           0        3.225309    1.624923   -0.118505
      9          6           0        2.983828   -0.369123    1.384056
     10          6           0        3.115978   -0.663539   -1.140277
     11          8           0        0.446284   -1.693920    0.120957
     12          8           0       -3.359185    1.500991    0.074201
     13          1           0       -5.268085    0.262099    0.198646
     14          1           0       -2.260061   -1.395624    0.633771
     15          1           0       -2.352805   -1.197867   -1.113148
     16          1           0       -1.005242    1.103271   -0.310564
     17          1           0        2.962779    2.087938   -1.070350
     18          1           0        4.313138    1.589658   -0.057015
     19          1           0        2.870938    2.290645    0.669144
     20          1           0        4.064804   -0.423780    1.510615
     21          1           0        2.592258   -1.378692    1.509503
     22          1           0        2.582770    0.233701    2.198768
     23          1           0        4.203571   -0.732976   -1.138500
     24          1           0        2.808770   -0.268618   -2.108585
     25          1           0        2.727351   -1.679585   -1.070287
 ---------------------------------------------------------------------
 Rotational constants (GHZ):           2.3103580           0.3649294           0.3405627
 Standard basis: 6-31G(d,p) (6D, 7F)
 There are   245 symmetry adapted cartesian basis functions of A   symmetry.
 There are   245 symmetry adapted basis functions of A   symmetry.
   245 basis functions,   427 primitive gaussians,   245 cartesian basis functions
    47 alpha electrons       47 beta electrons
       nuclear repulsion energy       734.4810376134 Hartrees.
 NAtoms=   25 NActive=   25 NUniq=   25 SFac= 1.00D+00 NAtFMM=   60 NAOKFM=F Big=F
 Integral buffers will be    131072 words long.
 Raffenetti 2 integral format.
 Two-electron integral symmetry is turned on.
 Nuclear repulsion after empirical dispersion term =      734.4434496810 Hartrees.
 One-electron integrals computed using PRISM.
 NBasis=   245 RedAO= T EigKep=  2.63D-03  NBF=   245
 NBsUse=   245 1.00D-06 EigRej= -1.00D+00 NBFU=   245
 ExpMin= 1.61D-01 ExpMax= 5.48D+03 ExpMxC= 8.25D+02 IAcc=3 IRadAn=         5 AccDes= 0.00D+00
 Harris functional with IExCor=  402 and IRadAn=       5 diagonalized for initial guess.
 HarFok:  IExCor=  402 AccDes= 0.00D+00 IRadAn=         5 IDoV= 1 UseB2=F ITyADJ=14
 ICtDFT=  3500011 ScaDFX=  1.000000  1.000000  1.000000  1.000000
 FoFCou: FMM=F IPFlag=           0 FMFlag=      100000 FMFlg1=           0
         NFxFlg=           0 DoJE=T BraDBF=F KetDBF=T FulRan=T
         wScrn=  0.000000 ICntrl=       500 IOpCl=  0 I1Cent=   200000004 NGrid=           0
         NMat0=    1 NMatS0=      1 NMatT0=    0 NMatD0=    1 NMtDS0=    0 NMtDT0=    0
 Petite list used in FoFCou.
 Requested convergence on RMS density matrix=1.00D-08 within 128 cycles.
 Requested convergence on MAX density matrix=1.00D-06.
 Requested convergence on             energy=1.00D-06.
 No special actions if energy rises.
 Integral accuracy reduced to 1.0D-05 until final iterations.
 Initial convergence to 1.0D-05 achieved.  Increase integral accuracy.
 SCF Done:  E(RB3LYP) =  -630.323517408     A.U. after   14 cycles
            NFock= 14  Conv=0.40D-08     -V/T= 2.0093

 **********************************************************************

            Population analysis using the SCF Density.

 **********************************************************************

 Orbital symmetries:
       Occupied  (A) (A) (A) (A) (A) (A) (A) (A) (A) (A) (A) (A)
                 (A) (A) (A) (A) (A) (A) (A) (A) (A) (A) (A) (A)
                 (A) (A) (A) (A) (A) (A) (A) (A) (A) (A) (A) (A)
                 (A) (A) (A) (A) (A) (A) (A) (A) (A) (A) (A)
       Virtual   (A) (A) (A) (A) (A) (A) (A) (A) (A) (A) (A) (A)
                 (A) (A) (A) (A) (A) (A) (A) (A) (A) (A) (A) (A)
                 (A) (A) (A) (A) (A) (A) (A) (A) (A) (A) (A) (A)
                 (A) (A) (A) (A) (A) (A) (A) (A) (A) (A) (A) (A)
                 (A) (A) (A) (A) (A) (A) (A) (A) (A) (A) (A) (A)
                 (A) (A) (A) (A) (A) (A) (A) (A) (A) (A) (A) (A)
                 (A) (A) (A) (A) (A) (A) (A) (A) (A) (A) (A) (A)
                 (A) (A) (A) (A) (A) (A) (A) (A) (A) (A) (A) (A)
                 (A) (A) (A) (A) (A) (A) (A) (A) (A) (A) (A) (A)
                 (A) (A) (A) (A) (A) (A) (A) (A) (A) (A) (A) (A)
                 (A) (A) (A) (A) (A) (A) (A) (A) (A) (A) (A) (A)
                 (A) (A) (A) (A) (A) (A) (A) (A) (A) (A) (A) (A)
                 (A) (A) (A) (A) (A) (A) (A) (A) (A) (A) (A) (A)
                 (A) (A) (A) (A) (A) (A) (A) (A) (A) (A) (A) (A)
                 (A) (A) (A) (A) (A) (A) (A) (A) (A) (A) (A) (A)
                 (A) (A) (A) (A) (A) (A) (A) (A) (A) (A) (A) (A)
                 (A) (A) (A) (A) (A) (A)
 The electronic state is 1-A.
 Alpha  occ. eigenvalues --  -19.21555 -19.17650 -19.16209 -19.11224 -14.36029
 Alpha  occ. eigenvalues --  -10.34357 -10.33030 -10.25550 -10.25055 -10.17454
 Alpha  occ. eigenvalues --  -10.16955 -10.16929  -1.12784  -1.09460  -1.03851
 Alpha  occ. eigenvalues --   -1.00053  -0.92155  -0.80545  -0.75378  -0.68946
 Alpha  occ. eigenvalues --   -0.68733  -0.64960  -0.60839  -0.57391  -0.50780
 Alpha  occ. eigenvalues --   -0.50569  -0.49814  -0.48652  -0.47425  -0.46506
 Alpha  occ. eigenvalues --   -0.44613  -0.43323  -0.42981  -0.41171  -0.40815
 Alpha  occ. eigenvalues --   -0.40267  -0.38822  -0.37922  -0.36060  -0.35296
 Alpha  occ. eigenvalues --   -0.34413  -0.33927  -0.32576  -0.29980  -0.28422
 Alpha  occ. eigenvalues --   -0.26107  -0.25521
 Alpha virt. eigenvalues --   -0.00736   0.05483   0.06739   0.08940   0.10903
 Alpha virt. eigenvalues --    0.11420   0.11782   0.15390   0.15664   0.16656
 Alpha virt. eigenvalues --    0.16918   0.17358   0.18201   0.19703   0.19910
 Alpha virt. eigenvalues --    0.20077   0.21044   0.23080   0.23335   0.23903
 Alpha virt. eigenvalues --    0.25872   0.26991   0.28375   0.32380   0.37397
 Alpha virt. eigenvalues --    0.42176   0.49297   0.49583   0.50252   0.51251
 Alpha virt. eigenvalues --    0.51731   0.52551   0.55222   0.55719   0.57280
 Alpha virt. eigenvalues --    0.59316   0.60901   0.61313   0.64597   0.66658
 Alpha virt. eigenvalues --    0.67313   0.68789   0.69363   0.70241   0.71268
 Alpha virt. eigenvalues --    0.73453   0.74990   0.79686   0.80005   0.81318
 Alpha virt. eigenvalues --    0.82086   0.83230   0.84109   0.85740   0.86638
 Alpha virt. eigenvalues --    0.87572   0.87857   0.88323   0.89138   0.90561
 Alpha virt. eigenvalues --    0.91579   0.91774   0.92223   0.92690   0.93915
 Alpha virt. eigenvalues --    0.96404   0.96772   0.98584   1.00960   1.04017
 Alpha virt. eigenvalues --    1.06883   1.09905   1.11878   1.14076   1.14405
 Alpha virt. eigenvalues --    1.15676   1.20563   1.25754   1.28280   1.29610
 Alpha virt. eigenvalues --    1.32337   1.36070   1.37228   1.40455   1.42966
 Alpha virt. eigenvalues --    1.46127   1.47638   1.50006   1.50228   1.54087
 Alpha virt. eigenvalues --    1.54942   1.57212   1.62063   1.64469   1.66797
 Alpha virt. eigenvalues --    1.68145   1.70521   1.71666   1.75675   1.76997
 Alpha virt. eigenvalues --    1.79647   1.80112   1.80668   1.82674   1.84697
 Alpha virt. eigenvalues --    1.85161   1.85982   1.87128   1.87609   1.88309
 Alpha virt. eigenvalues --    1.91613   1.93441   1.97294   1.98789   2.01693
 Alpha virt. eigenvalues --    2.03083   2.04676   2.05083   2.05732   2.06378
 Alpha virt. eigenvalues --    2.08967   2.09916   2.11140   2.13335   2.13737
 Alpha virt. eigenvalues --    2.14124   2.15575   2.16208   2.18668   2.18792
 Alpha virt. eigenvalues --    2.21017   2.23637   2.27527   2.31910   2.33761
 Alpha virt. eigenvalues --    2.34397   2.35488   2.37454   2.39952   2.43434
 Alpha virt. eigenvalues --    2.44450   2.51140   2.53004   2.54806   2.55528
 Alpha virt. eigenvalues --    2.58156   2.59570   2.60720   2.61240   2.63530
 Alpha virt. eigenvalues --    2.64233   2.65869   2.72333   2.73064   2.74071
 Alpha virt. eigenvalues --    2.76181   2.76445   2.78025   2.81562   2.82872
 Alpha virt. eigenvalues --    2.84848   2.87408   2.88369   2.90216   2.90707
 Alpha virt. eigenvalues --    2.95714   2.95840   2.96958   3.00587   3.05943
 Alpha virt. eigenvalues --    3.11891   3.15757   3.18290   3.23116   3.24453
 Alpha virt. eigenvalues --    3.25783   3.29201   3.41547   3.43496   3.43661
 Alpha virt. eigenvalues --    3.43812   3.44687   3.45229   3.52979   3.53025
 Alpha virt. eigenvalues --    3.54227   3.91899   4.06109   4.13507   4.15701
 Alpha virt. eigenvalues --    4.26180   4.31635   4.41630   4.44865   4.53730
 Alpha virt. eigenvalues --    4.56237   4.61364   4.73409
          Condensed to atoms (all electrons):
               1          2          3          4          5          6
     1  O    8.097838   0.264789  -0.091861   0.001645  -0.000030   0.000000
     2  C    0.264789   4.381788   0.305647  -0.026770   0.004124  -0.000027
     3  C   -0.091861   0.305647   4.971294   0.247361  -0.023505   0.003024
     4  N    0.001645  -0.026770   0.247361   6.998282   0.300057  -0.107358
     5  C   -0.000030   0.004124  -0.023505   0.300057   4.118562   0.295136
     6  O    0.000000  -0.000027   0.003024  -0.107358   0.295136   8.341934
     7  C   -0.000000   0.000000  -0.000119   0.004567  -0.015680   0.183738
     8  C    0.000000  -0.000000   0.000001  -0.000205   0.003555  -0.053007
     9  C    0.000000  -0.000000   0.000011  -0.000377  -0.003651  -0.043249
    10  C   -0.000000   0.000000   0.000016  -0.000390  -0.003461  -0.043398
    11  O   -0.000000   0.000392   0.008290  -0.088091   0.541180  -0.071626
    12  O   -0.079468   0.578493  -0.078698  -0.004316   0.000280  -0.000004
    13  H    0.273111  -0.009856   0.010200  -0.000204   0.000002  -0.000000
    14  H    0.002497  -0.019258   0.372886  -0.039471  -0.000880   0.000090
    15  H    0.002996  -0.028428   0.378249  -0.044025  -0.001604   0.000011
    16  H    0.000384  -0.002085  -0.037817   0.332986  -0.016975   0.008443
    17  H    0.000000  -0.000000   0.000000  -0.000018   0.000033   0.000576
    18  H   -0.000000  -0.000000  -0.000000   0.000003  -0.000036   0.003451
    19  H   -0.000000  -0.000000   0.000000  -0.000018   0.000043   0.000590
    20  H   -0.000000   0.000000  -0.000000   0.000004   0.000167   0.002895
    21  H   -0.000000  -0.000000  -0.000002   0.000078   0.001935  -0.003057
    22  H   -0.000000  -0.000000   0.000001  -0.000041   0.000464   0.000165
    23  H    0.000000  -0.000000  -0.000000   0.000004   0.000166   0.002888
    24  H    0.000000  -0.000000  -0.000001  -0.000039   0.000447   0.000204
    25  H    0.000000  -0.000000  -0.000002   0.000077   0.001932  -0.003068
               7          8          9         10         11         12
     1  O   -0.000000   0.000000   0.000000  -0.000000  -0.000000  -0.079468
     2  C    0.000000  -0.000000  -0.000000   0.000000   0.000392   0.578493
     3  C   -0.000119   0.000001   0.000011   0.000016   0.008290  -0.078698
     4  N    0.004567  -0.000205  -0.000377  -0.000390  -0.088091  -0.004316
     5  C   -0.015680   0.003555  -0.003651  -0.003461   0.541180   0.000280
     6  O    0.183738  -0.053007  -0.043249  -0.043398  -0.071626  -0.000004
     7  C    4.603963   0.405978   0.380505   0.380097   0.002968  -0.000000
     8  C    0.405978   4.978036  -0.065321  -0.065353   0.000141   0.000000
     9  C    0.380505  -0.065321   5.017136  -0.064266  -0.004937   0.000000
    10  C    0.380097  -0.065353  -0.064266   5.017340  -0.004854   0.000000
    11  O    0.002968   0.000141  -0.004937  -0.004854   8.121012  -0.000002
    12  O   -0.000000   0.000000   0.000000   0.000000  -0.000002   8.011497
    13  H    0.000000  -0.000000  -0.000000  -0.000000   0.000000   0.009423
    14  H    0.000002   0.000000  -0.000001   0.000000   0.005269   0.001130
    15  H    0.000004  -0.000000   0.000000  -0.000001   0.001262   0.000485
    16  H   -0.000247  -0.000091   0.000051   0.000047   0.002662   0.016736
    17  H   -0.025201   0.371458   0.005767  -0.006374   0.000003  -0.000000
    18  H   -0.028298   0.371462  -0.001933  -0.001882   0.000008   0.000000
    19  H   -0.025189   0.371863  -0.006338   0.005756   0.000003  -0.000000
    20  H   -0.024869  -0.003464   0.366403  -0.001566   0.000161   0.000000
    21  H   -0.023057   0.004775   0.376818  -0.005924   0.009403   0.000000
    22  H   -0.026333  -0.006127   0.370335   0.005377  -0.000042   0.000000
    23  H   -0.024838  -0.003439  -0.001574   0.366544   0.000160   0.000000
    24  H   -0.026385  -0.006156   0.005396   0.369932  -0.000050   0.000000
    25  H   -0.023041   0.004778  -0.005926   0.376956   0.009401   0.000000
              13         14         15         16         17         18
     1  O    0.273111   0.002497   0.002996   0.000384   0.000000  -0.000000
     2  C   -0.009856  -0.019258  -0.028428  -0.002085  -0.000000  -0.000000
     3  C    0.010200   0.372886   0.378249  -0.037817   0.000000  -0.000000
     4  N   -0.000204  -0.039471  -0.044025   0.332986  -0.000018   0.000003
     5  C    0.000002  -0.000880  -0.001604  -0.016975   0.000033  -0.000036
     6  O   -0.000000   0.000090   0.000011   0.008443   0.000576   0.003451
     7  C    0.000000   0.000002   0.000004  -0.000247  -0.025201  -0.028298
     8  C   -0.000000   0.000000  -0.000000  -0.000091   0.371458   0.371462
     9  C   -0.000000  -0.000001   0.000000   0.000051   0.005767  -0.001933
    10  C   -0.000000   0.000000  -0.000001   0.000047  -0.006374  -0.001882
    11  O    0.000000   0.005269   0.001262   0.002662   0.000003   0.000008
    12  O    0.009423   0.001130   0.000485   0.016736  -0.000000   0.000000
    13  H    0.391148  -0.000309  -0.000407  -0.000044  -0.000000   0.000000
    14  H   -0.000309   0.540721  -0.035883   0.003407  -0.000000  -0.000000
    15  H   -0.000407  -0.035883   0.567502   0.001973   0.000000   0.000000
    16  H   -0.000044   0.003407   0.001973   0.404135   0.000033   0.000001
    17  H   -0.000000  -0.000000   0.000000   0.000033   0.603175  -0.029272
    18  H    0.000000  -0.000000   0.000000   0.000001  -0.029272   0.607706
    19  H   -0.000000   0.000000  -0.000000   0.000031  -0.031414  -0.029172
    20  H    0.000000   0.000000  -0.000000  -0.000001  -0.000008   0.001748
    21  H   -0.000000   0.000002  -0.000000  -0.000013  -0.000199   0.000014
    22  H   -0.000000  -0.000000  -0.000000   0.000005  -0.000070   0.000161
    23  H    0.000000  -0.000000   0.000000  -0.000001   0.000130   0.001734
    24  H   -0.000000  -0.000000   0.000000   0.000007   0.004120   0.000159
    25  H   -0.000000  -0.000001   0.000002  -0.000015  -0.000045   0.000013
              19         20         21         22         23         24
     1  O   -0.000000  -0.000000  -0.000000  -0.000000   0.000000   0.000000
     2  C   -0.000000   0.000000  -0.000000  -0.000000  -0.000000  -0.000000
     3  C    0.000000  -0.000000  -0.000002   0.000001  -0.000000  -0.000001
     4  N   -0.000018   0.000004   0.000078  -0.000041   0.000004  -0.000039
     5  C    0.000043   0.000167   0.001935   0.000464   0.000166   0.000447
     6  O    0.000590   0.002895  -0.003057   0.000165   0.002888   0.000204
     7  C   -0.025189  -0.024869  -0.023057  -0.026333  -0.024838  -0.026385
     8  C    0.371863  -0.003464   0.004775  -0.006127  -0.003439  -0.006156
     9  C   -0.006338   0.366403   0.376818   0.370335  -0.001574   0.005396
    10  C    0.005756  -0.001566  -0.005924   0.005377   0.366544   0.369932
    11  O    0.000003   0.000161   0.009403  -0.000042   0.000160  -0.000050
    12  O   -0.000000   0.000000   0.000000   0.000000   0.000000   0.000000
    13  H   -0.000000   0.000000  -0.000000  -0.000000   0.000000  -0.000000
    14  H    0.000000   0.000000   0.000002  -0.000000  -0.000000  -0.000000
    15  H   -0.000000  -0.000000  -0.000000  -0.000000   0.000000   0.000000
    16  H    0.000031  -0.000001  -0.000013   0.000005  -0.000001   0.000007
    17  H   -0.031414  -0.000008  -0.000199  -0.000070   0.000130   0.004120
    18  H   -0.029172   0.001748   0.000014   0.000161   0.001734   0.000159
    19  H    0.601282   0.000131  -0.000045   0.004090  -0.000008  -0.000070
    20  H    0.000131   0.613948  -0.027855  -0.029537   0.001120  -0.000054
    21  H   -0.000045  -0.027855   0.556388  -0.030016   0.000126   0.000002
    22  H    0.004090  -0.029537  -0.030016   0.607448  -0.000054  -0.000207
    23  H   -0.000008   0.001120   0.000126  -0.000054   0.613617  -0.029587
    24  H   -0.000070  -0.000054   0.000002  -0.000207  -0.029587   0.609390
    25  H   -0.000198   0.000128   0.003095   0.000002  -0.027849  -0.030107
              25
     1  O    0.000000
     2  C   -0.000000
     3  C   -0.000002
     4  N    0.000077
     5  C    0.001932
     6  O   -0.003068
     7  C   -0.023041
     8  C    0.004778
     9  C   -0.005926
    10  C    0.376956
    11  O    0.009401
    12  O    0.000000
    13  H   -0.000000
    14  H   -0.000001
    15  H    0.000002
    16  H   -0.000015
    17  H   -0.000045
    18  H    0.000013
    19  H   -0.000198
    20  H    0.000128
    21  H    0.003095
    22  H    0.000002
    23  H   -0.027849
    24  H   -0.030107
    25  H    0.556168
 Mulliken charges:
               1
     1  O   -0.471901
     2  C    0.551190
     3  C   -0.064976
     4  N   -0.573737
     5  C    0.797737
     6  O   -0.518354
     7  C    0.281434
     8  C   -0.308884
     9  C   -0.324847
    10  C   -0.324597
    11  O   -0.532712
    12  O   -0.455558
    13  H    0.326934
    14  H    0.169798
    15  H    0.157864
    16  H    0.286388
    17  H    0.107306
    18  H    0.104135
    19  H    0.108663
    20  H    0.100649
    21  H    0.137531
    22  H    0.104378
    23  H    0.100861
    24  H    0.102998
    25  H    0.137701
 Sum of Mulliken charges =  -0.00000
 Mulliken charges with hydrogens summed into heavy atoms:
               1
     1  O   -0.144967
     2  C    0.551190
     3  C    0.262686
     4  N   -0.287350
     5  C    0.797737
     6  O   -0.518354
     7  C    0.281434
     8  C    0.011219
     9  C    0.017711
    10  C    0.016963
    11  O   -0.532712
    12  O   -0.455558
 Electronic spatial extent (au):  <R**2>=           3228.6493
 Charge=             -0.0000 electrons
 Dipole moment (field-independent basis, Debye):
    X=             -1.0797    Y=              0.9812    Z=             -0.3801  Tot=              1.5077
 Quadrupole moment (field-independent basis, Debye-Ang):
   XX=            -53.0267   YY=            -78.8317   ZZ=            -69.4548
   XY=              3.1554   XZ=             -0.0056   YZ=              0.1572
 Traceless Quadrupole moment (field-independent basis, Debye-Ang):
   XX=             14.0777   YY=            -11.7273   ZZ=             -2.3504
   XY=              3.1554   XZ=             -0.0056   YZ=              0.1572
 Octapole moment (field-independent basis, Debye-Ang**2):
  XXX=            -89.1735  YYY=              4.5601  ZZZ=             -0.0564  XYY=              0.9236
  XXY=              3.2967  XXZ=              4.8868  XZZ=            -11.7857  YZZ=             -0.2581
  YYZ=             -1.4469  XYZ=              0.4173
 Hexadecapole moment (field-independent basis, Debye-Ang**3):
 XXXX=          -2710.3847 YYYY=           -489.5994 ZZZZ=           -251.7842 XXXY=            -81.0808
 XXXZ=            -32.0866 YYYX=             13.6996 YYYZ=             -0.6821 ZZZX=             -2.6043
 ZZZY=             -0.3933 XXYY=           -685.4558 XXZZ=           -593.1976 YYZZ=           -116.6353
 XXYZ=              1.3630 YYXZ=              1.0109 ZZXY=             -2.5861
 N-N= 7.344434496810D+02 E-N=-2.941694789012D+03  KE= 6.245343544651D+02
 Calling FoFJK, ICntrl=      2127 FMM=F ISym2X=0 I1Cent= 0 IOpClX= 0 NMat=1 NMatS=1 NMatT=0.
 ***** Axes restored to original set *****
 -------------------------------------------------------------------
 Center     Atomic                   Forces (Hartrees/Bohr)
 Number     Number              X              Y              Z
 -------------------------------------------------------------------
      1        8          -0.011174532   -0.002429453   -0.007092796
      2        6          -0.010308080   -0.005219327   -0.004111375
      3        6          -0.003331034    0.020392079   -0.010784364
      4        7           0.000371909   -0.013908848   -0.000229120
      5        6          -0.000315500   -0.015738237    0.001833487
      6        8           0.008997326    0.011423662    0.007824221
      7        6          -0.019454942   -0.001131499   -0.018703847
      8        6           0.003360977    0.002064969    0.003117415
      9        6           0.003530032   -0.006219647    0.005084357
     10        6           0.004866195   -0.006351336    0.003534453
     11        8           0.006505192    0.011294365    0.004739781
     12        8          -0.000780276   -0.001583125    0.000001792
     13        1           0.012102781    0.005395737    0.007021394
     14        1          -0.001435138   -0.000925784   -0.001617520
     15        1          -0.000089837   -0.003269260    0.004435930
     16        1           0.004011286   -0.000525084    0.002137450
     17        1          -0.001020463   -0.000729099    0.003275154
     18        1          -0.001840989   -0.003093756   -0.001588402
     19        1           0.003196859   -0.000949469   -0.001120032
     20        1          -0.003537340    0.003251715    0.000315240
     21        1          -0.000417222   -0.001061587    0.003532671
     22        1           0.002278086    0.003720126    0.000445728
     23        1           0.000341684    0.003054777   -0.003662842
     24        1           0.000704957    0.003806966    0.002100750
     25        1           0.003438070   -0.001268887   -0.000489525
 -------------------------------------------------------------------
 Cartesian Forces:  Max     0.020392079 RMS     0.006460203

 GradGradGradGradGradGradGradGradGradGradGradGradGradGradGradGradGradGrad
 Berny optimization.
 FormGI is forming the generalized inverse of G from B-inverse, IUseBI=4.
 Internal  Forces:  Max     0.023383557 RMS     0.004706242
 Search for a local minimum.
 Step number   1 out of a maximum of  125
 All quantities printed in internal units (Hartrees-Bohrs-Radians)
 Mixed Optimization -- RFO/linear search
 Second derivative matrix not updated -- first step.
 ITU=  0
     Eigenvalues ---    0.00230   0.00230   0.00285   0.00335   0.00744
     Eigenvalues ---    0.00820   0.01248   0.01268   0.02008   0.02133
     Eigenvalues ---    0.02338   0.02381   0.04494   0.05185   0.05321
     Eigenvalues ---    0.05322   0.05355   0.05364   0.05365   0.05426
     Eigenvalues ---    0.05438   0.06473   0.06806   0.09466   0.12964
     Eigenvalues ---    0.15835   0.15966   0.16000   0.16000   0.16000
     Eigenvalues ---    0.16000   0.16000   0.16000   0.16000   0.16000
     Eigenvalues ---    0.16000   0.16000   0.16281   0.21943   0.22008
     Eigenvalues ---    0.24999   0.25000   0.25000   0.25000   0.25000
     Eigenvalues ---    0.28268   0.28279   0.28843   0.29187   0.34589
     Eigenvalues ---    0.34748   0.34757   0.34769   0.34797   0.34802
     Eigenvalues ---    0.34803   0.34818   0.34820   0.34835   0.34844
     Eigenvalues ---    0.35544   0.40700   0.46183   0.49816   0.54782
     Eigenvalues ---    0.55476   0.55859   0.91877   0.99899
 RFO step:  Lambda=-9.33694263D-03 EMin= 2.30000000D-03
 Linear search not attempted -- first point.
 Iteration  1 RMS(Cart)=  0.11394708 RMS(Int)=  0.00337548
 Iteration  2 RMS(Cart)=  0.00612902 RMS(Int)=  0.00020986
 Iteration  3 RMS(Cart)=  0.00001087 RMS(Int)=  0.00020979
 Iteration  4 RMS(Cart)=  0.00000000 RMS(Int)=  0.00020979
 Variable       Old X    -DE/DX   Delta X   Delta X   Delta X     New X
                                 (Linear)    (Quad)   (Total)
    R1        2.55326  -0.00155   0.00000  -0.00278  -0.00278   2.55048
    R2        1.81077   0.01477   0.00000   0.02601   0.02601   1.83678
    R3        2.89614  -0.01152   0.00000  -0.03826  -0.03826   2.85788
    R4        2.28679  -0.00172   0.00000  -0.00171  -0.00171   2.28509
    R5        2.78100  -0.02242   0.00000  -0.06147  -0.06147   2.71953
    R6        2.06347   0.00118   0.00000   0.00332   0.00332   2.06679
    R7        2.06052   0.00446   0.00000   0.01250   0.01250   2.07303
    R8        2.60051  -0.01480   0.00000  -0.02917  -0.02917   2.57134
    R9        1.90625   0.00046   0.00000   0.00098   0.00098   1.90723
   R10        2.54711   0.00233   0.00000   0.00412   0.00412   2.55124
   R11        2.32080  -0.01343   0.00000  -0.01447  -0.01447   2.30633
   R12        2.70614   0.00603   0.00000   0.01448   0.01448   2.72061
   R13        2.90331  -0.00375   0.00000  -0.01261  -0.01261   2.89070
   R14        2.91556  -0.00730   0.00000  -0.02498  -0.02498   2.89058
   R15        2.91534  -0.00719   0.00000  -0.02462  -0.02462   2.89072
   R16        2.06085   0.00265   0.00000   0.00743   0.00743   2.06828
   R17        2.06006   0.00189   0.00000   0.00529   0.00529   2.06534
   R18        2.06072   0.00266   0.00000   0.00745   0.00745   2.06817
   R19        2.05929   0.00259   0.00000   0.00725   0.00725   2.06654
   R20        2.05997   0.00142   0.00000   0.00398   0.00398   2.06395
   R21        2.05972   0.00318   0.00000   0.00891   0.00891   2.06862
   R22        2.05944   0.00253   0.00000   0.00708   0.00708   2.06652
   R23        2.05968   0.00323   0.00000   0.00904   0.00904   2.06872
   R24        2.05996   0.00143   0.00000   0.00401   0.00401   2.06397
    A1        1.83722   0.00465   0.00000   0.02745   0.02745   1.86468
    A2        1.92819   0.00177   0.00000   0.00680   0.00678   1.93497
    A3        2.16176  -0.00046   0.00000  -0.00182  -0.00184   2.15992
    A4        2.19318  -0.00131   0.00000  -0.00508  -0.00509   2.18809
    A5        1.91309  -0.00452   0.00000  -0.01982  -0.01979   1.89329
    A6        1.89421   0.00346   0.00000   0.01831   0.01823   1.91244
    A7        1.90889  -0.00121   0.00000  -0.01231  -0.01216   1.89673
    A8        1.93594  -0.00095   0.00000  -0.01136  -0.01130   1.92464
    A9        1.93374   0.00440   0.00000   0.03003   0.03001   1.96374
   A10        1.87716  -0.00111   0.00000  -0.00472  -0.00466   1.87250
   A11        2.14136  -0.00688   0.00000  -0.02970  -0.02974   2.11162
   A12        2.08813  -0.00069   0.00000  -0.00900  -0.00905   2.07908
   A13        2.05091   0.00758   0.00000   0.03999   0.03995   2.09086
   A14        1.89393   0.00400   0.00000   0.01545   0.01540   1.90933
   A15        2.19081  -0.00596   0.00000  -0.02297  -0.02302   2.16780
   A16        2.19844   0.00196   0.00000   0.00757   0.00751   2.20595
   A17        2.17666  -0.02338   0.00000  -0.09017  -0.09017   2.08649
   A18        1.81207  -0.00003   0.00000  -0.00024   0.00044   1.81251
   A19        1.94925  -0.00160   0.00000  -0.03014  -0.03041   1.91885
   A20        1.94924  -0.00160   0.00000  -0.03025  -0.03051   1.91873
   A21        1.90419   0.00172   0.00000   0.03028   0.02988   1.93407
   A22        1.90448   0.00171   0.00000   0.03020   0.02980   1.93428
   A23        1.93957  -0.00001   0.00000   0.00332   0.00180   1.94137
   A24        1.94283  -0.00181   0.00000  -0.00957  -0.00966   1.93316
   A25        1.94874  -0.00403   0.00000  -0.02609  -0.02628   1.92246
   A26        1.94265  -0.00182   0.00000  -0.00960  -0.00969   1.93295
   A27        1.87883   0.00286   0.00000   0.01475   0.01457   1.89340
   A28        1.86816   0.00247   0.00000   0.01892   0.01892   1.88708
   A29        1.87894   0.00287   0.00000   0.01488   0.01470   1.89364
   A30        1.94610  -0.00436   0.00000  -0.02794  -0.02822   1.91788
   A31        1.95094  -0.00301   0.00000  -0.01473  -0.01483   1.93611
   A32        1.94019  -0.00230   0.00000  -0.01445  -0.01465   1.92554
   A33        1.87183   0.00417   0.00000   0.02623   0.02606   1.89789
   A34        1.88171   0.00283   0.00000   0.01101   0.01064   1.89236
   A35        1.86923   0.00336   0.00000   0.02398   0.02395   1.89319
   A36        1.94595  -0.00436   0.00000  -0.02793  -0.02820   1.91775
   A37        1.94038  -0.00228   0.00000  -0.01438  -0.01458   1.92580
   A38        1.95096  -0.00298   0.00000  -0.01451  -0.01461   1.93635
   A39        1.88160   0.00281   0.00000   0.01083   0.01046   1.89206
   A40        1.87161   0.00417   0.00000   0.02630   0.02614   1.89775
   A41        1.86950   0.00333   0.00000   0.02377   0.02374   1.89324
    D1        3.14038   0.00040   0.00000   0.01449   0.01450  -3.12831
    D2       -0.01116   0.00021   0.00000   0.00389   0.00388  -0.00728
    D3       -3.07319   0.00116   0.00000   0.00981   0.00992  -3.06327
    D4       -0.95645  -0.00061   0.00000  -0.00479  -0.00482  -0.96128
    D5        1.08673  -0.00065   0.00000  -0.00693  -0.00699   1.07974
    D6        0.07856   0.00135   0.00000   0.02062   0.02072   0.09929
    D7        2.19530  -0.00042   0.00000   0.00602   0.00598   2.20128
    D8       -2.04469  -0.00046   0.00000   0.00388   0.00381  -2.04089
    D9        2.90574   0.00075   0.00000   0.00610   0.00633   2.91208
   D10       -0.31804   0.00129   0.00000   0.02702   0.02707  -0.29097
   D11        0.81435  -0.00004   0.00000   0.00330   0.00332   0.81767
   D12       -2.40944   0.00051   0.00000   0.02422   0.02406  -2.38538
   D13       -1.26917  -0.00090   0.00000  -0.00298  -0.00296  -1.27213
   D14        1.79023  -0.00035   0.00000   0.01794   0.01778   1.80801
   D15        3.10546   0.00020   0.00000   0.01244   0.01251   3.11796
   D16       -0.03360  -0.00035   0.00000  -0.00536  -0.00515  -0.03875
   D17        0.04440   0.00002   0.00000  -0.00596  -0.00617   0.03823
   D18       -3.09465  -0.00053   0.00000  -0.02376  -0.02383  -3.11848
   D19        3.13692  -0.00029   0.00000  -0.00965  -0.00977   3.12715
   D20       -0.00722   0.00024   0.00000   0.00819   0.00831   0.00109
   D21       -3.13909  -0.00002   0.00000  -0.00056  -0.00056  -3.13965
   D22       -1.08971   0.00122   0.00000   0.02046   0.02011  -1.06960
   D23        1.09438  -0.00124   0.00000  -0.02142  -0.02108   1.07330
   D24       -1.04168  -0.00035   0.00000  -0.00551  -0.00546  -1.04714
   D25        3.14122   0.00001   0.00000   0.00013   0.00013   3.14135
   D26        1.04093   0.00036   0.00000   0.00562   0.00557   1.04650
   D27       -3.12216   0.00070   0.00000   0.01519   0.01548  -3.10669
   D28        1.06074   0.00106   0.00000   0.02083   0.02107   1.08181
   D29       -1.03955   0.00141   0.00000   0.02632   0.02650  -1.01305
   D30        1.03892  -0.00141   0.00000  -0.02636  -0.02655   1.01237
   D31       -1.06136  -0.00105   0.00000  -0.02072  -0.02096  -1.08232
   D32        3.12153  -0.00071   0.00000  -0.01524  -0.01552   3.10601
   D33       -3.00616  -0.00088   0.00000  -0.02604  -0.02597  -3.03212
   D34        1.18193  -0.00114   0.00000  -0.03016  -0.03007   1.15186
   D35       -0.90582  -0.00182   0.00000  -0.04089  -0.04067  -0.94649
   D36       -1.01309  -0.00079   0.00000  -0.02525  -0.02541  -1.03850
   D37       -3.10819  -0.00105   0.00000  -0.02937  -0.02951  -3.13770
   D38        1.08724  -0.00173   0.00000  -0.04009  -0.04011   1.04713
   D39        1.08759   0.00244   0.00000   0.03406   0.03398   1.12157
   D40       -1.00751   0.00219   0.00000   0.02994   0.02988  -0.97764
   D41       -3.09527   0.00151   0.00000   0.01921   0.01928  -3.07598
   D42        3.00649   0.00087   0.00000   0.02600   0.02593   3.03242
   D43        0.90627   0.00182   0.00000   0.04102   0.04080   0.94707
   D44       -1.18197   0.00114   0.00000   0.03039   0.03030  -1.15167
   D45        1.01326   0.00079   0.00000   0.02533   0.02549   1.03874
   D46       -1.08696   0.00173   0.00000   0.04035   0.04036  -1.04660
   D47        3.10799   0.00106   0.00000   0.02971   0.02985   3.13784
   D48       -1.08725  -0.00245   0.00000  -0.03404  -0.03396  -1.12121
   D49        3.09572  -0.00151   0.00000  -0.01902  -0.01908   3.07663
   D50        1.00748  -0.00218   0.00000  -0.02965  -0.02959   0.97789
         Item               Value     Threshold  Converged?
 Maximum Force            0.023384     0.000450     NO 
 RMS     Force            0.004706     0.000300     NO 
 Maximum Displacement     0.362537     0.001800     NO 
 RMS     Displacement     0.116082     0.001200     NO 
 Predicted change in Energy=-4.944507D-03
 GradGradGradGradGradGradGradGradGradGradGradGradGradGradGradGradGradGrad

                          Input orientation:                          
 ---------------------------------------------------------------------
 Center     Atomic      Atomic             Coordinates (Angstroms)
 Number     Number       Type             X           Y           Z
 ---------------------------------------------------------------------
      1          8           0        4.767954   -1.395432    1.259387
      2          6           0        4.047767   -0.436694    0.639931
      3          6           0        2.822692   -1.026488   -0.022234
      4          7           0        2.152326    0.016581   -0.752757
      5          6           0        1.176833   -0.275850   -1.655191
      6          8           0        0.691067    0.870367   -2.177559
      7          6           0       -0.345167    0.812713   -3.175353
      8          6           0       -0.615018    2.281148   -3.508277
      9          6           0        0.158617    0.059663   -4.407781
     10          6           0       -1.594000    0.148795   -2.592588
     11          8           0        0.825663   -1.408707   -1.942994
     12          8           0        4.345350    0.735326    0.644031
     13          1           0        5.528932   -0.953485    1.672109
     14          1           0        3.123678   -1.830488   -0.699856
     15          1           0        2.186094   -1.473375    0.751354
     16          1           0        2.376002    0.979725   -0.550426
     17          1           0       -0.941600    2.827205   -2.617735
     18          1           0       -1.397260    2.357390   -4.267742
     19          1           0        0.289144    2.764373   -3.891367
     20          1           0       -0.586766    0.112159   -5.206237
     21          1           0        0.348186   -0.990053   -4.173153
     22          1           0        1.088692    0.506905   -4.772792
     23          1           0       -2.415250    0.204901   -3.312495
     24          1           0       -1.903268    0.659311   -1.674907
     25          1           0       -1.404567   -0.900889   -2.357668
 ---------------------------------------------------------------------
                    Distance matrix (angstroms):
                    1          2          3          4          5
     1  O    0.000000
     2  C    1.349656   0.000000
     3  C    2.358541   1.512325   0.000000
     4  N    3.589431   2.395357   1.439113   0.000000
     5  C    4.758611   3.679093   2.436978   1.360695   0.000000
     6  O    5.793742   4.573193   3.575935   2.212304   1.350056
     7  C    7.119468   5.951074   4.833234   3.569351   2.410880
     8  C    8.076152   6.807045   5.908536   4.514349   3.630825
     9  C    7.448495   6.391499   5.245001   4.163644   2.953994
    10  C    7.595841   6.528516   5.243584   4.175814   2.955765
    11  O    5.079082   4.242436   2.797058   2.282136   1.220457
    12  O    2.257739   1.209216   2.422062   2.697585   4.043316
    13  H    0.971980   1.877848   3.193722   4.268778   5.520044
    14  H    2.594523   2.142809   1.093700   2.087578   2.668290
    15  H    2.632522   2.133764   1.096998   2.117419   2.871261
    16  H    3.825993   2.493590   2.122123   1.009265   2.057908
    17  H    8.090843   6.794057   5.979755   4.577131   3.878556
    18  H    9.090802   7.844774   6.876261   5.516708   4.515011
    19  H    7.993371   6.701249   5.979940   4.568663   3.877039
    20  H    8.529370   7.480496   6.308313   5.229268   3.983812
    21  H    7.015067   6.095809   4.832664   3.995916   2.745337
    22  H    7.317310   6.240518   5.284491   4.187172   3.215572
    23  H    8.663809   7.602888   6.306994   5.239320   3.985076
    24  H    7.572137   6.478775   5.282797   4.208481   3.218996
    25  H    7.171309   6.239313   4.831123   4.008613   2.747321
                    6          7          8          9         10
     6  O    0.000000
     7  C    1.439687   0.000000
     8  C    2.338155   1.529692   0.000000
     9  C    2.432002   1.529628   2.518455   0.000000
    10  C    2.431964   1.529701   2.518694   2.524785   0.000000
    11  O    2.295064   2.797188   4.259190   2.945545   2.950010
    12  O    4.618808   6.049350   6.651051   6.595912   6.789374
    13  H    6.446031   7.818080   8.662988   8.175072   8.374892
    14  H    3.923750   5.014726   6.226605   5.110084   5.454950
    15  H    4.038164   5.201203   6.331440   5.751308   5.301179
    16  H    2.344894   3.784561   4.403270   4.543402   4.541122
    17  H    2.586227   2.173672   1.094486   3.474771   2.756834
    18  H    3.307750   2.164772   1.092933   2.778474   2.778981
    19  H    2.585718   2.173477   1.094428   2.756661   3.474810
    20  H    3.373519   2.161859   2.754701   1.093565   2.801254
    21  H    2.749751   2.174008   3.474274   1.092195   2.750864
    22  H    2.650555   2.168244   2.765784   1.094668   3.475395
    23  H    3.373445   2.161825   2.754989   2.800989   1.093556
    24  H    2.650996   2.168536   2.766078   3.475564   1.094719
    25  H    2.749813   2.174252   3.474572   2.751212   1.092204
                   11         12         13         14         15
    11  O    0.000000
    12  O    4.865981   0.000000
    13  H    5.949532   2.304320   0.000000
    14  H    2.646537   3.143551   3.490072   0.000000
    15  H    3.019017   3.090673   3.506086   1.764257   0.000000
    16  H    3.169764   2.316201   4.314849   2.911811   2.783594
    17  H    4.639121   6.554916   8.635054   6.472931   6.295095
    18  H    4.952709   7.728789   9.706485   7.120885   7.259925
    19  H    4.636659   6.414022   8.498830   6.271608   6.565957
    20  H    3.867396   7.677223   9.265474   6.152133   6.759850
    21  H    2.318808   6.493036   7.810797   4.524763   5.278474
    22  H    3.427318   6.324553   7.961483   5.117947   5.970091
    23  H    3.870760   7.851189   9.449770   6.453558   6.364264
    24  H    3.434478   6.665469   8.309105   5.693857   5.211332
    25  H    2.324600   6.689465   8.019681   4.910957   4.783995
                   16         17         18         19         20
    16  H    0.000000
    17  H    4.323590   0.000000
    18  H    5.473017   1.775070   0.000000
    19  H    4.324562   1.772235   1.775176   0.000000
    20  H    5.586345   3.767987   2.564904   3.087125   0.000000
    21  H    4.595239   4.319066   3.776361   3.765449   1.776590
    22  H    4.439493   3.761668   3.139957   2.551930   1.775066
    23  H    5.584396   3.087201   2.565542   3.768253   2.634049
    24  H    4.436133   2.552155   3.140431   3.761735   3.808260
    25  H    4.592988   3.765721   3.776879   4.319148   3.131999
                   21         22         23         24         25
    21  H    0.000000
    22  H    1.774486   0.000000
    23  H    3.131330   3.808055   0.000000
    24  H    3.745755   4.309518   1.774910   0.000000
    25  H    2.525091   3.745804   1.776498   1.774567   0.000000
 Stoichiometry    C7H13NO4
 Framework group  C1[X(C7H13NO4)]
 Deg. of freedom    69
 Full point group                 C1      NOp   1
 Largest Abelian subgroup         C1      NOp   1
 Largest concise Abelian subgroup C1      NOp   1
                         Standard orientation:                         
 ---------------------------------------------------------------------
 Center     Atomic      Atomic             Coordinates (Angstroms)
 Number     Number       Type             X           Y           Z
 ---------------------------------------------------------------------
      1          8           0       -4.503853   -0.449042    0.114592
      2          6           0       -3.366251    0.270403    0.015436
      3          6           0       -2.170385   -0.635983   -0.172971
      4          7           0       -0.979805    0.172424   -0.166255
      5          6           0        0.251571   -0.394945   -0.050934
      6          8           0        1.195720    0.568773   -0.100750
      7          6           0        2.584505    0.209004    0.019828
      8          6           0        3.319352    1.546899   -0.080146
      9          6           0        2.836860   -0.449638    1.377130
     10          6           0        2.984660   -0.718452   -1.128949
     11          8           0        0.445028   -1.591466    0.091982
     12          8           0       -3.330046    1.478540    0.051439
     13          1           0       -5.230956    0.187153    0.220996
     14          1           0       -2.135095   -1.369325    0.637672
     15          1           0       -2.295292   -1.192011   -1.110326
     16          1           0       -1.062046    1.169077   -0.302392
     17          1           0        3.109857    2.034023   -1.037601
     18          1           0        4.398078    1.390875    0.000532
     19          1           0        3.005339    2.222608    0.721469
     20          1           0        3.908188   -0.621201    1.513903
     21          1           0        2.316160   -1.407023    1.449079
     22          1           0        2.484282    0.198556    2.185729
     23          1           0        4.062348   -0.901893   -1.100607
     24          1           0        2.737228   -0.260151   -2.091834
     25          1           0        2.463880   -1.675826   -1.057314
 ---------------------------------------------------------------------
 Rotational constants (GHZ):           2.4005473           0.3766258           0.3522638
 Standard basis: 6-31G(d,p) (6D, 7F)
 There are   245 symmetry adapted cartesian basis functions of A   symmetry.
 There are   245 symmetry adapted basis functions of A   symmetry.
   245 basis functions,   427 primitive gaussians,   245 cartesian basis functions
    47 alpha electrons       47 beta electrons
       nuclear repulsion energy       743.6999557463 Hartrees.
 NAtoms=   25 NActive=   25 NUniq=   25 SFac= 1.00D+00 NAtFMM=   60 NAOKFM=F Big=F
 Integral buffers will be    131072 words long.
 Raffenetti 2 integral format.
 Two-electron integral symmetry is turned on.
 Nuclear repulsion after empirical dispersion term =      743.6615363662 Hartrees.
 One-electron integrals computed using PRISM.
 NBasis=   245 RedAO= T EigKep=  2.50D-03  NBF=   245
 NBsUse=   245 1.00D-06 EigRej= -1.00D+00 NBFU=   245
 Initial guess from the checkpoint file:  "Ac2_conf-1.chk"
 B after Tr=    -0.000000   -0.000000   -0.000000
         Rot=    0.999978   -0.005266    0.000888    0.003890 Ang=  -0.76 deg.
 ExpMin= 1.61D-01 ExpMax= 5.48D+03 ExpMxC= 8.25D+02 IAcc=3 IRadAn=         5 AccDes= 0.00D+00
 Harris functional with IExCor=  402 and IRadAn=       5 diagonalized for initial guess.
 HarFok:  IExCor=  402 AccDes= 0.00D+00 IRadAn=         5 IDoV= 1 UseB2=F ITyADJ=14
 ICtDFT=  3500011 ScaDFX=  1.000000  1.000000  1.000000  1.000000
 FoFCou: FMM=F IPFlag=           0 FMFlag=      100000 FMFlg1=           0
         NFxFlg=           0 DoJE=T BraDBF=F KetDBF=T FulRan=T
         wScrn=  0.000000 ICntrl=       500 IOpCl=  0 I1Cent=   200000004 NGrid=           0
         NMat0=    1 NMatS0=      1 NMatT0=    0 NMatD0=    1 NMtDS0=    0 NMtDT0=    0
 Petite list used in FoFCou.
 Requested convergence on RMS density matrix=1.00D-08 within 128 cycles.
 Requested convergence on MAX density matrix=1.00D-06.
 Requested convergence on             energy=1.00D-06.
 No special actions if energy rises.
 Integral accuracy reduced to 1.0D-05 until final iterations.
 Initial convergence to 1.0D-05 achieved.  Increase integral accuracy.
 SCF Done:  E(RB3LYP) =  -630.327687810     A.U. after   12 cycles
            NFock= 12  Conv=0.66D-08     -V/T= 2.0090
 Calling FoFJK, ICntrl=      2127 FMM=F ISym2X=0 I1Cent= 0 IOpClX= 0 NMat=1 NMatS=1 NMatT=0.
 ***** Axes restored to original set *****
 -------------------------------------------------------------------
 Center     Atomic                   Forces (Hartrees/Bohr)
 Number     Number              X              Y              Z
 -------------------------------------------------------------------
      1        8           0.000123889    0.000771686   -0.000543910
      2        6           0.000180623   -0.005400879    0.002696714
      3        6           0.000860978    0.006085517   -0.003323063
      4        7          -0.003505795   -0.001148637   -0.000141557
      5        6           0.003256192   -0.000109390    0.000803700
      6        8           0.007114021    0.004108910    0.007342258
      7        6          -0.009640270   -0.002269047   -0.009152561
      8        6           0.001185477    0.000791786    0.001134542
      9        6           0.001569430   -0.002086781   -0.002627533
     10        6          -0.002634174   -0.001835491    0.001759583
     11        8           0.001906504   -0.003267653    0.002858187
     12        8           0.000582570    0.002413300   -0.000218738
     13        1          -0.000162834    0.000311758    0.000070485
     14        1          -0.000302095   -0.001579579    0.000761389
     15        1           0.000223180   -0.001785656    0.000941864
     16        1           0.001873927   -0.000304459    0.000515797
     17        1          -0.000020900   -0.000649144   -0.000117536
     18        1          -0.000144639   -0.000308467   -0.000132621
     19        1          -0.000145076   -0.000637943    0.000009702
     20        1          -0.000139097    0.000649481   -0.000433331
     21        1          -0.000840351    0.002076815   -0.000326517
     22        1          -0.000458034    0.000776196   -0.000308343
     23        1          -0.000406605    0.000630737   -0.000148808
     24        1          -0.000277025    0.000771854   -0.000489922
     25        1          -0.000199896    0.001995084   -0.000929781
 -------------------------------------------------------------------
 Cartesian Forces:  Max     0.009640270 RMS     0.002578925

 GradGradGradGradGradGradGradGradGradGradGradGradGradGradGradGradGradGrad
 Berny optimization.
 Using GEDIIS/GDIIS optimizer.
 FormGI is forming the generalized inverse of G from B-inverse, IUseBI=4.
 Internal  Forces:  Max     0.016902023 RMS     0.002503340
 Search for a local minimum.
 Step number   2 out of a maximum of  125
 All quantities printed in internal units (Hartrees-Bohrs-Radians)
 Mixed Optimization -- RFO/linear search
 Update second derivatives using D2CorX and points    1    2
 DE= -4.17D-03 DEPred=-4.94D-03 R= 8.43D-01
 TightC=F SS=  1.41D+00  RLast= 2.42D-01 DXNew= 5.0454D-01 7.2712D-01
 Trust test= 8.43D-01 RLast= 2.42D-01 DXMaxT set to 5.05D-01
 ITU=  1  0
 Use linear search instead of GDIIS.
     Eigenvalues ---    0.00230   0.00231   0.00285   0.00335   0.00743
     Eigenvalues ---    0.00824   0.01257   0.01268   0.02007   0.02145
     Eigenvalues ---    0.02337   0.02381   0.04363   0.05297   0.05470
     Eigenvalues ---    0.05491   0.05516   0.05563   0.05576   0.05600
     Eigenvalues ---    0.06144   0.06513   0.06733   0.09269   0.12601
     Eigenvalues ---    0.14715   0.15993   0.16000   0.16000   0.16000
     Eigenvalues ---    0.16000   0.16000   0.16000   0.16000   0.16000
     Eigenvalues ---    0.16034   0.16046   0.16566   0.21559   0.21977
     Eigenvalues ---    0.23896   0.24996   0.25000   0.25000   0.27627
     Eigenvalues ---    0.28273   0.28637   0.28918   0.31252   0.33191
     Eigenvalues ---    0.34596   0.34751   0.34762   0.34788   0.34801
     Eigenvalues ---    0.34803   0.34819   0.34830   0.34840   0.34918
     Eigenvalues ---    0.35152   0.45112   0.46182   0.50639   0.54709
     Eigenvalues ---    0.54975   0.57897   0.92261   1.00095
 RFO step:  Lambda=-2.11541202D-03 EMin= 2.29999794D-03
 Quartic linear search produced a step of -0.12629.
 Iteration  1 RMS(Cart)=  0.04420140 RMS(Int)=  0.00050888
 Iteration  2 RMS(Cart)=  0.00092202 RMS(Int)=  0.00007668
 Iteration  3 RMS(Cart)=  0.00000022 RMS(Int)=  0.00007668
 Variable       Old X    -DE/DX   Delta X   Delta X   Delta X     New X
                                 (Linear)    (Quad)   (Total)
    R1        2.55048  -0.00101   0.00035  -0.00258  -0.00223   2.54826
    R2        1.83678   0.00004  -0.00328   0.00923   0.00594   1.84272
    R3        2.85788   0.00072   0.00483  -0.01157  -0.00673   2.85115
    R4        2.28509   0.00248   0.00022   0.00157   0.00178   2.28687
    R5        2.71953   0.00031   0.00776  -0.02114  -0.01337   2.70616
    R6        2.06679   0.00061  -0.00042   0.00270   0.00228   2.06908
    R7        2.07303   0.00126  -0.00158   0.00760   0.00602   2.07905
    R8        2.57134   0.00028   0.00368  -0.00981  -0.00613   2.56521
    R9        1.90723   0.00023  -0.00012   0.00078   0.00065   1.90789
   R10        2.55124   0.00693  -0.00052   0.01231   0.01179   2.56302
   R11        2.30633   0.00181   0.00183  -0.00334  -0.00152   2.30481
   R12        2.72061   0.01690  -0.00183   0.04116   0.03933   2.75995
   R13        2.89070  -0.00112   0.00159  -0.00788  -0.00629   2.88441
   R14        2.89058   0.00232   0.00316  -0.00185   0.00131   2.89189
   R15        2.89072   0.00227   0.00311  -0.00189   0.00122   2.89193
   R16        2.06828  -0.00041  -0.00094   0.00161   0.00068   2.06896
   R17        2.06534   0.00017  -0.00067   0.00232   0.00165   2.06699
   R18        2.06817  -0.00041  -0.00094   0.00164   0.00070   2.06887
   R19        2.06654   0.00044  -0.00091   0.00368   0.00277   2.06930
   R20        2.06395  -0.00221  -0.00050  -0.00409  -0.00459   2.05936
   R21        2.06862   0.00003  -0.00112   0.00325   0.00212   2.07075
   R22        2.06652   0.00044  -0.00089   0.00361   0.00271   2.06923
   R23        2.06872   0.00003  -0.00114   0.00329   0.00215   2.07087
   R24        2.06397  -0.00215  -0.00051  -0.00393  -0.00444   2.05953
    A1        1.86468  -0.00055  -0.00347   0.00714   0.00367   1.86835
    A2        1.93497   0.00147  -0.00086   0.00756   0.00670   1.94168
    A3        2.15992  -0.00056   0.00023  -0.00256  -0.00233   2.15759
    A4        2.18809  -0.00090   0.00064  -0.00492  -0.00428   2.18381
    A5        1.89329   0.00277   0.00250   0.00700   0.00946   1.90275
    A6        1.91244  -0.00049  -0.00230   0.00771   0.00534   1.91778
    A7        1.89673  -0.00172   0.00154  -0.01545  -0.01398   1.88275
    A8        1.92464  -0.00013   0.00143   0.00129   0.00265   1.92729
    A9        1.96374   0.00017  -0.00379   0.01499   0.01125   1.97499
   A10        1.87250  -0.00070   0.00059  -0.01589  -0.01532   1.85717
   A11        2.11162  -0.00035   0.00376  -0.01187  -0.00824   2.10338
   A12        2.07908  -0.00143   0.00114  -0.01096  -0.00995   2.06913
   A13        2.09086   0.00180  -0.00505   0.02458   0.01942   2.11027
   A14        1.90933  -0.00063  -0.00194   0.00348   0.00145   1.91077
   A15        2.16780  -0.00467   0.00291  -0.02436  -0.02154   2.14626
   A16        2.20595   0.00531  -0.00095   0.02120   0.02016   2.22611
   A17        2.08649   0.01508   0.01139   0.01966   0.03105   2.11754
   A18        1.81251  -0.00182  -0.00006  -0.02519  -0.02528   1.78723
   A19        1.91885   0.00123   0.00384   0.00616   0.00972   1.92857
   A20        1.91873   0.00114   0.00385   0.00545   0.00902   1.92775
   A21        1.93407  -0.00093  -0.00377  -0.00284  -0.00650   1.92757
   A22        1.93428  -0.00084  -0.00376  -0.00254  -0.00620   1.92808
   A23        1.94137   0.00108  -0.00023   0.01640   0.01623   1.95761
   A24        1.93316  -0.00049   0.00122  -0.00597  -0.00476   1.92841
   A25        1.92246  -0.00029   0.00332  -0.01182  -0.00851   1.91395
   A26        1.93295  -0.00049   0.00122  -0.00598  -0.00476   1.92819
   A27        1.89340   0.00036  -0.00184   0.00677   0.00493   1.89832
   A28        1.88708   0.00060  -0.00239   0.01116   0.00877   1.89585
   A29        1.89364   0.00035  -0.00186   0.00676   0.00490   1.89854
   A30        1.91788  -0.00030   0.00356  -0.01391  -0.01036   1.90752
   A31        1.93611  -0.00006   0.00187  -0.00362  -0.00173   1.93438
   A32        1.92554  -0.00039   0.00185  -0.00798  -0.00615   1.91939
   A33        1.89789   0.00029  -0.00329   0.01191   0.00864   1.90653
   A34        1.89236  -0.00017  -0.00134  -0.00146  -0.00286   1.88950
   A35        1.89319   0.00065  -0.00303   0.01574   0.01273   1.90592
   A36        1.91775  -0.00026   0.00356  -0.01358  -0.01004   1.90771
   A37        1.92580  -0.00040   0.00184  -0.00797  -0.00614   1.91966
   A38        1.93635  -0.00013   0.00184  -0.00402  -0.00216   1.93419
   A39        1.89206  -0.00017  -0.00132  -0.00138  -0.00274   1.88932
   A40        1.89775   0.00029  -0.00330   0.01193   0.00864   1.90639
   A41        1.89324   0.00068  -0.00300   0.01571   0.01272   1.90596
    D1       -3.12831   0.00010  -0.00183   0.00815   0.00632  -3.12199
    D2       -0.00728   0.00023  -0.00049   0.01226   0.01178   0.00450
    D3       -3.06327  -0.00002  -0.00125   0.01343   0.01211  -3.05116
    D4       -0.96128   0.00121   0.00061   0.02385   0.02447  -0.93680
    D5        1.07974  -0.00088   0.00088   0.00029   0.00122   1.08096
    D6        0.09929  -0.00016  -0.00262   0.00920   0.00652   0.10581
    D7        2.20128   0.00107  -0.00076   0.01963   0.01888   2.22017
    D8       -2.04089  -0.00102  -0.00048  -0.00394  -0.00437  -2.04526
    D9        2.91208   0.00041  -0.00080   0.01756   0.01683   2.92890
   D10       -0.29097   0.00081  -0.00342   0.05129   0.04776  -0.24321
   D11        0.81767  -0.00063  -0.00042   0.00303   0.00269   0.82036
   D12       -2.38538  -0.00023  -0.00304   0.03676   0.03362  -2.35176
   D13       -1.27213   0.00023   0.00037   0.01238   0.01288  -1.25925
   D14        1.80801   0.00063  -0.00224   0.04611   0.04381   1.85182
   D15        3.11796  -0.00032  -0.00158   0.00107  -0.00024   3.11772
   D16       -0.03875   0.00055   0.00065   0.02326   0.02391  -0.01484
   D17        0.03823  -0.00061   0.00078  -0.03163  -0.03085   0.00738
   D18       -3.11848   0.00026   0.00301  -0.00944  -0.00670  -3.12518
   D19        3.12715   0.00035   0.00123   0.00935   0.01084   3.13799
   D20        0.00109  -0.00043  -0.00105  -0.01295  -0.01425  -0.01316
   D21       -3.13965  -0.00008   0.00007  -0.00582  -0.00574   3.13780
   D22       -1.06960  -0.00157  -0.00254  -0.01997  -0.02252  -1.09211
   D23        1.07330   0.00136   0.00266   0.00833   0.01099   1.08429
   D24       -1.04714  -0.00004   0.00069  -0.00291  -0.00222  -1.04936
   D25        3.14135   0.00002  -0.00002   0.00016   0.00015   3.14150
   D26        1.04650   0.00008  -0.00070   0.00325   0.00255   1.04905
   D27       -3.10669  -0.00000  -0.00195   0.00537   0.00334  -3.10335
[...]
 Alpha  occ. eigenvalues --   -0.59589  -0.58791  -0.57268  -0.56134  -0.55382
 Alpha  occ. eigenvalues --   -0.52514  -0.51795  -0.51639  -0.49239  -0.48538
 Alpha  occ. eigenvalues --   -0.48045  -0.45513  -0.44858  -0.43151  -0.42661
 Alpha  occ. eigenvalues --   -0.42073  -0.41418  -0.40183  -0.38518  -0.36532
 Alpha  occ. eigenvalues --   -0.35068  -0.33121
 Alpha virt. eigenvalues --    0.02970   0.05338   0.06213   0.08490   0.08604
 Alpha virt. eigenvalues --    0.10621   0.10736   0.11940   0.12256   0.13709
 Alpha virt. eigenvalues --    0.14884   0.15204   0.15712   0.16451   0.17727
 Alpha virt. eigenvalues --    0.18321   0.18572   0.18716   0.19763   0.20322
 Alpha virt. eigenvalues --    0.21139   0.21362   0.22930   0.23393   0.23888
 Alpha virt. eigenvalues --    0.24542   0.24902   0.29444   0.29619   0.30998
 Alpha virt. eigenvalues --    0.31725   0.32125   0.32974   0.33836   0.35687
 Alpha virt. eigenvalues --    0.36143   0.36940   0.37793   0.38612   0.38856
 Alpha virt. eigenvalues --    0.39869   0.40439   0.41596   0.43001   0.43769
 Alpha virt. eigenvalues --    0.44492   0.45413   0.45636   0.45979   0.46661
 Alpha virt. eigenvalues --    0.47740   0.48194   0.48893   0.49147   0.49386
 Alpha virt. eigenvalues --    0.50195   0.51125   0.51243   0.51784   0.52135
 Alpha virt. eigenvalues --    0.53580   0.53784   0.54176   0.55140   0.55817
 Alpha virt. eigenvalues --    0.57124   0.58504   0.60545   0.60981   0.61841
 Alpha virt. eigenvalues --    0.63092   0.63686   0.64426   0.66395   0.66941
 Alpha virt. eigenvalues --    0.69028   0.70168   0.71854   0.73098   0.74794
 Alpha virt. eigenvalues --    0.75423   0.78666   0.79706   0.80909   0.82402
 Alpha virt. eigenvalues --    0.83952   0.85479   0.85941   0.86863   0.87554
 Alpha virt. eigenvalues --    0.88825   0.90364   0.91594   0.93066   0.93476
 Alpha virt. eigenvalues --    0.96677   0.98737   1.00524   1.00846   1.02355
 Alpha virt. eigenvalues --    1.02962   1.04659   1.05509   1.06357   1.09139
 Alpha virt. eigenvalues --    1.11124   1.11725   1.13575   1.14130   1.15930
 Alpha virt. eigenvalues --    1.16556   1.18433   1.21178   1.25060   1.26642
 Alpha virt. eigenvalues --    1.28843   1.30628   1.31062   1.33063   1.35248
 Alpha virt. eigenvalues --    1.36406   1.37290   1.40324   1.42874   1.45533
 Alpha virt. eigenvalues --    1.45682   1.46846   1.48871   1.49952   1.50914
 Alpha virt. eigenvalues --    1.53602   1.55265   1.55632   1.57193   1.58049
 Alpha virt. eigenvalues --    1.59006   1.59559   1.60244   1.62596   1.63415
 Alpha virt. eigenvalues --    1.64200   1.64540   1.65131   1.66464   1.66952
 Alpha virt. eigenvalues --    1.67525   1.68677   1.69606   1.70825   1.71620
 Alpha virt. eigenvalues --    1.75340   1.77087   1.78924   1.79644   1.81219
 Alpha virt. eigenvalues --    1.82053   1.84288   1.85451   1.86553   1.87694
 Alpha virt. eigenvalues --    1.88854   1.91831   1.93123   1.94800   1.97135
 Alpha virt. eigenvalues --    1.98129   2.01515   2.02275   2.03900   2.04991
 Alpha virt. eigenvalues --    2.06159   2.08247   2.10660   2.11024   2.13292
 Alpha virt. eigenvalues --    2.13527   2.14790   2.15650   2.15890   2.18123
 Alpha virt. eigenvalues --    2.19056   2.20142   2.22433   2.23906   2.25864
 Alpha virt. eigenvalues --    2.26017   2.29564   2.30500   2.31069   2.32628
 Alpha virt. eigenvalues --    2.33381   2.33813   2.35626   2.37344   2.38360
 Alpha virt. eigenvalues --    2.40181   2.40948   2.41049   2.41510   2.42124
 Alpha virt. eigenvalues --    2.43405   2.43689   2.46082   2.49300   2.50057
 Alpha virt. eigenvalues --    2.51271   2.53819   2.55953   2.56348   2.56646
 Alpha virt. eigenvalues --    2.57361   2.59988   2.61491   2.62102   2.62485
 Alpha virt. eigenvalues --    2.63830   2.66541   2.68061   2.68332   2.69505
 Alpha virt. eigenvalues --    2.71438   2.74985   2.76543   2.78902   2.80175
 Alpha virt. eigenvalues --    2.80723   2.81882   2.83621   2.86305   2.86984
 Alpha virt. eigenvalues --    2.87379   2.89608   2.90819   2.91780   2.95564
 Alpha virt. eigenvalues --    2.96220   2.98039   2.99071   3.01461   3.02893
 Alpha virt. eigenvalues --    3.04399   3.04507   3.07836   3.09464   3.11469
 Alpha virt. eigenvalues --    3.11625   3.12545   3.12769   3.15415   3.16393
 Alpha virt. eigenvalues --    3.19074   3.19662   3.20038   3.20703   3.21423
 Alpha virt. eigenvalues --    3.21762   3.22912   3.23981   3.26775   3.28747
 Alpha virt. eigenvalues --    3.28945   3.29736   3.30596   3.33278   3.33511
 Alpha virt. eigenvalues --    3.34121   3.34572   3.35256   3.36875   3.37165
 Alpha virt. eigenvalues --    3.37844   3.39130   3.40778   3.40945   3.42480
 Alpha virt. eigenvalues --    3.44227   3.46405   3.47439   3.47761   3.51596
 Alpha virt. eigenvalues --    3.53303   3.55928   3.59265   3.60056   3.61256
 Alpha virt. eigenvalues --    3.64401   3.65357   3.67370   3.70420   3.70979
 Alpha virt. eigenvalues --    3.73347   3.73984   3.78340   3.82344   3.86100
 Alpha virt. eigenvalues --    3.88186   3.90734   3.92964   3.95348   3.99160
 Alpha virt. eigenvalues --    4.00477   4.01463   4.03397   4.03957   4.06301
 Alpha virt. eigenvalues --    4.08635   4.11200   4.11506   4.13342   4.19153
 Alpha virt. eigenvalues --    4.23603   4.25080   4.29055   4.35238   4.36001
 Alpha virt. eigenvalues --    4.36930   4.39459   4.40881   4.43235   4.45372
 Alpha virt. eigenvalues --    4.46472   4.48843   4.50553   4.55384   4.62324
 Alpha virt. eigenvalues --    4.67781   4.71228   4.73018   4.78086   4.81326
 Alpha virt. eigenvalues --    4.82719   4.84378   4.87675   4.89449   4.97395
 Alpha virt. eigenvalues --    5.04349   5.09175   5.13434   5.15350   5.19358
 Alpha virt. eigenvalues --    5.20722   5.22952   5.24838   5.27569   5.29936
 Alpha virt. eigenvalues --    5.35905   5.37365   5.39145   5.42363   5.45641
 Alpha virt. eigenvalues --    5.47679   5.51485   5.56668   5.59307   5.68947
 Alpha virt. eigenvalues --    5.71386   5.74238   5.79611   5.85171   5.86432
 Alpha virt. eigenvalues --    5.92024   6.02610   6.12898   6.15364   6.17288
 Alpha virt. eigenvalues --    6.18859   6.25110   6.29688   6.33147   6.39956
 Alpha virt. eigenvalues --    6.40410   6.42293   6.46281   6.54708   6.62953
 Alpha virt. eigenvalues --    6.66926   6.67900   6.70865   6.72640   6.79091
 Alpha virt. eigenvalues --    6.80363   6.86955   6.91124   6.94932   7.05743
 Alpha virt. eigenvalues --    7.07316   7.08744   7.14999   7.28953   7.39130
 Alpha virt. eigenvalues --    7.43046  22.48870  22.52216  22.53871  22.62091
 Alpha virt. eigenvalues --   22.71480  23.27450  23.56858  32.59750  43.92178
 Alpha virt. eigenvalues --   43.96635  44.08514  44.57855
          Condensed to atoms (all electrons):
               1          2          3          4          5          6
     1  O    7.907738   0.384008  -0.116391   0.005276  -0.000014   0.000001
     2  C    0.384008   4.444541   0.278286  -0.012237   0.006551   0.000288
     3  C   -0.116391   0.278286   5.147375   0.198591  -0.042311   0.004600
     4  N    0.005276  -0.012237   0.198591   6.688939   0.420379  -0.106981
     5  C   -0.000014   0.006551  -0.042311   0.420379   4.231401   0.367198
     6  O    0.000001   0.000288   0.004600  -0.106981   0.367198   8.057265
     7  C   -0.000001  -0.000057  -0.000704   0.010420  -0.046619   0.173541
     8  C    0.000000  -0.000005  -0.000032   0.000291  -0.001583  -0.055576
     9  C    0.000000  -0.000050   0.000223  -0.002024  -0.006538  -0.040528
    10  C    0.000000   0.000040   0.000091  -0.001978  -0.006137  -0.040893
    11  O    0.000010   0.002272   0.005921  -0.099563   0.598061  -0.073756
    12  O   -0.080301   0.628633  -0.092489  -0.005165   0.002301  -0.000043
    13  H    0.289915  -0.024720   0.017736  -0.000674   0.000010  -0.000000
    14  H    0.003372  -0.025557   0.423249  -0.045477  -0.006571   0.000696
    15  H    0.005187  -0.023698   0.399206  -0.034957  -0.001606  -0.000006
    16  H    0.001012  -0.008597  -0.040049   0.370075  -0.029071   0.008354
    17  H   -0.000000  -0.000002   0.000004  -0.000018  -0.000833  -0.000373
    18  H   -0.000000  -0.000000  -0.000000   0.000006   0.000419   0.005681
    19  H   -0.000000   0.000001  -0.000004  -0.000061  -0.000772  -0.000606
    20  H   -0.000000   0.000000  -0.000001   0.000009   0.001774   0.004990
    21  H   -0.000000  -0.000003   0.000009   0.000259  -0.004496  -0.002600
    22  H    0.000000   0.000006  -0.000022   0.000129  -0.002244   0.001498
    23  H   -0.000000  -0.000000  -0.000004   0.000027   0.001811   0.005043
    24  H   -0.000000  -0.000006   0.000002   0.000163  -0.002468   0.001410
    25  H    0.000000   0.000006  -0.000014   0.000406  -0.004634  -0.002383
               7          8          9         10         11         12
     1  O   -0.000001   0.000000   0.000000   0.000000   0.000010  -0.080301
     2  C   -0.000057  -0.000005  -0.000050   0.000040   0.002272   0.628633
     3  C   -0.000704  -0.000032   0.000223   0.000091   0.005921  -0.092489
     4  N    0.010420   0.000291  -0.002024  -0.001978  -0.099563  -0.005165
     5  C   -0.046619  -0.001583  -0.006538  -0.006137   0.598061   0.002301
     6  O    0.173541  -0.055576  -0.040528  -0.040893  -0.073756  -0.000043
     7  C    5.049400   0.310186   0.299161   0.299273   0.041139  -0.000014
     8  C    0.310186   5.151661  -0.096355  -0.095988   0.001339   0.000003
     9  C    0.299161  -0.096355   5.234402  -0.095781  -0.029803  -0.000000
    10  C    0.299273  -0.095988  -0.095781   5.233855  -0.029800   0.000000
    11  O    0.041139   0.001339  -0.029803  -0.029800   7.989610  -0.000057
    12  O   -0.000014   0.000003  -0.000000   0.000000  -0.000057   7.864630
    13  H    0.000000  -0.000000  -0.000000  -0.000000   0.000003   0.005442
    14  H   -0.000183  -0.000001   0.000098   0.000043   0.010451   0.001591
    15  H   -0.000004   0.000002   0.000003  -0.000006   0.000449   0.001415
    16  H   -0.000665  -0.000210   0.000207   0.000338   0.003071   0.019249
    17  H   -0.028714   0.404097   0.013595  -0.012590   0.000003  -0.000000
    18  H   -0.027190   0.407387  -0.009712  -0.009915   0.000079  -0.000000
    19  H   -0.028409   0.404140  -0.012670   0.013572   0.000002  -0.000000
    20  H   -0.023445  -0.012806   0.397049  -0.006112   0.000802   0.000000
    21  H   -0.025136   0.011688   0.408727  -0.010454   0.008507   0.000000
    22  H   -0.031417  -0.010182   0.397079   0.013194  -0.000262  -0.000000
    23  H   -0.023513  -0.012754  -0.006201   0.397156   0.000749   0.000000
    24  H   -0.031121  -0.010275   0.013150   0.397276  -0.000238   0.000000
    25  H   -0.025024   0.011690  -0.010386   0.408550   0.007855   0.000000
              13         14         15         16         17         18
     1  O    0.289915   0.003372   0.005187   0.001012  -0.000000  -0.000000
     2  C   -0.024720  -0.025557  -0.023698  -0.008597  -0.000002  -0.000000
     3  C    0.017736   0.423249   0.399206  -0.040049   0.000004  -0.000000
     4  N   -0.000674  -0.045477  -0.034957   0.370075  -0.000018   0.000006
     5  C    0.000010  -0.006571  -0.001606  -0.029071  -0.000833   0.000419
     6  O   -0.000000   0.000696  -0.000006   0.008354  -0.000373   0.005681
     7  C    0.000000  -0.000183  -0.000004  -0.000665  -0.028714  -0.027190
     8  C   -0.000000  -0.000001   0.000002  -0.000210   0.404097   0.407387
     9  C   -0.000000   0.000098   0.000003   0.000207   0.013595  -0.009712
    10  C   -0.000000   0.000043  -0.000006   0.000338  -0.012590  -0.009915
    11  O    0.000003   0.010451   0.000449   0.003071   0.000003   0.000079
    12  O    0.005442   0.001591   0.001415   0.019249  -0.000000  -0.000000
    13  H    0.370329  -0.000558  -0.000758  -0.000175  -0.000000   0.000000
    14  H   -0.000558   0.478095  -0.032315   0.003252  -0.000000  -0.000000
    15  H   -0.000758  -0.032315   0.512404   0.002470   0.000000   0.000000
    16  H   -0.000175   0.003252   0.002470   0.400640   0.000012   0.000009
    17  H   -0.000000  -0.000000   0.000000   0.000012   0.514295  -0.023595
    18  H    0.000000  -0.000000   0.000000   0.000009  -0.023595   0.535188
    19  H    0.000000  -0.000000  -0.000000   0.000041  -0.020872  -0.023621
    20  H    0.000000   0.000002  -0.000000  -0.000007  -0.000091   0.001361
    21  H   -0.000000   0.000077  -0.000008  -0.000075  -0.000352  -0.000048
    22  H   -0.000000  -0.000013  -0.000000   0.000048  -0.000328   0.000724
    23  H   -0.000000  -0.000001   0.000001  -0.000007   0.000649   0.001340
    24  H   -0.000000   0.000002  -0.000002   0.000005   0.002757   0.000747
    25  H   -0.000000  -0.000020   0.000023  -0.000052  -0.000138  -0.000057
              19         20         21         22         23         24
     1  O   -0.000000  -0.000000  -0.000000   0.000000  -0.000000  -0.000000
     2  C    0.000001   0.000000  -0.000003   0.000006  -0.000000  -0.000006
     3  C   -0.000004  -0.000001   0.000009  -0.000022  -0.000004   0.000002
     4  N   -0.000061   0.000009   0.000259   0.000129   0.000027   0.000163
     5  C   -0.000772   0.001774  -0.004496  -0.002244   0.001811  -0.002468
     6  O   -0.000606   0.004990  -0.002600   0.001498   0.005043   0.001410
     7  C   -0.028409  -0.023445  -0.025136  -0.031417  -0.023513  -0.031121
     8  C    0.404140  -0.012806   0.011688  -0.010182  -0.012754  -0.010275
     9  C   -0.012670   0.397049   0.408727   0.397079  -0.006201   0.013150
    10  C    0.013572  -0.006112  -0.010454   0.013194   0.397156   0.397276
    11  O    0.000002   0.000802   0.008507  -0.000262   0.000749  -0.000238
    12  O   -0.000000   0.000000   0.000000  -0.000000   0.000000   0.000000
    13  H    0.000000   0.000000  -0.000000  -0.000000  -0.000000  -0.000000
    14  H   -0.000000   0.000002   0.000077  -0.000013  -0.000001   0.000002
    15  H   -0.000000  -0.000000  -0.000008  -0.000000   0.000001  -0.000002
    16  H    0.000041  -0.000007  -0.000075   0.000048  -0.000007   0.000005
    17  H   -0.020872  -0.000091  -0.000352  -0.000328   0.000649   0.002757
    18  H   -0.023621   0.001361  -0.000048   0.000724   0.001340   0.000747
    19  H    0.514232   0.000655  -0.000144   0.002743  -0.000085  -0.000324
    20  H    0.000655   0.530120  -0.019140  -0.021558  -0.000205  -0.000105
    21  H   -0.000144  -0.019140   0.466634  -0.021014   0.000393  -0.000098
    22  H    0.002743  -0.021558  -0.021014   0.522158  -0.000111  -0.000504
    23  H   -0.000085  -0.000205   0.000393  -0.000111   0.530090  -0.021617
    24  H   -0.000324  -0.000105  -0.000098  -0.000504  -0.021617   0.521282
    25  H   -0.000354   0.000356   0.002188  -0.000105  -0.019187  -0.020805
              25
     1  O    0.000000
     2  C    0.000006
     3  C   -0.000014
     4  N    0.000406
     5  C   -0.004634
     6  O   -0.002383
     7  C   -0.025024
     8  C    0.011690
     9  C   -0.010386
    10  C    0.408550
    11  O    0.007855
    12  O    0.000000
    13  H   -0.000000
    14  H   -0.000020
    15  H    0.000023
    16  H   -0.000052
    17  H   -0.000138
    18  H   -0.000057
    19  H   -0.000354
    20  H    0.000356
    21  H    0.002188
    22  H   -0.000105
    23  H   -0.019187
    24  H   -0.020805
    25  H    0.466188
 Mulliken charges:
               1
     1  O   -0.399813
     2  C    0.350300
     3  C   -0.183273
     4  N   -0.385836
     5  C    0.525990
     6  O   -0.306820
     7  C    0.109096
     8  C   -0.406717
     9  C   -0.453645
    10  C   -0.453736
    11  O   -0.436845
    12  O   -0.345195
    13  H    0.343450
    14  H    0.189772
    15  H    0.172203
    16  H    0.270124
    17  H    0.152497
    18  H    0.141198
    19  H    0.152536
    20  H    0.146353
    21  H    0.185086
    22  H    0.150183
    23  H    0.146426
    24  H    0.150769
    25  H    0.185896
 Sum of Mulliken charges =  -0.00000
 Mulliken charges with hydrogens summed into heavy atoms:
               1
     1  O   -0.056363
     2  C    0.350300
     3  C    0.178701
     4  N   -0.115712
     5  C    0.525990
     6  O   -0.306820
     7  C    0.109096
     8  C    0.039514
     9  C    0.027977
    10  C    0.029355
    11  O   -0.436845
    12  O   -0.345195
 Electronic spatial extent (au):  <R**2>=           3132.5691
 Charge=             -0.0000 electrons
 Dipole moment (field-independent basis, Debye):
    X=             -0.6785    Y=              0.7173    Z=             -0.0446  Tot=              0.9884
 Quadrupole moment (field-independent basis, Debye-Ang):
   XX=            -54.5047   YY=            -80.2824   ZZ=            -71.2224
   XY=              3.1641   XZ=             -0.3915   YZ=              0.7042
 Traceless Quadrupole moment (field-independent basis, Debye-Ang):
   XX=             14.1651   YY=            -11.6126   ZZ=             -2.5525
   XY=              3.1641   XZ=             -0.3915   YZ=              0.7042
 Octapole moment (field-independent basis, Debye-Ang**2):
  XXX=            -82.4792  YYY=              3.7416  ZZZ=             -0.4052  XYY=              2.1932
  XXY=              2.2842  XXZ=              7.7684  XZZ=            -11.4295  YZZ=              0.3985
  YYZ=             -1.6181  XYZ=             -0.8735
 Hexadecapole moment (field-independent basis, Debye-Ang**3):
 XXXX=          -2674.8308 YYYY=           -490.1826 ZZZZ=           -268.3381 XXXY=            -74.7433
 XXXZ=            -46.4593 YYYX=             16.5792 YYYZ=             -0.6194 ZZZX=             -7.6547
 ZZZY=             -0.3993 XXYY=           -685.0381 XXZZ=           -588.7627 YYZZ=           -119.5543
 XXYZ=              5.9103 YYXZ=              2.0662 ZZXY=              0.3642
 N-N= 7.418479665931D+02 E-N=-2.958480346950D+03  KE= 6.271387422073D+02
 Unable to Open any file for archive entry.
 1\1\GINC-NOTCH132\SP\RM062X\def2TZVP\C7H13N1O4\U6032257\05-Feb-2022\0\
 \# M062X/def2tzvp int=(grid=ultrafine) nmr=giao guess=read geom=check\
 \Ac2.xyz\\0,1\O,0,4.8283087727,-1.3775573681,1.1851303249\C,0,4.075538
 1088,-0.4351518144,0.5846157635\C,0,2.7915306465,-1.0188844744,0.04097
 27626\N,0,2.0215527843,0.0217773132,-0.5880269696\C,0,1.1207955923,-0.
 2862944355,-1.565208472\O,0,0.6500291453,0.852799082,-2.1211920292\C,0
 ,-0.36238743,0.7978262479,-3.1844549345\C,0,-0.5971577778,2.2751639064
 ,-3.4957533686\C,0,0.2014326964,0.0673302853,-4.4046237655\C,0,-1.6397
 967724,0.1431399255,-2.6555655639\O,0,0.8051741631,-1.4300814537,-1.85
 66386727\O,0,4.3962582237,0.7309706542,0.5086150084\H,0,5.626136509,-0
 .9285234894,1.5119838503\H,0,3.0246437635,-1.8190198346,-0.6709891275\
 H,0,2.254294948,-1.4977419459,0.8709928511\H,0,2.3682526259,0.96787919
 45,-0.5079833371\H,0,-0.956729785,2.802508407,-2.6079870032\H,0,-1.344
 3665381,2.3763015675,-4.2878343878\H,0,0.3299120469,2.7498160332,-3.82
 86785819\H,0,-0.5118913131,0.1323834932,-5.2320361414\H,0,0.386583555,
 -0.9821220148,-4.1773823821\H,0,1.137975673,0.5343840979,-4.7240671726
 \H,0,-2.4261881141,0.2105355258,-3.4136600785\H,0,-1.9859098933,0.6633
 333335,-1.7573601767\H,0,-1.4678916308,-0.9056722364,-2.4151683962\\Ve
 rsion=ES64L-G16RevC.01\State=1-A\HF=-630.2699446\RMSD=2.116e-09\Dipole
 =0.2685397,0.2151039,0.1811832\Quadrupole=3.8609643,-6.6577135,2.79674
 92,-5.2021331,5.2546916,-3.4954377\PG=C01 [X(C7H13N1O4)]\\@
 The archive entry for this job was punched.


 THE ONLY EXISTING THINGS ARE ATOMS AND EMPTY SPACE;
 ALL ELSE IS MERE OPINION. -- DEMOCRITUS OF ABDERA D. 370 B.C.
 EXPERIMENTS ARE THE ONLY MEANS OF KNOWLEDGE AT OUR DISPOSAL
 THE REST IS POETRY, IMAGINATION. -- MAX PLANCK
 Job cpu time:       0 days  0 hours 31 minutes 22.1 seconds.
 Elapsed time:       0 days  0 hours  0 minutes 54.4 seconds.
 File lengths (MBytes):  RWF=    117 Int=      0 D2E=      0 Chk=     20 Scr=      1
 Normal termination of Gaussian 16 at Sat Feb  5 09:06:55 2022.
