 Entering Gaussian System, Link 0=/uufs/chpc.utah.edu/sys/installdir/gaussian16/C01/AVX2/g16/g16
 Input=Ac2_conf-6.com
 Output=Ac2_conf-6.log
 Initial command:
 /uufs/chpc.utah.edu/sys/installdir/gaussian16/C01/AVX2/g16/l1.exe "/scratch/general/lustre/u6032257/3867923/notchpeak.peaks/Gau-141468.inp" -scrdir="/scratch/general/lustre/u6032257/3867923/notchpeak.peaks/"
 Entering Link 1 = /uufs/chpc.utah.edu/sys/installdir/gaussian16/C01/AVX2/g16/l1.exe PID=    141470.
  
 Copyright (c) 1988-2019, Gaussian, Inc.  All Rights Reserved.
  
 This is part of the Gaussian(R) 16 program.  It is based on
 the Gaussian(R) 09 system (copyright 2009, Gaussian, Inc.),
 the Gaussian(R) 03 system (copyright 2003, Gaussian, Inc.),
 the Gaussian(R) 98 system (copyright 1998, Gaussian, Inc.),
 the Gaussian(R) 94 system (copyright 1995, Gaussian, Inc.),
 the Gaussian 92(TM) system (copyright 1992, Gaussian, Inc.),
 the Gaussian 90(TM) system (copyright 1990, Gaussian, Inc.),
 the Gaussian 88(TM) system (copyright 1988, Gaussian, Inc.),
 the Gaussian 86(TM) system (copyright 1986, Carnegie Mellon
 University), and the Gaussian 82(TM) system (copyright 1983,
 Carnegie Mellon University). Gaussian is a federally registered
 trademark of Gaussian, Inc.
  
 This software contains proprietary and confidential information,
 including trade secrets, belonging to Gaussian, Inc.
  
 This software is provided under written license and may be
 used, copied, transmitted, or stored only in accord with that
 written license.
  
 The following legend is applicable only to US Government
 contracts under FAR:
  
                    RESTRICTED RIGHTS LEGEND
  
 Use, reproduction and disclosure by the US Government is
 subject to restrictions as set forth in subparagraphs (a)
 and (c) of the Commercial Computer Software - Restricted
 Rights clause in FAR 52.227-19.
  
 Gaussian, Inc.
 340 Quinnipiac St., Bldg. 40, Wallingford CT 06492
  
  
 ---------------------------------------------------------------
 Warning -- This program may not be used in any manner that
 competes with the business of Gaussian, Inc. or will provide
 assistance to any competitor of Gaussian, Inc.  The licensee
 of this program is prohibited from giving any competitor of
 Gaussian, Inc. access to this program.  By using this program,
 the user acknowledges that Gaussian, Inc. is engaged in the
 business of creating and licensing software in the field of
 computational chemistry and represents and warrants to the
 licensee that it is not a competitor of Gaussian, Inc. and that
 it will not use this program in any manner prohibited above.
 ---------------------------------------------------------------
  

 Cite this work as:
 Gaussian 16, Revision C.01,
 M. J. Frisch, G. W. Trucks, H. B. Schlegel, G. E. Scuseria, 
 M. A. Robb, J. R. Cheeseman, G. Scalmani, V. Barone, 
 G. A. Petersson, H. Nakatsuji, X. Li, M. Caricato, A. V. Marenich, 
 J. Bloino, B. G. Janesko, R. Gomperts, B. Mennucci, H. P. Hratchian, 
 J. V. Ortiz, A. F. Izmaylov, J. L. Sonnenberg, D. Williams-Young, 
 F. Ding, F. Lipparini, F. Egidi, J. Goings, B. Peng, A. Petrone, 
 T. Henderson, D. Ranasinghe, V. G. Zakrzewski, J. Gao, N. Rega, 
 G. Zheng, W. Liang, M. Hada, M. Ehara, K. Toyota, R. Fukuda, 
 J. Hasegawa, M. Ishida, T. Nakajima, Y. Honda, O. Kitao, H. Nakai, 
 T. Vreven, K. Throssell, J. A. Montgomery, Jr., J. E. Peralta, 
 F. Ogliaro, M. J. Bearpark, J. J. Heyd, E. N. Brothers, K. N. Kudin, 
 V. N. Staroverov, T. A. Keith, R. Kobayashi, J. Normand, 
 K. Raghavachari, A. P. Rendell, J. C. Burant, S. S. Iyengar, 
 J. Tomasi, M. Cossi, J. M. Millam, M. Klene, C. Adamo, R. Cammi, 
 J. W. Ochterski, R. L. Martin, K. Morokuma, O. Farkas, 
 J. B. Foresman, and D. J. Fox, Gaussian, Inc., Wallingford CT, 2019.
 
 ******************************************
 Gaussian 16:  ES64L-G16RevC.01  3-Jul-2019
                 5-Feb-2022 
 ******************************************
 %NProcShared=52
 Will use up to   52 processors via shared memory.
 %mem=16GB
 %chk=Ac2_conf-6.chk
 ----------------------------------------------------------------------
 # B3LYP/6-31G(d,p) empiricaldispersion=GD3BJ int=(grid=ultrafine) opt 
 freq=noraman
 ----------------------------------------------------------------------
 1/18=20,19=15,26=4,38=1/1,3;
 2/9=110,12=2,17=6,18=5,40=1/2;
 3/5=1,6=6,7=101,11=2,25=1,30=1,71=1,74=-5,75=-5,124=41/1,2,3;
 4//1;
 5/5=2,38=5/2;
 6/7=2,8=2,9=2,10=2,28=1/1;
 7//1,2,3,16;
 1/18=20,19=15,26=4/3(2);
 2/9=110/2;
 99//99;
 2/9=110/2;
 3/5=1,6=6,7=101,11=2,25=1,30=1,71=1,74=-5,75=-5,124=41/1,2,3;
 4/5=5,16=3,69=1/1;
 5/5=2,38=5/2;
 7//1,2,3,16;
 1/18=20,19=15,26=4/3(-5);
 2/9=110/2;
 6/7=2,8=2,9=2,10=2,19=2,28=1/1;
 99/9=1/99;
 -------
 Ac2.xyz
 -------
 Symbolic Z-matrix:
 Charge =  0 Multiplicity = 1
 O                     4.7461    0.5296    1.1299 
 C                     4.0104   -0.4768    0.6088 
 C                     2.9372    0.0783   -0.3336 
 N                     2.1456   -1.0341   -0.8925 
 C                     1.0949   -0.9002   -1.7801 
 O                     0.8649    0.4026   -2.0905 
 C                    -0.156     0.8605   -2.983 
 C                     0.0139    2.3874   -2.9806 
 C                     0.0599    0.3299   -4.4152 
 C                    -1.5654    0.5078   -2.4647 
 O                     0.4647   -1.8548   -2.2181 
 O                     4.1904   -1.6453    0.8638 
 H                     5.3859    0.1007    1.7006 
 H                     2.3011    0.7653    0.2262 
 H                     3.4271    0.644    -1.1273 
 H                     2.3739   -1.9782   -0.6158 
 H                    -0.1117    2.7985   -1.9784 
 H                    -0.7134    2.8737   -3.631 
 H                     1.0084    2.6759   -3.3226 
 H                    -0.6351    0.7868   -5.1194 
 H                    -0.0846   -0.749    -4.4729 
 H                     1.0718    0.5367   -4.7634 
 H                    -2.3421    0.9736   -3.0709 
 H                    -1.7012    0.8402   -1.4356 
 H                    -1.7449   -0.5673   -2.4805 
 

 GradGradGradGradGradGradGradGradGradGradGradGradGradGradGradGradGradGrad
 Berny optimization.
 Initialization pass.
                           ----------------------------
                           !    Initial Parameters    !
                           ! (Angstroms and Degrees)  !
 --------------------------                            --------------------------
 ! Name  Definition              Value          Derivative Info.                !
 --------------------------------------------------------------------------------
 ! R1    R(1,2)                  1.3512         estimate D2E/DX2                !
 ! R2    R(1,13)                 0.9586         estimate D2E/DX2                !
 ! R3    R(2,3)                  1.5323         estimate D2E/DX2                !
 ! R4    R(2,12)                 1.2095         estimate D2E/DX2                !
 ! R5    R(3,4)                  1.4753         estimate D2E/DX2                !
 ! R6    R(3,14)                 1.0909         estimate D2E/DX2                !
 ! R7    R(3,15)                 1.0909         estimate D2E/DX2                !
 ! R8    R(4,5)                  1.3819         estimate D2E/DX2                !
 ! R9    R(4,16)                 1.01           estimate D2E/DX2                !
 ! R10   R(5,6)                  1.3589         estimate D2E/DX2                !
 ! R11   R(5,11)                 1.2248         estimate D2E/DX2                !
 ! R12   R(6,7)                  1.4312         estimate D2E/DX2                !
 ! R13   R(7,8)                  1.5363         estimate D2E/DX2                !
 ! R14   R(7,9)                  1.5425         estimate D2E/DX2                !
 ! R15   R(7,10)                 1.5425         estimate D2E/DX2                !
 ! R16   R(8,17)                 1.0905         estimate D2E/DX2                !
 ! R17   R(8,18)                 1.0902         estimate D2E/DX2                !
 ! R18   R(8,19)                 1.0905         estimate D2E/DX2                !
 ! R19   R(9,20)                 1.0898         estimate D2E/DX2                !
 ! R20   R(9,21)                 1.0901         estimate D2E/DX2                !
 ! R21   R(9,22)                 1.0899         estimate D2E/DX2                !
 ! R22   R(10,23)                1.0898         estimate D2E/DX2                !
 ! R23   R(10,24)                1.0899         estimate D2E/DX2                !
 ! R24   R(10,25)                1.0901         estimate D2E/DX2                !
 ! A1    A(2,1,13)             105.0551         estimate D2E/DX2                !
 ! A2    A(1,2,3)              110.4087         estimate D2E/DX2                !
 ! A3    A(1,2,12)             123.8666         estimate D2E/DX2                !
 ! A4    A(3,2,12)             125.7246         estimate D2E/DX2                !
 ! A5    A(2,3,4)              109.6118         estimate D2E/DX2                !
 ! A6    A(2,3,14)             108.7196         estimate D2E/DX2                !
 ! A7    A(2,3,15)             108.7116         estimate D2E/DX2                !
 ! A8    A(4,3,14)             110.8791         estimate D2E/DX2                !
 ! A9    A(4,3,15)             110.8766         estimate D2E/DX2                !
 ! A10   A(14,3,15)            107.9788         estimate D2E/DX2                !
 ! A11   A(3,4,5)              125.3265         estimate D2E/DX2                !
 ! A12   A(3,4,16)             118.6708         estimate D2E/DX2                !
 ! A13   A(5,4,16)             116.0027         estimate D2E/DX2                !
 ! A14   A(4,5,6)              111.6107         estimate D2E/DX2                !
 ! A15   A(4,5,11)             123.0489         estimate D2E/DX2                !
 ! A16   A(6,5,11)             125.3404         estimate D2E/DX2                !
 ! A17   A(5,6,7)              124.7434         estimate D2E/DX2                !
 ! A18   A(6,7,8)              103.7751         estimate D2E/DX2                !
 ! A19   A(6,7,9)              111.66           estimate D2E/DX2                !
 ! A20   A(6,7,10)             111.657          estimate D2E/DX2                !
 ! A21   A(8,7,9)              109.1381         estimate D2E/DX2                !
 ! A22   A(8,7,10)             109.1331         estimate D2E/DX2                !
 ! A23   A(9,7,10)             111.1744         estimate D2E/DX2                !
 ! A24   A(7,8,17)             111.3073         estimate D2E/DX2                !
 ! A25   A(7,8,18)             111.6311         estimate D2E/DX2                !
 ! A26   A(7,8,19)             111.3025         estimate D2E/DX2                !
 ! A27   A(17,8,18)            107.6555         estimate D2E/DX2                !
 ! A28   A(17,8,19)            107.069          estimate D2E/DX2                !
 ! A29   A(18,8,19)            107.6553         estimate D2E/DX2                !
 ! A30   A(7,9,20)             111.4989         estimate D2E/DX2                !
 ! A31   A(7,9,21)             111.7807         estimate D2E/DX2                !
 ! A32   A(7,9,22)             111.1802         estimate D2E/DX2                !
 ! A33   A(20,9,21)            107.2303         estimate D2E/DX2                !
 ! A34   A(20,9,22)            107.8239         estimate D2E/DX2                !
 ! A35   A(21,9,22)            107.0948         estimate D2E/DX2                !
 ! A36   A(7,10,23)            111.5028         estimate D2E/DX2                !
 ! A37   A(7,10,24)            111.1834         estimate D2E/DX2                !
 ! A38   A(7,10,25)            111.7825         estimate D2E/DX2                !
 ! A39   A(23,10,24)           107.821          estimate D2E/DX2                !
 ! A40   A(23,10,25)           107.2243         estimate D2E/DX2                !
 ! A41   A(24,10,25)           107.0942         estimate D2E/DX2                !
 ! D1    D(13,1,2,3)           179.9975         estimate D2E/DX2                !
 ! D2    D(13,1,2,12)            0.0004         estimate D2E/DX2                !
 ! D3    D(1,2,3,4)            179.9726         estimate D2E/DX2                !
 ! D4    D(1,2,3,14)           -58.6804         estimate D2E/DX2                !
 ! D5    D(1,2,3,15)            58.6337         estimate D2E/DX2                !
 ! D6    D(12,2,3,4)            -0.0304         estimate D2E/DX2                !
 ! D7    D(12,2,3,14)          121.3166         estimate D2E/DX2                !
 ! D8    D(12,2,3,15)         -121.3693         estimate D2E/DX2                !
 ! D9    D(2,3,4,5)           -179.9369         estimate D2E/DX2                !
 ! D10   D(2,3,4,16)             0.1135         estimate D2E/DX2                !
 ! D11   D(14,3,4,5)            60.0259         estimate D2E/DX2                !
 ! D12   D(14,3,4,16)         -119.9237         estimate D2E/DX2                !
 ! D13   D(15,3,4,5)           -59.9113         estimate D2E/DX2                !
 ! D14   D(15,3,4,16)          120.1391         estimate D2E/DX2                !
 ! D15   D(3,4,5,6)              0.029          estimate D2E/DX2                !
 ! D16   D(3,4,5,11)          -179.9701         estimate D2E/DX2                !
 ! D17   D(16,4,5,6)           179.9797         estimate D2E/DX2                !
 ! D18   D(16,4,5,11)           -0.0193         estimate D2E/DX2                !
 ! D19   D(4,5,6,7)            179.9929         estimate D2E/DX2                !
 ! D20   D(11,5,6,7)            -0.008          estimate D2E/DX2                !
 ! D21   D(5,6,7,8)           -179.999          estimate D2E/DX2                !
 ! D22   D(5,6,7,9)            -62.5755         estimate D2E/DX2                !
 ! D23   D(5,6,7,10)            62.5848         estimate D2E/DX2                !
 ! D24   D(6,7,8,17)           -59.6759         estimate D2E/DX2                !
 ! D25   D(6,7,8,18)          -179.9992         estimate D2E/DX2                !
 ! D26   D(6,7,8,19)            59.6812         estimate D2E/DX2                !
 ! D27   D(9,7,8,17)          -178.8417         estimate D2E/DX2                !
 ! D28   D(9,7,8,18)            60.835          estimate D2E/DX2                !
 ! D29   D(9,7,8,19)           -59.4847         estimate D2E/DX2                !
 ! D30   D(10,7,8,17)           59.4841         estimate D2E/DX2                !
 ! D31   D(10,7,8,18)          -60.8392         estimate D2E/DX2                !
 ! D32   D(10,7,8,19)          178.8411         estimate D2E/DX2                !
 ! D33   D(6,7,9,20)          -172.1816         estimate D2E/DX2                !
 ! D34   D(6,7,9,21)            67.8032         estimate D2E/DX2                !
 ! D35   D(6,7,9,22)           -51.8213         estimate D2E/DX2                !
 ! D36   D(8,7,9,20)           -58.0391         estimate D2E/DX2                !
 ! D37   D(8,7,9,21)          -178.0542         estimate D2E/DX2                !
 ! D38   D(8,7,9,22)            62.3213         estimate D2E/DX2                !
 ! D39   D(10,7,9,20)           62.3907         estimate D2E/DX2                !
 ! D40   D(10,7,9,21)          -57.6245         estimate D2E/DX2                !
 ! D41   D(10,7,9,22)         -177.2489         estimate D2E/DX2                !
 ! D42   D(6,7,10,23)          172.1808         estimate D2E/DX2                !
 ! D43   D(6,7,10,24)           51.8192         estimate D2E/DX2                !
 ! D44   D(6,7,10,25)          -67.8078         estimate D2E/DX2                !
 ! D45   D(8,7,10,23)           58.0428         estimate D2E/DX2                !
 ! D46   D(8,7,10,24)          -62.3187         estimate D2E/DX2                !
 ! D47   D(8,7,10,25)          178.0542         estimate D2E/DX2                !
 ! D48   D(9,7,10,23)          -62.3899         estimate D2E/DX2                !
 ! D49   D(9,7,10,24)          177.2486         estimate D2E/DX2                !
 ! D50   D(9,7,10,25)           57.6215         estimate D2E/DX2                !
 --------------------------------------------------------------------------------
 Trust Radius=3.00D-01 FncErr=1.00D-07 GrdErr=1.00D-06 EigMax=2.50D+02 EigMin=1.00D-04
 Number of steps in this run=    125 maximum allowed number of steps=    150.
 GradGradGradGradGradGradGradGradGradGradGradGradGradGradGradGradGradGrad

                          Input orientation:                          
 ---------------------------------------------------------------------
 Center     Atomic      Atomic             Coordinates (Angstroms)
 Number     Number       Type             X           Y           Z
 ---------------------------------------------------------------------
      1          8           0        4.746100    0.529600    1.129900
      2          6           0        4.010400   -0.476800    0.608800
      3          6           0        2.937200    0.078300   -0.333600
      4          7           0        2.145600   -1.034100   -0.892500
      5          6           0        1.094900   -0.900200   -1.780100
      6          8           0        0.864900    0.402600   -2.090500
      7          6           0       -0.156000    0.860500   -2.983000
      8          6           0        0.013900    2.387400   -2.980600
      9          6           0        0.059900    0.329900   -4.415200
     10          6           0       -1.565400    0.507800   -2.464700
     11          8           0        0.464700   -1.854800   -2.218100
     12          8           0        4.190400   -1.645300    0.863800
     13          1           0        5.385900    0.100700    1.700600
     14          1           0        2.301100    0.765300    0.226200
     15          1           0        3.427100    0.644000   -1.127300
     16          1           0        2.373900   -1.978200   -0.615800
     17          1           0       -0.111700    2.798500   -1.978400
     18          1           0       -0.713400    2.873700   -3.631000
     19          1           0        1.008400    2.675900   -3.322600
     20          1           0       -0.635100    0.786800   -5.119400
     21          1           0       -0.084600   -0.749000   -4.472900
     22          1           0        1.071800    0.536700   -4.763400
     23          1           0       -2.342100    0.973600   -3.070900
     24          1           0       -1.701200    0.840200   -1.435600
     25          1           0       -1.744900   -0.567300   -2.480500
 ---------------------------------------------------------------------
                    Distance matrix (angstroms):
                    1          2          3          4          5
     1  O    0.000000
     2  C    1.351163   0.000000
     3  C    2.370153   1.532322   0.000000
     4  N    3.646623   2.458041   1.475274   0.000000
     5  C    4.883000   3.792921   2.538483   1.381931   0.000000
     6  O    5.044880   4.237185   2.736110   2.267047   1.358873
     7  C    6.407498   5.661121   4.147173   3.641025   2.472202
     8  C    6.537687   6.087647   4.569927   4.539930   3.663069
     9  C    7.262815   6.441878   5.000162   4.315096   3.086766
    10  C    7.263378   6.442467   4.999946   4.315181   3.086800
    11  O    5.935053   4.739434   3.660802   2.292638   1.224850
    12  O    2.260487   1.209470   2.444396   2.763940   4.138539
    13  H    0.958644   1.848657   3.183489   4.302497   5.615136
    14  H    2.617299   2.147301   1.090857   2.124502   2.872986
    15  H    2.616830   2.147202   1.090861   2.124475   2.872257
    16  H    3.868315   2.536135   2.150845   1.009955   2.038019
    17  H    6.197391   5.866251   4.404616   4.578581   3.895586
    18  H    7.613614   7.177468   5.658091   5.562748   4.575817
    19  H    6.196915   5.865784   4.404761   4.578505   3.895546
    20  H    8.250892   7.482622   6.013916   5.377235   4.121868
    21  H    7.507453   6.531982   5.191291   4.227805   2.943680
    22  H    6.944891   6.206697   4.828351   4.313273   3.311389
    23  H    8.251451   7.483188   6.013766   5.377336   4.121924
    24  H    6.945930   6.207772   4.828007   4.313447   3.311472
    25  H    7.508080   6.532644   5.191150   4.227959   2.943781
                    6          7          8          9         10
     6  O    0.000000
     7  C    1.431246   0.000000
     8  C    2.335789   1.536325   0.000000
     9  C    2.461207   1.542513   2.508685   0.000000
    10  C    2.461189   1.542544   2.508633   2.545132   0.000000
    11  O    2.296148   2.888459   4.333692   3.124744   3.124739
    12  O    4.897013   6.322033   6.963134   6.987867   6.988847
    13  H    5.907878   7.295619   7.483383   8.113065   8.113940
    14  H    2.749786   4.042941   4.259819   5.172538   4.717740
    15  H    2.747890   4.040928   4.257241   4.716671   5.170324
    16  H    3.181199   4.479090   5.497303   5.011722   5.011658
    17  H    2.589720   2.183352   1.090497   3.472956   2.756272
    18  H    3.312175   2.187138   1.090171   2.771981   2.771938
    19  H    2.589702   2.183308   1.090517   2.756292   3.472909
    20  H    3.401741   2.190702   2.749107   1.089807   2.826788
    21  H    2.811328   2.194400   3.474718   1.090062   2.793776
    22  H    2.684248   2.186816   2.778960   1.089932   3.498526
    23  H    3.401775   2.190788   2.749131   2.826853   1.089822
    24  H    2.684261   2.186893   2.778924   3.498556   1.089944
    25  H    2.811381   2.194475   3.474727   2.793803   1.090096
                   11         12         13         14         15
    11  O    0.000000
    12  O    4.839715   0.000000
    13  H    6.587746   2.275515   0.000000
    14  H    4.026399   3.128415   3.483036   0.000000
    15  H    4.026122   3.128578   3.482684   1.764809   0.000000
    16  H    2.495523   2.366371   4.331244   2.870724   2.871723
    17  H    4.694986   6.806873   7.144002   3.849126   4.229580
    18  H    5.073748   8.041881   8.562532   5.330155   5.327646
    19  H    4.694973   6.806162   7.143298   4.232664   3.846826
    20  H    4.074942   8.062211   9.123353   6.098948   5.697256
    21  H    2.570729   6.896328   8.292193   5.483266   5.046338
    22  H    3.544911   6.793539   7.783627   5.143884   4.333610
    23  H    4.074953   8.063130   9.124207   5.698558   6.096711
    24  H    3.544919   6.795285   7.785217   4.334235   5.141304
    25  H    2.570767   6.897406   8.293138   5.046996   5.481604
                   16         17         18         19         20
    16  H    0.000000
    17  H    5.554435   0.000000
    18  H    6.493365   1.760337   0.000000
    19  H    5.554458   1.754004   1.760350   0.000000
    20  H    6.081260   3.766532   2.564492   3.081928   0.000000
    21  H    4.736283   4.336822   3.772021   3.774623   1.754906
    22  H    5.022228   3.777914   3.151323   2.579942   1.761475
    23  H    6.081225   3.081964   2.564519   3.766567   2.673031
    24  H    5.022140   2.579938   3.151294   3.777896   3.835336
    25  H    4.736271   3.774660   3.772018   4.336835   3.166865
                   21         22         23         24         25
    21  H    0.000000
    22  H    1.753475   0.000000
    23  H    3.166901   3.835381   0.000000
    24  H    3.790006   4.342337   1.761464   0.000000
    25  H    2.599859   3.790019   1.754877   1.753506   0.000000
 Stoichiometry    C7H13NO4
 Framework group  C1[X(C7H13NO4)]
 Deg. of freedom    69
 Full point group                 C1      NOp   1
 Largest Abelian subgroup         C1      NOp   1
 Largest concise Abelian subgroup C1      NOp   1
                         Standard orientation:                         
 ---------------------------------------------------------------------
 Center     Atomic      Atomic             Coordinates (Angstroms)
 Number     Number       Type             X           Y           Z
 ---------------------------------------------------------------------
      1          8           0       -3.956274    1.380320    0.000063
      2          6           0       -3.281845    0.209514    0.000138
      3          6           0       -1.770693    0.463338   -0.001357
      4          7           0       -1.052165   -0.825130   -0.000589
      5          6           0        0.321736   -0.973894   -0.000309
      6          8           0        0.955298    0.228244   -0.000195
      7          6           0        2.376019    0.401499    0.000235
      8          6           0        2.558520    1.926946    0.000213
      9          6           0        3.020704   -0.184924    1.272963
     10          6           0        3.021410   -0.184928   -1.272169
     11          8           0        0.875311   -2.066510   -0.000201
     12          8           0       -3.815639   -0.875788    0.001192
     13          1           0       -4.882734    1.134008    0.000992
     14          1           0       -1.515181    1.050445   -0.884527
     15          1           0       -1.513870    1.052179    0.880281
     16          1           0       -1.590085   -1.679911   -0.001008
     17          1           0        2.096548    2.381282   -0.876909
     18          1           0        3.612480    2.205588    0.000510
     19          1           0        2.096051    2.381289    0.877094
     20          1           0        4.078979    0.067287    1.337173
     21          1           0        2.945621   -1.272053    1.300300
     22          1           0        2.532652    0.192630    2.171411
     23          1           0        4.079743    0.067237   -1.335858
     24          1           0        2.533877    0.192597   -2.170926
     25          1           0        2.946402   -1.272096   -1.299559
 ---------------------------------------------------------------------
 Rotational constants (GHZ):           1.8894622           0.4098606           0.3652811
 Standard basis: 6-31G(d,p) (6D, 7F)
 There are   245 symmetry adapted cartesian basis functions of A   symmetry.
 There are   245 symmetry adapted basis functions of A   symmetry.
   245 basis functions,   427 primitive gaussians,   245 cartesian basis functions
    47 alpha electrons       47 beta electrons
       nuclear repulsion energy       740.6246205973 Hartrees.
 NAtoms=   25 NActive=   25 NUniq=   25 SFac= 1.00D+00 NAtFMM=   60 NAOKFM=F Big=F
 Integral buffers will be    131072 words long.
 Raffenetti 2 integral format.
 Two-electron integral symmetry is turned on.
 Nuclear repulsion after empirical dispersion term =      740.5866584277 Hartrees.
 One-electron integrals computed using PRISM.
 NBasis=   245 RedAO= T EigKep=  2.57D-03  NBF=   245
 NBsUse=   245 1.00D-06 EigRej= -1.00D+00 NBFU=   245
 ExpMin= 1.61D-01 ExpMax= 5.48D+03 ExpMxC= 8.25D+02 IAcc=3 IRadAn=         5 AccDes= 0.00D+00
 Harris functional with IExCor=  402 and IRadAn=       5 diagonalized for initial guess.
 HarFok:  IExCor=  402 AccDes= 0.00D+00 IRadAn=         5 IDoV= 1 UseB2=F ITyADJ=14
 ICtDFT=  3500011 ScaDFX=  1.000000  1.000000  1.000000  1.000000
 FoFCou: FMM=F IPFlag=           0 FMFlag=      100000 FMFlg1=           0
         NFxFlg=           0 DoJE=T BraDBF=F KetDBF=T FulRan=T
         wScrn=  0.000000 ICntrl=       500 IOpCl=  0 I1Cent=   200000004 NGrid=           0
         NMat0=    1 NMatS0=      1 NMatT0=    0 NMatD0=    1 NMtDS0=    0 NMtDT0=    0
 Petite list used in FoFCou.
 Requested convergence on RMS density matrix=1.00D-08 within 128 cycles.
 Requested convergence on MAX density matrix=1.00D-06.
 Requested convergence on             energy=1.00D-06.
 No special actions if energy rises.
 Integral accuracy reduced to 1.0D-05 until final iterations.
 Initial convergence to 1.0D-05 achieved.  Increase integral accuracy.
 SCF Done:  E(RB3LYP) =  -630.322114996     A.U. after   14 cycles
            NFock= 14  Conv=0.61D-08     -V/T= 2.0093

 **********************************************************************

            Population analysis using the SCF Density.

 **********************************************************************

 Orbital symmetries:
       Occupied  (A) (A) (A) (A) (A) (A) (A) (A) (A) (A) (A) (A)
                 (A) (A) (A) (A) (A) (A) (A) (A) (A) (A) (A) (A)
                 (A) (A) (A) (A) (A) (A) (A) (A) (A) (A) (A) (A)
                 (A) (A) (A) (A) (A) (A) (A) (A) (A) (A) (A)
       Virtual   (A) (A) (A) (A) (A) (A) (A) (A) (A) (A) (A) (A)
                 (A) (A) (A) (A) (A) (A) (A) (A) (A) (A) (A) (A)
                 (A) (A) (A) (A) (A) (A) (A) (A) (A) (A) (A) (A)
                 (A) (A) (A) (A) (A) (A) (A) (A) (A) (A) (A) (A)
                 (A) (A) (A) (A) (A) (A) (A) (A) (A) (A) (A) (A)
                 (A) (A) (A) (A) (A) (A) (A) (A) (A) (A) (A) (A)
                 (A) (A) (A) (A) (A) (A) (A) (A) (A) (A) (A) (A)
                 (A) (A) (A) (A) (A) (A) (A) (A) (A) (A) (A) (A)
                 (A) (A) (A) (A) (A) (A) (A) (A) (A) (A) (A) (A)
                 (A) (A) (A) (A) (A) (A) (A) (A) (A) (A) (A) (A)
                 (A) (A) (A) (A) (A) (A) (A) (A) (A) (A) (A) (A)
                 (A) (A) (A) (A) (A) (A) (A) (A) (A) (A) (A) (A)
                 (A) (A) (A) (A) (A) (A) (A) (A) (A) (A) (A) (A)
                 (A) (A) (A) (A) (A) (A) (A) (A) (A) (A) (A) (A)
                 (A) (A) (A) (A) (A) (A) (A) (A) (A) (A) (A) (A)
                 (A) (A) (A) (A) (A) (A) (A) (A) (A) (A) (A) (A)
                 (A) (A) (A) (A) (A) (A)
 The electronic state is 1-A.
 Alpha  occ. eigenvalues --  -19.21788 -19.18001 -19.16478 -19.10935 -14.36070
 Alpha  occ. eigenvalues --  -10.34592 -10.33137 -10.25760 -10.25300 -10.17744
 Alpha  occ. eigenvalues --  -10.17071 -10.17070  -1.13042  -1.09271  -1.04123
 Alpha  occ. eigenvalues --   -1.00082  -0.92022  -0.80363  -0.75618  -0.69168
 Alpha  occ. eigenvalues --   -0.68872  -0.64815  -0.62877  -0.55279  -0.50941
 Alpha  occ. eigenvalues --   -0.50880  -0.50003  -0.49693  -0.46650  -0.46572
 Alpha  occ. eigenvalues --   -0.45310  -0.43447  -0.43026  -0.41302  -0.41051
 Alpha  occ. eigenvalues --   -0.40351  -0.39139  -0.38050  -0.36228  -0.35461
 Alpha  occ. eigenvalues --   -0.34668  -0.34167  -0.32683  -0.30187  -0.28704
 Alpha  occ. eigenvalues --   -0.25898  -0.25286
 Alpha virt. eigenvalues --   -0.00961   0.05357   0.06571   0.08406   0.10329
 Alpha virt. eigenvalues --    0.11210   0.12391   0.14795   0.15461   0.16531
 Alpha virt. eigenvalues --    0.16693   0.17551   0.18279   0.18919   0.19837
 Alpha virt. eigenvalues --    0.20260   0.20993   0.21507   0.22978   0.23653
 Alpha virt. eigenvalues --    0.25743   0.27545   0.28130   0.32365   0.38841
 Alpha virt. eigenvalues --    0.40121   0.47891   0.49221   0.49928   0.51148
 Alpha virt. eigenvalues --    0.51633   0.51921   0.55264   0.56026   0.56674
 Alpha virt. eigenvalues --    0.59712   0.60790   0.61066   0.64559   0.67065
 Alpha virt. eigenvalues --    0.67238   0.67770   0.69873   0.70132   0.71064
 Alpha virt. eigenvalues --    0.73447   0.74388   0.79519   0.80319   0.80345
 Alpha virt. eigenvalues --    0.81294   0.83912   0.83919   0.86052   0.86277
 Alpha virt. eigenvalues --    0.87264   0.87359   0.88186   0.89123   0.90943
 Alpha virt. eigenvalues --    0.91229   0.92431   0.92535   0.93152   0.93747
 Alpha virt. eigenvalues --    0.96516   0.97160   1.00318   1.00468   1.04898
 Alpha virt. eigenvalues --    1.05711   1.09474   1.13102   1.13239   1.14762
 Alpha virt. eigenvalues --    1.15406   1.24254   1.25601   1.27759   1.28024
 Alpha virt. eigenvalues --    1.33222   1.36223   1.36769   1.41420   1.42003
 Alpha virt. eigenvalues --    1.45984   1.49233   1.50044   1.50740   1.52546
 Alpha virt. eigenvalues --    1.53940   1.54994   1.62778   1.64523   1.66133
 Alpha virt. eigenvalues --    1.68569   1.70704   1.73018   1.74238   1.78109
 Alpha virt. eigenvalues --    1.78860   1.79983   1.80802   1.82500   1.82600
 Alpha virt. eigenvalues --    1.85130   1.85226   1.87041   1.87301   1.89001
 Alpha virt. eigenvalues --    1.90892   1.91170   1.94732   2.00193   2.01247
 Alpha virt. eigenvalues --    2.03148   2.04383   2.05227   2.05595   2.06937
 Alpha virt. eigenvalues --    2.08813   2.09880   2.11546   2.12886   2.13657
 Alpha virt. eigenvalues --    2.13740   2.15366   2.15561   2.18632   2.19129
 Alpha virt. eigenvalues --    2.21058   2.24630   2.26063   2.31780   2.33575
 Alpha virt. eigenvalues --    2.34979   2.35631   2.37020   2.39727   2.46118
 Alpha virt. eigenvalues --    2.46324   2.50590   2.51804   2.53412   2.54725
 Alpha virt. eigenvalues --    2.57630   2.58108   2.60379   2.62037   2.63378
 Alpha virt. eigenvalues --    2.63725   2.67082   2.72353   2.73543   2.73565
 Alpha virt. eigenvalues --    2.75886   2.76633   2.79263   2.80252   2.83409
 Alpha virt. eigenvalues --    2.84058   2.87228   2.88739   2.90053   2.90618
 Alpha virt. eigenvalues --    2.95188   2.95590   2.95848   3.00125   3.03785
 Alpha virt. eigenvalues --    3.13179   3.17271   3.19329   3.23726   3.24152
 Alpha virt. eigenvalues --    3.24331   3.29022   3.41770   3.42176   3.43593
 Alpha virt. eigenvalues --    3.43638   3.44541   3.45402   3.51043   3.52841
 Alpha virt. eigenvalues --    3.53816   3.90940   4.03667   4.13045   4.15446
 Alpha virt. eigenvalues --    4.25743   4.29353   4.41798   4.50139   4.53580
 Alpha virt. eigenvalues --    4.55932   4.60503   4.73881
          Condensed to atoms (all electrons):
               1          2          3          4          5          6
     1  O    8.099946   0.263041  -0.091240   0.001488  -0.000022  -0.000000
     2  C    0.263041   4.383281   0.303642  -0.022312   0.002623   0.000409
     3  C   -0.091240   0.303642   4.979745   0.234030  -0.022755   0.009932
     4  N    0.001488  -0.022312   0.234030   6.990644   0.316832  -0.104400
     5  C   -0.000022   0.002623  -0.022755   0.316832   4.114661   0.272681
     6  O   -0.000000   0.000409   0.009932  -0.104400   0.272681   8.355253
     7  C   -0.000000  -0.000005  -0.000314   0.004336  -0.015550   0.182011
     8  C    0.000000  -0.000001  -0.000132  -0.000164   0.003929  -0.053250
     9  C   -0.000000   0.000001   0.000057  -0.000416  -0.004035  -0.043089
    10  C   -0.000000   0.000001   0.000057  -0.000415  -0.004034  -0.043093
    11  O    0.000000  -0.000045   0.002592  -0.084937   0.560403  -0.074074
    12  O   -0.079190   0.579016  -0.078619  -0.004715   0.000326  -0.000003
    13  H    0.273134  -0.009841   0.010155  -0.000187   0.000001   0.000000
    14  H    0.002634  -0.023034   0.373894  -0.041903  -0.002129   0.002971
    15  H    0.002631  -0.022981   0.373869  -0.041868  -0.002136   0.002994
    16  H    0.000452  -0.004028  -0.037762   0.335356  -0.014053   0.003058
    17  H    0.000000   0.000001   0.000029  -0.000019   0.000006   0.000630
    18  H   -0.000000   0.000000   0.000002   0.000002  -0.000030   0.003484
    19  H    0.000000   0.000001   0.000028  -0.000019   0.000006   0.000630
    20  H    0.000000  -0.000000  -0.000001   0.000004   0.000195   0.002869
    21  H   -0.000000   0.000000  -0.000011   0.000058   0.001913  -0.003077
    22  H   -0.000000   0.000000   0.000001  -0.000047   0.000414   0.000269
    23  H    0.000000  -0.000000  -0.000001   0.000004   0.000195   0.002869
    24  H   -0.000000   0.000000   0.000001  -0.000047   0.000414   0.000269
    25  H   -0.000000   0.000000  -0.000011   0.000058   0.001913  -0.003077
               7          8          9         10         11         12
     1  O   -0.000000   0.000000  -0.000000  -0.000000   0.000000  -0.079190
     2  C   -0.000005  -0.000001   0.000001   0.000001  -0.000045   0.579016
     3  C   -0.000314  -0.000132   0.000057   0.000057   0.002592  -0.078619
     4  N    0.004336  -0.000164  -0.000416  -0.000415  -0.084937  -0.004715
     5  C   -0.015550   0.003929  -0.004035  -0.004034   0.560403   0.000326
     6  O    0.182011  -0.053250  -0.043089  -0.043093  -0.074074  -0.000003
     7  C    4.604876   0.405643   0.380036   0.380032   0.003448   0.000000
     8  C    0.405643   4.979780  -0.065473  -0.065483   0.000175   0.000000
     9  C    0.380036  -0.065473   5.017415  -0.063381  -0.005203  -0.000000
    10  C    0.380032  -0.065483  -0.063381   5.017442  -0.005200  -0.000000
    11  O    0.003448   0.000175  -0.005203  -0.005200   8.101478  -0.000000
    12  O    0.000000   0.000000  -0.000000  -0.000000  -0.000000   8.006358
    13  H   -0.000000   0.000000   0.000000   0.000000  -0.000000   0.009410
    14  H   -0.000049   0.000023   0.000012  -0.000015   0.000028   0.000815
    15  H   -0.000050   0.000023  -0.000016   0.000012   0.000028   0.000820
    16  H   -0.000091   0.000004   0.000006   0.000006   0.004916   0.018831
    17  H   -0.025367   0.370971   0.005806  -0.006414   0.000002  -0.000000
    18  H   -0.028321   0.371855  -0.001821  -0.001821   0.000008   0.000000
    19  H   -0.025373   0.370962  -0.006413   0.005807   0.000002  -0.000000
    20  H   -0.024913  -0.003442   0.366498  -0.001702   0.000172   0.000000
    21  H   -0.022787   0.004782   0.377020  -0.005981   0.009758   0.000000
    22  H   -0.026422  -0.006233   0.369632   0.005407  -0.000068  -0.000000
    23  H   -0.024911  -0.003442  -0.001702   0.366494   0.000172   0.000000
    24  H   -0.026418  -0.006232   0.005406   0.369631  -0.000068  -0.000000
    25  H   -0.022786   0.004782  -0.005980   0.377015   0.009755   0.000000
              13         14         15         16         17         18
     1  O    0.273134   0.002634   0.002631   0.000452   0.000000  -0.000000
     2  C   -0.009841  -0.023034  -0.022981  -0.004028   0.000001   0.000000
     3  C    0.010155   0.373894   0.373869  -0.037762   0.000029   0.000002
     4  N   -0.000187  -0.041903  -0.041868   0.335356  -0.000019   0.000002
     5  C    0.000001  -0.002129  -0.002136  -0.014053   0.000006  -0.000030
     6  O    0.000000   0.002971   0.002994   0.003058   0.000630   0.003484
     7  C   -0.000000  -0.000049  -0.000050  -0.000091  -0.025367  -0.028321
     8  C    0.000000   0.000023   0.000023   0.000004   0.370971   0.371855
     9  C    0.000000   0.000012  -0.000016   0.000006   0.005806  -0.001821
    10  C    0.000000  -0.000015   0.000012   0.000006  -0.006414  -0.001821
    11  O   -0.000000   0.000028   0.000028   0.004916   0.000002   0.000008
    12  O    0.009410   0.000815   0.000820   0.018831  -0.000000   0.000000
    13  H    0.390458  -0.000350  -0.000349  -0.000056   0.000000   0.000000
    14  H   -0.000350   0.564829  -0.038507   0.002818   0.000141  -0.000000
    15  H   -0.000349  -0.038507   0.564682   0.002826  -0.000021  -0.000000
    16  H   -0.000056   0.002818   0.002826   0.395328   0.000000  -0.000000
    17  H    0.000000   0.000141  -0.000021   0.000000   0.605462  -0.029068
    18  H    0.000000  -0.000000  -0.000000  -0.000000  -0.029068   0.605237
    19  H    0.000000  -0.000021   0.000142   0.000000  -0.031933  -0.029065
    20  H   -0.000000  -0.000000   0.000001  -0.000000  -0.000007   0.001726
    21  H    0.000000  -0.000001   0.000002   0.000000  -0.000198   0.000013
    22  H    0.000000  -0.000001   0.000026  -0.000000  -0.000074   0.000162
    23  H   -0.000000   0.000001  -0.000000  -0.000000   0.000147   0.001725
    24  H    0.000000   0.000026  -0.000001  -0.000000   0.004158   0.000162
    25  H    0.000000   0.000002  -0.000001   0.000000  -0.000046   0.000013
              19         20         21         22         23         24
     1  O    0.000000   0.000000  -0.000000  -0.000000   0.000000  -0.000000
     2  C    0.000001  -0.000000   0.000000   0.000000  -0.000000   0.000000
     3  C    0.000028  -0.000001  -0.000011   0.000001  -0.000001   0.000001
     4  N   -0.000019   0.000004   0.000058  -0.000047   0.000004  -0.000047
     5  C    0.000006   0.000195   0.001913   0.000414   0.000195   0.000414
     6  O    0.000630   0.002869  -0.003077   0.000269   0.002869   0.000269
     7  C   -0.025373  -0.024913  -0.022787  -0.026422  -0.024911  -0.026418
     8  C    0.370962  -0.003442   0.004782  -0.006233  -0.003442  -0.006232
     9  C   -0.006413   0.366498   0.377020   0.369632  -0.001702   0.005406
    10  C    0.005807  -0.001702  -0.005981   0.005407   0.366494   0.369631
    11  O    0.000002   0.000172   0.009758  -0.000068   0.000172  -0.000068
    12  O   -0.000000   0.000000   0.000000  -0.000000   0.000000  -0.000000
    13  H    0.000000  -0.000000   0.000000   0.000000  -0.000000   0.000000
    14  H   -0.000021  -0.000000  -0.000001  -0.000001   0.000001   0.000026
    15  H    0.000142   0.000001   0.000002   0.000026  -0.000000  -0.000001
    16  H    0.000000  -0.000000   0.000000  -0.000000  -0.000000  -0.000000
    17  H   -0.031933  -0.000007  -0.000198  -0.000074   0.000147   0.004158
    18  H   -0.029065   0.001726   0.000013   0.000162   0.001725   0.000162
    19  H    0.605483   0.000147  -0.000046   0.004159  -0.000007  -0.000074
    20  H    0.000147   0.613344  -0.027539  -0.029639   0.001134  -0.000056
    21  H   -0.000046  -0.027539   0.552383  -0.029927   0.000132   0.000003
    22  H    0.004159  -0.029639  -0.029927   0.610381  -0.000056  -0.000208
    23  H   -0.000007   0.001134   0.000132  -0.000056   0.613363  -0.029642
    24  H   -0.000074  -0.000056   0.000003  -0.000208  -0.029642   0.610389
    25  H   -0.000198   0.000132   0.003079   0.000003  -0.027545  -0.029926
              25
     1  O   -0.000000
     2  C    0.000000
     3  C   -0.000011
     4  N    0.000058
     5  C    0.001913
     6  O   -0.003077
     7  C   -0.022786
     8  C    0.004782
     9  C   -0.005980
    10  C    0.377015
    11  O    0.009755
    12  O    0.000000
    13  H    0.000000
    14  H    0.000002
    15  H   -0.000001
    16  H    0.000000
    17  H   -0.000046
    18  H    0.000013
    19  H   -0.000198
    20  H    0.000132
    21  H    0.003079
    22  H    0.000003
    23  H   -0.027545
    24  H   -0.029926
    25  H    0.552406
 Mulliken charges:
               1
     1  O   -0.472875
     2  C    0.550232
     3  C   -0.057190
     4  N   -0.581363
     5  C    0.788234
     6  O   -0.516266
     7  C    0.282975
     8  C   -0.309075
     9  C   -0.324359
    10  C   -0.324362
    11  O   -0.523344
    12  O   -0.453048
    13  H    0.327625
    14  H    0.157816
    15  H    0.157874
    16  H    0.292390
    17  H    0.105794
    18  H    0.105738
    19  H    0.105783
    20  H    0.101078
    21  H    0.140424
    22  H    0.102221
    23  H    0.101072
    24  H    0.102214
    25  H    0.140412
 Sum of Mulliken charges =  -0.00000
 Mulliken charges with hydrogens summed into heavy atoms:
               1
     1  O   -0.145250
     2  C    0.550232
     3  C    0.258500
     4  N   -0.288973
     5  C    0.788234
     6  O   -0.516266
     7  C    0.282975
     8  C    0.008239
     9  C    0.019365
    10  C    0.019336
    11  O   -0.523344
    12  O   -0.453048
 Electronic spatial extent (au):  <R**2>=           3018.8563
 Charge=             -0.0000 electrons
 Dipole moment (field-independent basis, Debye):
    X=             -1.0390    Y=              3.6088    Z=             -0.0020  Tot=              3.7554
 Quadrupole moment (field-independent basis, Debye-Ang):
   XX=            -58.9034   YY=            -78.6008   ZZ=            -69.6245
   XY=             -2.2506   XZ=              0.0051   YZ=              0.0055
 Traceless Quadrupole moment (field-independent basis, Debye-Ang):
   XX=             10.1395   YY=             -9.5579   ZZ=             -0.5816
   XY=             -2.2506   XZ=              0.0051   YZ=              0.0055
 Octapole moment (field-independent basis, Debye-Ang**2):
  XXX=            -63.7596  YYY=              5.8251  ZZZ=             -0.0019  XYY=             -9.3455
  XXY=             34.5741  XXZ=              0.0070  XZZ=            -10.2639  YZZ=             -0.4414
  YYZ=             -0.0003  XYZ=             -0.0228
 Hexadecapole moment (field-independent basis, Debye-Ang**3):
 XXXX=          -2491.5200 YYYY=           -619.9673 ZZZZ=           -248.9939 XXXY=           -180.8784
 XXXZ=             -0.0828 YYYX=             13.2321 YYYZ=              0.0084 ZZZX=             -0.0176
 ZZZY=             -0.0060 XXYY=           -613.0842 XXZZ=           -530.0411 YYZZ=           -137.2445
 XXYZ=              0.0947 YYXZ=             -0.0035 ZZXY=             -7.6417
 N-N= 7.405866584277D+02 E-N=-2.953828695281D+03  KE= 6.245024593048D+02
 Calling FoFJK, ICntrl=      2127 FMM=F ISym2X=0 I1Cent= 0 IOpClX= 0 NMat=1 NMatS=1 NMatT=0.
 ***** Axes restored to original set *****
 -------------------------------------------------------------------
 Center     Atomic                   Forces (Hartrees/Bohr)
 Number     Number              X              Y              Z
 -------------------------------------------------------------------
      1        8          -0.009836551    0.000890706   -0.008261267
      2        6          -0.008616669    0.005399625   -0.007641068
      3        6          -0.006252953   -0.022528463   -0.003207511
      4        7          -0.001884219    0.018834737   -0.003290211
      5        6          -0.003984826   -0.011296082   -0.002277440
      6        8           0.019539614   -0.000639942    0.016333294
      7        6          -0.020116582    0.006398608   -0.017310285
      8        6           0.003788057    0.000521129    0.003081359
      9        6           0.001812992   -0.007775290    0.003569450
     10        6           0.003115942   -0.007944049    0.001979644
     11        8           0.005161140    0.008411660    0.003526778
     12        8          -0.000703065    0.000766328   -0.000651057
     13        1           0.010811851   -0.003860238    0.009339947
     14        1          -0.000438770    0.003226306    0.001268928
     15        1           0.001416008    0.003007564   -0.000996189
     16        1           0.000936372    0.000956231    0.000685894
     17        1          -0.001099820   -0.000971922    0.003237972
     18        1          -0.002506743   -0.002197633   -0.001888742
     19        1           0.002868537   -0.001403336   -0.001533745
     20        1          -0.002551196    0.003931822    0.001133189
     21        1          -0.000484583   -0.001478970    0.003427646
     22        1           0.003181045    0.002949542    0.000860565
     23        1           0.001001270    0.003546953   -0.003115848
     24        1           0.001699968    0.003109923    0.002639787
     25        1           0.003143182   -0.001855209   -0.000911089
 -------------------------------------------------------------------
 Cartesian Forces:  Max     0.022528463 RMS     0.006816246

 GradGradGradGradGradGradGradGradGradGradGradGradGradGradGradGradGradGrad
 Berny optimization.
 FormGI is forming the generalized inverse of G from B-inverse, IUseBI=4.
 Internal  Forces:  Max     0.024517643 RMS     0.004891615
 Search for a local minimum.
 Step number   1 out of a maximum of  125
 All quantities printed in internal units (Hartrees-Bohrs-Radians)
 Mixed Optimization -- RFO/linear search
 Second derivative matrix not updated -- first step.
 ITU=  0
     Eigenvalues ---    0.00230   0.00230   0.00285   0.00338   0.00696
     Eigenvalues ---    0.00822   0.01176   0.01278   0.01931   0.02036
     Eigenvalues ---    0.02236   0.02338   0.04484   0.05193   0.05321
     Eigenvalues ---    0.05322   0.05359   0.05362   0.05363   0.05427
     Eigenvalues ---    0.05441   0.06470   0.06817   0.09443   0.12949
     Eigenvalues ---    0.15841   0.16000   0.16000   0.16000   0.16000
     Eigenvalues ---    0.16000   0.16000   0.16000   0.16000   0.16000
     Eigenvalues ---    0.16000   0.16000   0.16287   0.21960   0.22000
     Eigenvalues ---    0.25000   0.25000   0.25000   0.25000   0.25000
     Eigenvalues ---    0.28295   0.28297   0.28847   0.29210   0.34713
     Eigenvalues ---    0.34714   0.34753   0.34755   0.34793   0.34802
     Eigenvalues ---    0.34805   0.34819   0.34821   0.34833   0.34835
     Eigenvalues ---    0.35116   0.40811   0.45980   0.48751   0.53176
     Eigenvalues ---    0.54775   0.55766   0.93266   1.00205
 RFO step:  Lambda=-9.73750178D-03 EMin= 2.30000000D-03
 Linear search not attempted -- first point.
 Iteration  1 RMS(Cart)=  0.08347626 RMS(Int)=  0.00167074
 Iteration  2 RMS(Cart)=  0.00254400 RMS(Int)=  0.00020243
 Iteration  3 RMS(Cart)=  0.00000249 RMS(Int)=  0.00020242
 Iteration  4 RMS(Cart)=  0.00000000 RMS(Int)=  0.00020242
 Variable       Old X    -DE/DX   Delta X   Delta X   Delta X     New X
                                 (Linear)    (Quad)   (Total)
    R1        2.55333  -0.00126   0.00000  -0.00227  -0.00227   2.55106
    R2        1.81157   0.01450   0.00000   0.02556   0.02556   1.83713
    R3        2.89567  -0.01144   0.00000  -0.03790  -0.03790   2.85777
    R4        2.28557  -0.00098   0.00000  -0.00097  -0.00097   2.28460
    R5        2.78786  -0.02103   0.00000  -0.05827  -0.05827   2.72959
    R6        2.06142   0.00294   0.00000   0.00824   0.00824   2.06966
    R7        2.06143   0.00292   0.00000   0.00818   0.00818   2.06961
    R8        2.61147  -0.01992   0.00000  -0.04005  -0.04005   2.57142
    R9        1.90854  -0.00049   0.00000  -0.00105  -0.00105   1.90749
   R10        2.56790  -0.00855   0.00000  -0.01578  -0.01578   2.55212
   R11        2.31463  -0.01047   0.00000  -0.01111  -0.01111   2.30352
   R12        2.70466   0.00638   0.00000   0.01528   0.01528   2.71994
   R13        2.90323  -0.00369   0.00000  -0.01236  -0.01236   2.89088
   R14        2.91493  -0.00726   0.00000  -0.02479  -0.02479   2.89013
   R15        2.91498  -0.00727   0.00000  -0.02484  -0.02484   2.89015
   R16        2.06074   0.00274   0.00000   0.00766   0.00766   2.06840
   R17        2.06012   0.00182   0.00000   0.00509   0.00509   2.06521
   R18        2.06078   0.00273   0.00000   0.00763   0.00763   2.06841
   R19        2.05944   0.00254   0.00000   0.00710   0.00710   2.06654
   R20        2.05992   0.00135   0.00000   0.00376   0.00376   2.06368
   R21        2.05967   0.00324   0.00000   0.00905   0.00905   2.06872
   R22        2.05946   0.00254   0.00000   0.00708   0.00708   2.06655
   R23        2.05970   0.00323   0.00000   0.00902   0.00902   2.06872
   R24        2.05998   0.00133   0.00000   0.00370   0.00370   2.06369
    A1        1.83356   0.00534   0.00000   0.03146   0.03146   1.86502
    A2        1.92700   0.00220   0.00000   0.00847   0.00847   1.93547
    A3        2.16188  -0.00026   0.00000  -0.00100  -0.00100   2.16088
    A4        2.19431  -0.00194   0.00000  -0.00747  -0.00747   2.18684
    A5        1.91309  -0.00615   0.00000  -0.02646  -0.02638   1.88670
    A6        1.89752   0.00127   0.00000   0.00156   0.00166   1.89918
    A7        1.89738   0.00130   0.00000   0.00177   0.00188   1.89925
    A8        1.93521   0.00271   0.00000   0.01635   0.01626   1.95147
    A9        1.93516   0.00268   0.00000   0.01617   0.01609   1.95125
   A10        1.88459  -0.00176   0.00000  -0.00949  -0.00964   1.87495
   A11        2.18736  -0.00226   0.00000  -0.00982  -0.00982   2.17754
   A12        2.07120  -0.00023   0.00000  -0.00307  -0.00307   2.06812
   A13        2.02463   0.00248   0.00000   0.01290   0.01290   2.03753
   A14        1.94797  -0.01120   0.00000  -0.04313  -0.04313   1.90484
   A15        2.14761   0.00607   0.00000   0.02336   0.02336   2.17096
   A16        2.18760   0.00514   0.00000   0.01977   0.01977   2.20738
   A17        2.17718  -0.02452   0.00000  -0.09439  -0.09439   2.08279
   A18        1.81122  -0.00005   0.00000  -0.00037   0.00030   1.81152
   A19        1.94884  -0.00158   0.00000  -0.02983  -0.03010   1.91874
   A20        1.94878  -0.00158   0.00000  -0.02980  -0.03006   1.91872
   A21        1.90482   0.00172   0.00000   0.02998   0.02959   1.93441
   A22        1.90473   0.00173   0.00000   0.03006   0.02967   1.93440
   A23        1.94036  -0.00005   0.00000   0.00305   0.00156   1.94192
   A24        1.94268  -0.00179   0.00000  -0.00941  -0.00950   1.93318
   A25        1.94833  -0.00395   0.00000  -0.02553  -0.02572   1.92261
   A26        1.94260  -0.00178   0.00000  -0.00933  -0.00942   1.93318
   A27        1.87894   0.00280   0.00000   0.01435   0.01418   1.89312
   A28        1.86871   0.00245   0.00000   0.01877   0.01878   1.88749
   A29        1.87894   0.00280   0.00000   0.01435   0.01417   1.89311
   A30        1.94602  -0.00437   0.00000  -0.02779  -0.02806   1.91796
   A31        1.95094  -0.00311   0.00000  -0.01525  -0.01535   1.93559
   A32        1.94046  -0.00229   0.00000  -0.01447  -0.01468   1.92578
   A33        1.87152   0.00427   0.00000   0.02702   0.02686   1.89838
   A34        1.88188   0.00282   0.00000   0.01085   0.01048   1.89236
   A35        1.86916   0.00338   0.00000   0.02377   0.02374   1.89290
   A36        1.94609  -0.00438   0.00000  -0.02783  -0.02811   1.91798
   A37        1.94052  -0.00229   0.00000  -0.01452  -0.01473   1.92579
   A38        1.95097  -0.00311   0.00000  -0.01526  -0.01536   1.93561
   A39        1.88183   0.00282   0.00000   0.01089   0.01052   1.89235
   A40        1.87142   0.00428   0.00000   0.02710   0.02693   1.89835
   A41        1.86915   0.00338   0.00000   0.02378   0.02374   1.89289
    D1        3.14155  -0.00000   0.00000  -0.00006  -0.00006   3.14149
    D2        0.00001  -0.00000   0.00000   0.00001   0.00001   0.00002
    D3        3.14111  -0.00000   0.00000  -0.00004  -0.00004   3.14108
    D4       -1.02417   0.00034   0.00000   0.00474   0.00477  -1.01940
    D5        1.02335  -0.00033   0.00000  -0.00474  -0.00476   1.01859
    D6       -0.00053  -0.00001   0.00000  -0.00011  -0.00011  -0.00064
    D7        2.11737   0.00034   0.00000   0.00467   0.00470   2.12207
    D8       -2.11829  -0.00033   0.00000  -0.00481  -0.00484  -2.12313
    D9       -3.14049  -0.00001   0.00000  -0.00013  -0.00014  -3.14063
   D10        0.00198  -0.00001   0.00000  -0.00022  -0.00022   0.00176
   D11        1.04765   0.00068   0.00000   0.00470   0.00482   1.05247
   D12       -2.09306   0.00068   0.00000   0.00462   0.00474  -2.08833
   D13       -1.04565  -0.00067   0.00000  -0.00482  -0.00493  -1.05058
   D14        2.09682  -0.00068   0.00000  -0.00490  -0.00501   2.09181
   D15        0.00051   0.00000   0.00000   0.00002   0.00002   0.00052
   D16       -3.14107  -0.00000   0.00000  -0.00014  -0.00014  -3.14121
   D17        3.14124   0.00000   0.00000   0.00009   0.00009   3.14133
   D18       -0.00034  -0.00000   0.00000  -0.00007  -0.00007  -0.00040
   D19        3.14147  -0.00000   0.00000  -0.00006  -0.00006   3.14141
   D20       -0.00014   0.00000   0.00000   0.00010   0.00010  -0.00004
   D21       -3.14157   0.00000   0.00000   0.00005   0.00005  -3.14152
   D22       -1.09215   0.00124   0.00000   0.02081   0.02048  -1.07167
   D23        1.09231  -0.00124   0.00000  -0.02081  -0.02047   1.07184
   D24       -1.04154  -0.00036   0.00000  -0.00565  -0.00560  -1.04714
   D25       -3.14158  -0.00000   0.00000  -0.00001  -0.00001  -3.14159
   D26        1.04163   0.00036   0.00000   0.00558   0.00553   1.04716
   D27       -3.12138   0.00068   0.00000   0.01493   0.01521  -3.10617
   D28        1.06177   0.00104   0.00000   0.02057   0.02080   1.08257
   D29       -1.03820   0.00140   0.00000   0.02615   0.02634  -1.01187
   D30        1.03819  -0.00140   0.00000  -0.02615  -0.02633   1.01186
   D31       -1.06184  -0.00104   0.00000  -0.02051  -0.02075  -1.08259
   D32        3.12137  -0.00068   0.00000  -0.01493  -0.01521   3.10616
   D33       -3.00514  -0.00086   0.00000  -0.02575  -0.02568  -3.03082
   D34        1.18339  -0.00117   0.00000  -0.03065  -0.03056   1.15283
   D35       -0.90445  -0.00181   0.00000  -0.04074  -0.04052  -0.94498
   D36       -1.01297  -0.00078   0.00000  -0.02514  -0.02529  -1.03827
   D37       -3.10763  -0.00109   0.00000  -0.03004  -0.03017  -3.13781
   D38        1.08771  -0.00173   0.00000  -0.04013  -0.04014   1.04757
   D39        1.08892   0.00245   0.00000   0.03375   0.03367   1.12259
   D40       -1.00574   0.00215   0.00000   0.02885   0.02879  -0.97695
   D41       -3.09358   0.00151   0.00000   0.01876   0.01882  -3.07476
   D42        3.00512   0.00086   0.00000   0.02576   0.02569   3.03081
   D43        0.90442   0.00181   0.00000   0.04076   0.04055   0.94497
   D44       -1.18347   0.00117   0.00000   0.03071   0.03062  -1.15285
   D45        1.01304   0.00078   0.00000   0.02508   0.02524   1.03828
   D46       -1.08767   0.00173   0.00000   0.04009   0.04010  -1.04757
   D47        3.10763   0.00109   0.00000   0.03004   0.03017   3.13780
   D48       -1.08891  -0.00245   0.00000  -0.03376  -0.03368  -1.12259
   D49        3.09357  -0.00150   0.00000  -0.01875  -0.01882   3.07475
   D50        1.00568  -0.00214   0.00000  -0.02881  -0.02875   0.97694
         Item               Value     Threshold  Converged?
 Maximum Force            0.024518     0.000450     NO 
 RMS     Force            0.004892     0.000300     NO 
 Maximum Displacement     0.292404     0.001800     NO 
 RMS     Displacement     0.084428     0.001200     NO 
 Predicted change in Energy=-5.141797D-03
 GradGradGradGradGradGradGradGradGradGradGradGradGradGradGradGradGradGrad

                          Input orientation:                          
 ---------------------------------------------------------------------
 Center     Atomic      Atomic             Coordinates (Angstroms)
 Number     Number       Type             X           Y           Z
 ---------------------------------------------------------------------
      1          8           0        4.696475    0.468299    1.094063
      2          6           0        3.931705   -0.499398    0.545350
      3          6           0        2.889061    0.094210   -0.375237
      4          7           0        2.108928   -0.988881   -0.927242
      5          6           0        1.077064   -0.835131   -1.800868
      6          8           0        0.908994    0.479463   -2.060685
      7          6           0       -0.131597    0.892023   -2.965470
      8          6           0       -0.003667    2.416107   -2.997830
      9          6           0        0.116217    0.295813   -4.351891
     10          6           0       -1.496164    0.472253   -2.417005
     11          8           0        0.422864   -1.754380   -2.262267
     12          8           0        4.074611   -1.678541    0.770684
     13          1           0        5.341536    0.024887    1.670601
     14          1           0        2.268655    0.792037    0.197152
     15          1           0        3.395063    0.670570   -1.157039
     16          1           0        2.334709   -1.933633   -0.652740
     17          1           0       -0.145745    2.838726   -1.998207
     18          1           0       -0.756969    2.843196   -3.664523
     19          1           0        0.986296    2.714863   -3.356670
     20          1           0       -0.608493    0.698463   -5.065020
     21          1           0        0.021391   -0.791913   -4.330855
     22          1           0        1.122424    0.549268   -4.700771
     23          1           0       -2.291851    0.882659   -3.044971
     24          1           0       -1.629539    0.850408   -1.398370
     25          1           0       -1.590166   -0.615567   -2.396989
 ---------------------------------------------------------------------
                    Distance matrix (angstroms):
                    1          2          3          4          5
     1  O    0.000000
     2  C    1.349962   0.000000
     3  C    2.359138   1.512269   0.000000
     4  N    3.592276   2.393875   1.444439   0.000000
     5  C    4.814529   3.710314   2.485846   1.360737   0.000000
     6  O    4.929257   4.109303   2.628654   2.209201   1.350522
     7  C    6.322154   5.547282   4.058348   3.565407   2.408365
     8  C    6.529080   6.044952   4.542805   4.510470   3.629222
     9  C    7.118071   6.258856   4.852122   4.165280   2.951268
    10  C    7.118735   6.259506   4.852003   4.165453   2.951335
    11  O    5.871032   4.665797   3.613904   2.282782   1.218969
    12  O    2.258365   1.208956   2.421014   2.687470   4.038503
    13  H    0.972170   1.878481   3.194510   4.269224   5.565649
    14  H    2.608364   2.134193   1.095214   2.112213   2.838952
    15  H    2.608074   2.134230   1.095192   2.112044   2.838093
    16  H    3.794541   2.458220   2.120486   1.009398   2.026468
    17  H    6.215155   5.851354   4.401869   4.569583   3.877039
    18  H    7.617370   7.132996   5.627598   5.512793   4.512979
    19  H    6.214620   5.850869   4.401964   4.569480   3.877012
    20  H    8.132034   7.316046   5.881503   5.229983   3.980918
    21  H    7.271470   6.257275   4.965447   3.997648   2.741742
    22  H    6.808854   6.042644   4.694500   4.192685   3.213729
    23  H    8.132650   7.316634   5.881410   5.230133   3.980978
    24  H    6.810043   6.043795   4.694292   4.192980   3.213836
    25  H    7.272144   6.257948   4.965354   3.997852   2.741840
                    6          7          8          9         10
     6  O    0.000000
     7  C    1.439331   0.000000
     8  C    2.337046   1.529786   0.000000
     9  C    2.431429   1.529392   2.518631   0.000000
    10  C    2.431420   1.529400   2.518626   2.524814   0.000000
    11  O    2.294998   2.793810   4.256283   2.943442   2.943553
    12  O    4.763902   6.185373   6.899289   6.768141   6.769107
    13  H    5.811761   7.224975   7.488884   7.977956   7.978897
    14  H    2.654093   3.971573   4.243697   5.056978   4.594556
    15  H    2.652100   3.969483   4.241082   4.593294   5.054795
    16  H    3.136559   4.406327   5.466963   4.855497   4.855564
    17  H    2.585053   2.173810   1.094549   3.474890   2.756668
    18  H    3.306805   2.164911   1.092862   2.779225   2.779223
    19  H    2.585066   2.173814   1.094554   2.756684   3.474893
    20  H    3.372945   2.161714   2.754886   1.093566   2.801985
    21  H    2.749165   2.173321   3.474044   1.092053   2.750257
    22  H    2.649618   2.168252   2.766438   1.094719   3.475417
    23  H    3.372951   2.161736   2.754899   2.802002   1.093569
    24  H    2.649606   2.168263   2.766432   3.475417   1.094718
    25  H    2.749181   2.173344   3.474052   2.750272   1.092057
                   11         12         13         14         15
    11  O    0.000000
    12  O    4.747610   0.000000
    13  H    6.544202   2.305779   0.000000
    14  H    3.992484   3.113546   3.493160   0.000000
    15  H    3.991977   3.113876   3.493024   1.765611   0.000000
    16  H    2.505566   2.262403   4.274895   2.855864   2.856666
    17  H    4.635695   6.773762   7.175520   3.851995   4.236247
    18  H    4.949347   7.966262   8.578938   5.317348   5.314805
    19  H    4.635657   6.773089   7.174785   4.239264   3.849633
    20  H    3.864656   7.850927   9.012500   5.998100   5.594780
    21  H    2.316588   6.575743   8.061550   5.297352   4.857327
    22  H    3.426730   6.604192   7.659652   5.036112   4.211607
    23  H    3.864748   7.851803   9.013378   5.596230   5.995854
    24  H    3.426893   6.605884   7.661328   4.212483   5.033608
    25  H    2.316751   6.576760   8.062504   4.858129   5.295672
                   16         17         18         19         20
    16  H    0.000000
    17  H    5.544217   0.000000
    18  H    6.437965   1.774887   0.000000
    19  H    5.544183   1.772648   1.774884   0.000000
    20  H    5.921029   3.768316   2.565797   3.086695   0.000000
    21  H    4.492604   4.318648   3.776752   3.765310   1.776787
    22  H    4.901120   3.762143   3.141342   2.552438   1.775109
    23  H    5.921092   3.086695   2.565815   3.768338   2.635947
    24  H    4.901235   2.552422   3.141342   3.762144   3.809193
    25  H    4.492700   3.765305   3.776757   4.318670   3.131892
                   21         22         23         24         25
    21  H    0.000000
    22  H    1.774225   0.000000
    23  H    3.131897   3.809211   0.000000
    24  H    3.744631   4.309273   1.775104   0.000000
    25  H    2.523501   3.744649   1.776773   1.774225   0.000000
 Stoichiometry    C7H13NO4
 Framework group  C1[X(C7H13NO4)]
 Deg. of freedom    69
 Full point group                 C1      NOp   1
 Largest Abelian subgroup         C1      NOp   1
 Largest concise Abelian subgroup C1      NOp   1
                         Standard orientation:                         
 ---------------------------------------------------------------------
 Center     Atomic      Atomic             Coordinates (Angstroms)
 Number     Number       Type             X           Y           Z
 ---------------------------------------------------------------------
      1          8           0       -3.917529    1.341467    0.000167
      2          6           0       -3.207995    0.193007    0.000127
      3          6           0       -1.722584    0.476745   -0.001267
      4          7           0       -1.024197   -0.787637   -0.000533
      5          6           0        0.329455   -0.926313   -0.000330
      6          8           0        0.899971    0.297788   -0.000255
      7          6           0        2.335163    0.406863    0.000191
      8          6           0        2.586232    1.915906    0.000245
      9          6           0        2.906885   -0.239718    1.262771
     10          6           0        2.907646   -0.239737   -1.262044
     11          8           0        0.911804   -1.997180   -0.000096
     12          8           0       -3.709003   -0.907250    0.000963
     13          1           0       -4.857225    1.092300    0.000988
     14          1           0       -1.478281    1.076044   -0.884812
     15          1           0       -1.476851    1.077595    0.880799
     16          1           0       -1.567897   -1.638092   -0.000846
     17          1           0        2.145344    2.382642   -0.886216
     18          1           0        3.660052    2.119028    0.000572
     19          1           0        2.144809    2.382670    0.886432
     20          1           0        3.983863   -0.058386    1.318652
     21          1           0        2.731621   -1.317616    1.262061
     22          1           0        2.437415    0.187123    2.154855
     23          1           0        3.984662   -0.058416   -1.317296
     24          1           0        2.438717    0.187089   -2.154418
     25          1           0        2.732401   -1.317640   -1.261439
 ---------------------------------------------------------------------
 Rotational constants (GHZ):           1.9456226           0.4269218           0.3803888
 Standard basis: 6-31G(d,p) (6D, 7F)
 There are   245 symmetry adapted cartesian basis functions of A   symmetry.
 There are   245 symmetry adapted basis functions of A   symmetry.
   245 basis functions,   427 primitive gaussians,   245 cartesian basis functions
    47 alpha electrons       47 beta electrons
       nuclear repulsion energy       751.2584566692 Hartrees.
 NAtoms=   25 NActive=   25 NUniq=   25 SFac= 1.00D+00 NAtFMM=   60 NAOKFM=F Big=F
 Integral buffers will be    131072 words long.
 Raffenetti 2 integral format.
 Two-electron integral symmetry is turned on.
 Nuclear repulsion after empirical dispersion term =      751.2195424974 Hartrees.
 One-electron integrals computed using PRISM.
 NBasis=   245 RedAO= T EigKep=  2.32D-03  NBF=   245
 NBsUse=   245 1.00D-06 EigRej= -1.00D+00 NBFU=   245
 Initial guess from the checkpoint file:  "Ac2_conf-6.chk"
 B after Tr=     0.000000    0.000000    0.000000
         Rot=    1.000000   -0.000011    0.000001    0.000545 Ang=  -0.06 deg.
 ExpMin= 1.61D-01 ExpMax= 5.48D+03 ExpMxC= 8.25D+02 IAcc=3 IRadAn=         5 AccDes= 0.00D+00
 Harris functional with IExCor=  402 and IRadAn=       5 diagonalized for initial guess.
 HarFok:  IExCor=  402 AccDes= 0.00D+00 IRadAn=         5 IDoV= 1 UseB2=F ITyADJ=14
 ICtDFT=  3500011 ScaDFX=  1.000000  1.000000  1.000000  1.000000
 FoFCou: FMM=F IPFlag=           0 FMFlag=      100000 FMFlg1=           0
         NFxFlg=           0 DoJE=T BraDBF=F KetDBF=T FulRan=T
         wScrn=  0.000000 ICntrl=       500 IOpCl=  0 I1Cent=   200000004 NGrid=           0
         NMat0=    1 NMatS0=      1 NMatT0=    0 NMatD0=    1 NMtDS0=    0 NMtDT0=    0
 Petite list used in FoFCou.
 Requested convergence on RMS density matrix=1.00D-08 within 128 cycles.
 Requested convergence on MAX density matrix=1.00D-06.
 Requested convergence on             energy=1.00D-06.
 No special actions if energy rises.
 Integral accuracy reduced to 1.0D-05 until final iterations.
 Initial convergence to 1.0D-05 achieved.  Increase integral accuracy.
 SCF Done:  E(RB3LYP) =  -630.326079412     A.U. after   11 cycles
            NFock= 11  Conv=0.79D-08     -V/T= 2.0089
 Calling FoFJK, ICntrl=      2127 FMM=F ISym2X=0 I1Cent= 0 IOpClX= 0 NMat=1 NMatS=1 NMatT=0.
 ***** Axes restored to original set *****
 -------------------------------------------------------------------
 Center     Atomic                   Forces (Hartrees/Bohr)
 Number     Number              X              Y              Z
 -------------------------------------------------------------------
      1        8          -0.000314791   -0.000978555   -0.000176547
      2        6           0.001858042    0.005104776    0.001096827
      3        6          -0.001771204   -0.008104737   -0.000763743
      4        7          -0.000326834   -0.000427056   -0.000215422
      5        6           0.002685854   -0.002883063    0.002482843
      6        8           0.005928778    0.001965857    0.004767819
      7        6          -0.010380976    0.003148785   -0.008931224
      8        6           0.001248368    0.000170943    0.001020829
      9        6           0.000872054   -0.001920705   -0.003095126
     10        6          -0.003042094   -0.001494749    0.001597620
     11        8           0.001660371   -0.002350292    0.001605598
     12        8           0.000472914   -0.002256569    0.000596428
     13        1          -0.000199720   -0.000254449   -0.000142220
     14        1           0.000533330    0.001756501    0.000017780
     15        1           0.000266940    0.001782916    0.000337349
     16        1           0.001521527    0.000171135    0.001246180
     17        1          -0.000227956   -0.000546736   -0.000203411
     18        1          -0.000195554   -0.000148574   -0.000148888
     19        1          -0.000292085   -0.000540945   -0.000128024
     20        1           0.000052294    0.000770047   -0.000236980
     21        1          -0.000218630    0.002217526    0.000187389
     22        1          -0.000216804    0.000939873   -0.000155818
     23        1          -0.000151000    0.000793231    0.000010098
     24        1          -0.000107480    0.000928444   -0.000285305
     25        1           0.000344656    0.002156393   -0.000484053
 -------------------------------------------------------------------
 Cartesian Forces:  Max     0.010380976 RMS     0.002461709

 GradGradGradGradGradGradGradGradGradGradGradGradGradGradGradGradGradGrad
 Berny optimization.
 Using GEDIIS/GDIIS optimizer.
 FormGI is forming the generalized inverse of G from B-inverse, IUseBI=4.
 Internal  Forces:  Max     0.017581354 RMS     0.002736262
 Search for a local minimum.
 Step number   2 out of a maximum of  125
 All quantities printed in internal units (Hartrees-Bohrs-Radians)
 Mixed Optimization -- RFO/linear search
 Update second derivatives using D2CorX and points    1    2
 DE= -3.96D-03 DEPred=-5.14D-03 R= 7.71D-01
 TightC=F SS=  1.41D+00  RLast= 2.36D-01 DXNew= 5.0454D-01 7.0824D-01
 Trust test= 7.71D-01 RLast= 2.36D-01 DXMaxT set to 5.05D-01
 ITU=  1  0
 Use linear search instead of GDIIS.
     Eigenvalues ---    0.00230   0.00231   0.00285   0.00338   0.00696
     Eigenvalues ---    0.00825   0.01180   0.01278   0.01931   0.02036
     Eigenvalues ---    0.02236   0.02338   0.04336   0.05334   0.05478
     Eigenvalues ---    0.05495   0.05515   0.05562   0.05576   0.05598
     Eigenvalues ---    0.06074   0.06477   0.06744   0.09174   0.12808
     Eigenvalues ---    0.14891   0.16000   0.16000   0.16000   0.16000
     Eigenvalues ---    0.16000   0.16000   0.16000   0.16000   0.16000
     Eigenvalues ---    0.16037   0.16072   0.16572   0.21942   0.22044
     Eigenvalues ---    0.24251   0.25000   0.25000   0.25000   0.27773
     Eigenvalues ---    0.28296   0.28617   0.28946   0.31022   0.32853
     Eigenvalues ---    0.34714   0.34731   0.34754   0.34764   0.34795
     Eigenvalues ---    0.34803   0.34820   0.34826   0.34834   0.34856
     Eigenvalues ---    0.35041   0.43056   0.45986   0.49773   0.54740
     Eigenvalues ---    0.54955   0.59968   0.93156   1.00335
 RFO step:  Lambda=-1.81703267D-03 EMin= 2.30000000D-03
 Quartic linear search produced a step of -0.17804.
 Iteration  1 RMS(Cart)=  0.04423714 RMS(Int)=  0.00048300
 Iteration  2 RMS(Cart)=  0.00091945 RMS(Int)=  0.00004570
 Iteration  3 RMS(Cart)=  0.00000018 RMS(Int)=  0.00004570
 Variable       Old X    -DE/DX   Delta X   Delta X   Delta X     New X
                                 (Linear)    (Quad)   (Total)
    R1        2.55106  -0.00130   0.00040  -0.00278  -0.00237   2.54869
    R2        1.83713  -0.00010  -0.00455   0.00918   0.00463   1.84176
    R3        2.85777   0.00146   0.00675  -0.01015  -0.00340   2.85437
    R4        2.28460   0.00237   0.00017   0.00159   0.00176   2.28636
    R5        2.72959  -0.00139   0.01037  -0.02487  -0.01449   2.71510
    R6        2.06966   0.00083  -0.00147   0.00500   0.00354   2.07319
    R7        2.06961   0.00082  -0.00146   0.00497   0.00352   2.07313
    R8        2.57142   0.00319   0.00713  -0.00932  -0.00219   2.56923
    R9        1.90749   0.00052   0.00019   0.00054   0.00072   1.90821
   R10        2.55212   0.01018   0.00281   0.00990   0.01271   2.56482
   R11        2.30352   0.00027   0.00198  -0.00376  -0.00178   2.30173
   R12        2.71994   0.01758  -0.00272   0.04084   0.03812   2.75806
   R13        2.89088  -0.00103   0.00220  -0.00755  -0.00535   2.88553
   R14        2.89013   0.00229   0.00441  -0.00272   0.00169   2.89183
   R15        2.89015   0.00228   0.00442  -0.00275   0.00167   2.89182
   R16        2.06840  -0.00037  -0.00136   0.00198   0.00062   2.06902
   R17        2.06521   0.00017  -0.00091   0.00228   0.00138   2.06659
   R18        2.06841  -0.00037  -0.00136   0.00197   0.00061   2.06902
   R19        2.06654   0.00040  -0.00126   0.00358   0.00232   2.06886
   R20        2.06368  -0.00219  -0.00067  -0.00373  -0.00440   2.05928
   R21        2.06872   0.00007  -0.00161   0.00352   0.00191   2.07063
   R22        2.06655   0.00040  -0.00126   0.00357   0.00231   2.06886
   R23        2.06872   0.00007  -0.00161   0.00351   0.00191   2.07062
   R24        2.06369  -0.00219  -0.00066  -0.00375  -0.00441   2.05927
    A1        1.86502  -0.00062  -0.00560   0.00920   0.00360   1.86862
    A2        1.93547   0.00095  -0.00151   0.00631   0.00480   1.94027
    A3        2.16088  -0.00076   0.00018  -0.00287  -0.00269   2.15819
    A4        2.18684  -0.00019   0.00133  -0.00344  -0.00211   2.18473
    A5        1.88670   0.00315   0.00470   0.00494   0.00959   1.89629
    A6        1.89918  -0.00121  -0.00030  -0.00446  -0.00485   1.89433
    A7        1.89925  -0.00120  -0.00033  -0.00430  -0.00473   1.89452
    A8        1.95147  -0.00007  -0.00290   0.01059   0.00771   1.95918
    A9        1.95125  -0.00007  -0.00286   0.01054   0.00770   1.95895
   A10        1.87495  -0.00070   0.00172  -0.01804  -0.01634   1.85860
   A11        2.17754   0.00146   0.00175   0.00166   0.00341   2.18094
   A12        2.06812  -0.00255   0.00055  -0.01318  -0.01263   2.05549
   A13        2.03753   0.00109  -0.00230   0.01152   0.00923   2.04675
   A14        1.90484   0.00265   0.00768  -0.00769  -0.00001   1.90483
   A15        2.17096  -0.00511  -0.00416  -0.00780  -0.01196   2.15900
   A16        2.20738   0.00246  -0.00352   0.01550   0.01198   2.21935
   A17        2.08279   0.01700   0.01681   0.01967   0.03648   2.11927
   A18        1.81152  -0.00168  -0.00005  -0.02304  -0.02318   1.78834
   A19        1.91874   0.00111   0.00536   0.00246   0.00761   1.92635
   A20        1.91872   0.00111   0.00535   0.00247   0.00761   1.92633
   A21        1.93441  -0.00094  -0.00527  -0.00031  -0.00547   1.92894
   A22        1.93440  -0.00094  -0.00528  -0.00027  -0.00544   1.92896
   A23        1.94192   0.00118  -0.00028   0.01613   0.01602   1.95795
   A24        1.93318  -0.00048   0.00169  -0.00593  -0.00424   1.92894
   A25        1.92261  -0.00018   0.00458  -0.01164  -0.00705   1.91556
   A26        1.93318  -0.00048   0.00168  -0.00590  -0.00422   1.92896
   A27        1.89312   0.00029  -0.00252   0.00642   0.00391   1.89703
   A28        1.88749   0.00060  -0.00334   0.01153   0.00818   1.89567
   A29        1.89311   0.00029  -0.00252   0.00643   0.00392   1.89702
   A30        1.91796  -0.00037   0.00500  -0.01475  -0.00975   1.90822
   A31        1.93559  -0.00011   0.00273  -0.00438  -0.00162   1.93397
   A32        1.92578  -0.00036   0.00261  -0.00814  -0.00553   1.92025
   A33        1.89838   0.00036  -0.00478   0.01329   0.00853   1.90691
   A34        1.89236  -0.00017  -0.00187  -0.00135  -0.00324   1.88912
   A35        1.89290   0.00066  -0.00423   0.01608   0.01186   1.90476
   A36        1.91798  -0.00037   0.00500  -0.01477  -0.00976   1.90822
   A37        1.92579  -0.00036   0.00262  -0.00817  -0.00555   1.92024
   A38        1.93561  -0.00011   0.00273  -0.00440  -0.00165   1.93396
   A39        1.89235  -0.00017  -0.00187  -0.00133  -0.00322   1.88913
   A40        1.89835   0.00036  -0.00480   0.01334   0.00857   1.90692
   A41        1.89289   0.00067  -0.00423   0.01608   0.01187   1.90476
    D1        3.14149  -0.00000   0.00001  -0.00003  -0.00002   3.14147
    D2        0.00002  -0.00000  -0.00000  -0.00004  -0.00004  -0.00002
    D3        3.14108   0.00000   0.00001  -0.00014  -0.00014   3.14094
    D4       -1.01940   0.00109  -0.00085   0.01302   0.01213  -1.00727
    D5        1.01859  -0.00109   0.00085  -0.01334  -0.01245   1.00614
    D6       -0.00064   0.00000   0.00002  -0.00014  -0.00012  -0.00076
    D7        2.12207   0.00109  -0.00084   0.01302   0.01215   2.13422
    D8       -2.12313  -0.00109   0.00086  -0.01334  -0.01243  -2.13556
    D9       -3.14063  -0.00000   0.00002  -0.00033  -0.00031  -3.14094
   D10        0.00176  -0.00001   0.00004  -0.00049  -0.00045   0.00131
   D11        1.05247  -0.00050  -0.00086  -0.00444  -0.00535   1.04712
   D12       -2.08833  -0.00050  -0.00084  -0.00460  -0.00549  -2.09382
   D13       -1.05058   0.00050   0.00088   0.00394   0.00486  -1.04571
   D14        2.09181   0.00050   0.00089   0.00378   0.00472   2.09653
   D15        0.00052  -0.00001  -0.00000  -0.00025  -0.00026   0.00027
   D16       -3.14121   0.00000   0.00002  -0.00002   0.00001  -3.14120
   D17        3.14133  -0.00001  -0.00002  -0.00010  -0.00012   3.14121
   D18       -0.00040   0.00000   0.00001   0.00013   0.00014  -0.00026
   D19        3.14141   0.00000   0.00001   0.00011   0.00012   3.14153
   D20       -0.00004  -0.00000  -0.00002  -0.00013  -0.00015  -0.00019
   D21       -3.14152  -0.00000  -0.00001  -0.00008  -0.00008   3.14158
   D22       -1.07167  -0.00148  -0.00365  -0.01186  -0.01547  -1.08714
   D23        1.07184   0.00148   0.00365   0.01166   0.01527   1.08710
   D24       -1.04714  -0.00006   0.00100  -0.00336  -0.00237  -1.04950
   D25       -3.14159   0.00000   0.00000   0.00000   0.00000  -3.14158
   D26        1.04716   0.00006  -0.00098   0.00334   0.00236   1.04952
   D27       -3.10617   0.00003  -0.00271   0.00683   0.00404  -3.10213
[...]
 Alpha  occ. eigenvalues --   -0.34756  -0.32750
 Alpha virt. eigenvalues --    0.02678   0.04734   0.05816   0.08558   0.08779
 Alpha virt. eigenvalues --    0.09725   0.10952   0.11099   0.12024   0.13227
 Alpha virt. eigenvalues --    0.15147   0.15437   0.15974   0.16538   0.17262
 Alpha virt. eigenvalues --    0.18236   0.18382   0.18864   0.19352   0.20236
 Alpha virt. eigenvalues --    0.20525   0.21197   0.22425   0.23221   0.23874
 Alpha virt. eigenvalues --    0.25198   0.26849   0.28069   0.29490   0.29888
 Alpha virt. eigenvalues --    0.31220   0.32217   0.32553   0.34308   0.35490
 Alpha virt. eigenvalues --    0.36081   0.36399   0.37471   0.38411   0.38570
 Alpha virt. eigenvalues --    0.39899   0.40239   0.41282   0.43102   0.43652
 Alpha virt. eigenvalues --    0.44985   0.45100   0.45860   0.46088   0.46621
 Alpha virt. eigenvalues --    0.48333   0.48411   0.48496   0.49164   0.49664
 Alpha virt. eigenvalues --    0.50698   0.51045   0.51240   0.51893   0.53245
 Alpha virt. eigenvalues --    0.53711   0.53796   0.53829   0.55760   0.55941
 Alpha virt. eigenvalues --    0.56772   0.58466   0.58873   0.61597   0.61961
 Alpha virt. eigenvalues --    0.64041   0.64581   0.65975   0.66506   0.67261
 Alpha virt. eigenvalues --    0.68993   0.69261   0.71131   0.72679   0.74315
 Alpha virt. eigenvalues --    0.76052   0.77377   0.78366   0.79377   0.81682
 Alpha virt. eigenvalues --    0.82527   0.83775   0.86702   0.87465   0.88709
 Alpha virt. eigenvalues --    0.91092   0.92142   0.92272   0.93506   0.96902
 Alpha virt. eigenvalues --    0.97879   0.98578   0.99717   1.01028   1.01366
 Alpha virt. eigenvalues --    1.03393   1.04147   1.04989   1.05293   1.09652
 Alpha virt. eigenvalues --    1.10010   1.11722   1.13868   1.14515   1.15751
 Alpha virt. eigenvalues --    1.17332   1.19032   1.21259   1.25109   1.25233
 Alpha virt. eigenvalues --    1.29556   1.30432   1.32809   1.33091   1.36260
 Alpha virt. eigenvalues --    1.36713   1.37670   1.40470   1.42372   1.44328
 Alpha virt. eigenvalues --    1.45569   1.45655   1.47956   1.50979   1.53988
 Alpha virt. eigenvalues --    1.54075   1.54830   1.55894   1.57037   1.57831
 Alpha virt. eigenvalues --    1.58807   1.58968   1.62484   1.62891   1.62978
 Alpha virt. eigenvalues --    1.63644   1.64376   1.65106   1.65206   1.66739
 Alpha virt. eigenvalues --    1.67370   1.68385   1.70453   1.70724   1.71626
 Alpha virt. eigenvalues --    1.75875   1.78557   1.79059   1.79439   1.80021
 Alpha virt. eigenvalues --    1.82426   1.83877   1.86132   1.87416   1.88779
 Alpha virt. eigenvalues --    1.91021   1.94840   1.94942   1.96000   1.97307
 Alpha virt. eigenvalues --    1.98117   1.98750   2.02124   2.03414   2.05077
 Alpha virt. eigenvalues --    2.08745   2.10718   2.10912   2.11258   2.12046
 Alpha virt. eigenvalues --    2.12821   2.15514   2.16738   2.18066   2.18553
 Alpha virt. eigenvalues --    2.19858   2.21698   2.22174   2.25022   2.25118
 Alpha virt. eigenvalues --    2.26905   2.28813   2.29844   2.30903   2.31007
 Alpha virt. eigenvalues --    2.32892   2.34915   2.36214   2.37452   2.38233
 Alpha virt. eigenvalues --    2.39280   2.40812   2.41799   2.42184   2.42432
 Alpha virt. eigenvalues --    2.42956   2.44428   2.45051   2.49103   2.49407
 Alpha virt. eigenvalues --    2.51020   2.55490   2.55803   2.55815   2.56048
 Alpha virt. eigenvalues --    2.59771   2.61050   2.61721   2.62924   2.63333
 Alpha virt. eigenvalues --    2.65186   2.66734   2.67958   2.68818   2.69082
 Alpha virt. eigenvalues --    2.71467   2.74651   2.75797   2.79903   2.80049
 Alpha virt. eigenvalues --    2.80883   2.81271   2.85183   2.86175   2.87546
 Alpha virt. eigenvalues --    2.89112   2.89905   2.91217   2.92939   2.95805
 Alpha virt. eigenvalues --    2.97163   2.97655   2.98793   3.01384   3.03929
 Alpha virt. eigenvalues --    3.04839   3.05761   3.08525   3.09251   3.09946
 Alpha virt. eigenvalues --    3.10768   3.13963   3.14128   3.16530   3.17330
 Alpha virt. eigenvalues --    3.17572   3.18036   3.19972   3.20614   3.21688
 Alpha virt. eigenvalues --    3.22259   3.23341   3.24551   3.24896   3.26605
 Alpha virt. eigenvalues --    3.28752   3.29651   3.30840   3.31339   3.33148
 Alpha virt. eigenvalues --    3.33896   3.34318   3.35357   3.35644   3.37758
 Alpha virt. eigenvalues --    3.39016   3.39290   3.40819   3.41686   3.43809
 Alpha virt. eigenvalues --    3.44171   3.45964   3.46376   3.48254   3.50928
 Alpha virt. eigenvalues --    3.51357   3.56510   3.57123   3.59246   3.59556
 Alpha virt. eigenvalues --    3.64227   3.65297   3.67658   3.69890   3.71245
 Alpha virt. eigenvalues --    3.73125   3.75472   3.76565   3.81181   3.82061
 Alpha virt. eigenvalues --    3.83582   3.92017   3.94662   3.99003   3.99206
 Alpha virt. eigenvalues --    4.01706   4.03188   4.03648   4.06110   4.08240
 Alpha virt. eigenvalues --    4.08355   4.11308   4.12527   4.13513   4.18200
 Alpha virt. eigenvalues --    4.18561   4.27253   4.33731   4.35521   4.35799
 Alpha virt. eigenvalues --    4.37471   4.40793   4.41314   4.45006   4.46417
 Alpha virt. eigenvalues --    4.47010   4.48053   4.52599   4.53524   4.59732
 Alpha virt. eigenvalues --    4.63355   4.67287   4.73002   4.75817   4.81727
 Alpha virt. eigenvalues --    4.82595   4.84097   4.87096   4.89697   4.98938
 Alpha virt. eigenvalues --    5.08178   5.08181   5.14516   5.14554   5.19401
 Alpha virt. eigenvalues --    5.20476   5.23452   5.25210   5.27921   5.29144
 Alpha virt. eigenvalues --    5.35756   5.37220   5.38700   5.43554   5.47080
 Alpha virt. eigenvalues --    5.47235   5.51479   5.56670   5.60370   5.71613
 Alpha virt. eigenvalues --    5.71958   5.74814   5.77877   5.84929   5.86201
 Alpha virt. eigenvalues --    5.94551   6.01621   6.12938   6.16582   6.18579
 Alpha virt. eigenvalues --    6.19120   6.26073   6.29378   6.33408   6.40289
 Alpha virt. eigenvalues --    6.40704   6.41685   6.47524   6.55562   6.63074
 Alpha virt. eigenvalues --    6.66583   6.67709   6.72249   6.76456   6.78895
 Alpha virt. eigenvalues --    6.80311   6.87248   6.93813   6.94132   7.05882
 Alpha virt. eigenvalues --    7.07153   7.08260   7.15219   7.28955   7.39634
 Alpha virt. eigenvalues --    7.43525  22.48647  22.52086  22.53573  22.62946
 Alpha virt. eigenvalues --   22.72028  23.27322  23.60541  32.64473  43.92529
 Alpha virt. eigenvalues --   43.97050  44.11578  44.55884
          Condensed to atoms (all electrons):
               1          2          3          4          5          6
     1  O    7.908212   0.386426  -0.117736   0.005086  -0.000015   0.000003
     2  C    0.386426   4.439577   0.281566  -0.017350   0.006647   0.001444
     3  C   -0.117736   0.281566   5.121920   0.206562  -0.036251   0.011750
     4  N    0.005086  -0.017350   0.206562   6.673661   0.431300  -0.113801
     5  C   -0.000015   0.006647  -0.036251   0.431300   4.238117   0.336476
     6  O    0.000003   0.001444   0.011750  -0.113801   0.336476   8.096273
     7  C   -0.000002  -0.000112  -0.003028   0.009356  -0.043788   0.167127
     8  C   -0.000000  -0.000097  -0.001773   0.000853   0.001990  -0.062189
     9  C    0.000000   0.000020   0.000752  -0.002034  -0.008748  -0.037274
    10  C    0.000000   0.000020   0.000750  -0.002032  -0.008749  -0.037261
    11  O    0.000001   0.000066   0.003826  -0.098880   0.630157  -0.082788
    12  O   -0.079241   0.631329  -0.093153  -0.003757   0.001661  -0.000093
    13  H    0.291340  -0.025821   0.018611  -0.000650   0.000002   0.000004
    14  H    0.003824  -0.021743   0.409205  -0.042578  -0.004113   0.003300
    15  H    0.003838  -0.021798   0.409285  -0.042582  -0.004121   0.003308
    16  H    0.001027  -0.010296  -0.037380   0.368603  -0.025071   0.004305
    17  H   -0.000000  -0.000000  -0.000011  -0.000070  -0.000558  -0.000844
    18  H   -0.000000   0.000003   0.000041  -0.000003   0.000217   0.006028
    19  H   -0.000000  -0.000000  -0.000012  -0.000070  -0.000559  -0.000845
    20  H   -0.000000  -0.000000  -0.000014   0.000022   0.001747   0.004905
    21  H   -0.000000  -0.000003  -0.000117   0.000390  -0.004005  -0.003305
    22  H   -0.000000   0.000006   0.000048   0.000038  -0.002179   0.001968
    23  H   -0.000000  -0.000000  -0.000014   0.000022   0.001746   0.004906
    24  H   -0.000000   0.000006   0.000048   0.000037  -0.002181   0.001969
    25  H   -0.000000  -0.000003  -0.000117   0.000390  -0.003994  -0.003311
               7          8          9         10         11         12
     1  O   -0.000002  -0.000000   0.000000   0.000000   0.000001  -0.079241
     2  C   -0.000112  -0.000097   0.000020   0.000020   0.000066   0.631329
     3  C   -0.003028  -0.001773   0.000752   0.000750   0.003826  -0.093153
     4  N    0.009356   0.000853  -0.002034  -0.002032  -0.098880  -0.003757
     5  C   -0.043788   0.001990  -0.008748  -0.008749   0.630157   0.001661
     6  O    0.167127  -0.062189  -0.037274  -0.037261  -0.082788  -0.000093
     7  C    5.066760   0.315671   0.294961   0.295011   0.044658  -0.000009
     8  C    0.315671   5.159972  -0.099450  -0.099460   0.001664  -0.000000
     9  C    0.294961  -0.099450   5.237375  -0.093414  -0.032719   0.000001
    10  C    0.295011  -0.099460  -0.093414   5.237303  -0.032714   0.000001
    11  O    0.044658   0.001664  -0.032719  -0.032714   7.959500   0.000010
    12  O   -0.000009  -0.000000   0.000001   0.000001   0.000010   7.855205
    13  H    0.000000   0.000000  -0.000000  -0.000000  -0.000001   0.005095
    14  H   -0.000221  -0.000025   0.000044  -0.000007   0.000243   0.001161
    15  H   -0.000223  -0.000026  -0.000007   0.000044   0.000244   0.001157
    16  H   -0.000362   0.000002   0.000119   0.000119   0.005323   0.019256
    17  H   -0.028596   0.403367   0.013717  -0.012992   0.000003   0.000000
    18  H   -0.028115   0.409482  -0.009137  -0.009141   0.000080  -0.000000
    19  H   -0.028590   0.403363  -0.012993   0.013718   0.000003   0.000000
    20  H   -0.023286  -0.012121   0.397134  -0.007188   0.000794   0.000000
    21  H   -0.023440   0.011692   0.407543  -0.010870   0.009650   0.000000
    22  H   -0.030945  -0.011105   0.395272   0.013545  -0.000178  -0.000000
    23  H   -0.023293  -0.012122  -0.007184   0.397144   0.000792   0.000000
    24  H   -0.030956  -0.011102   0.013547   0.395283  -0.000175  -0.000000
    25  H   -0.023431   0.011694  -0.010878   0.407524   0.009657   0.000000
              13         14         15         16         17         18
     1  O    0.291340   0.003824   0.003838   0.001027  -0.000000  -0.000000
     2  C   -0.025821  -0.021743  -0.021798  -0.010296  -0.000000   0.000003
     3  C    0.018611   0.409205   0.409285  -0.037380  -0.000011   0.000041
     4  N   -0.000650  -0.042578  -0.042582   0.368603  -0.000070  -0.000003
     5  C    0.000002  -0.004113  -0.004121  -0.025071  -0.000558   0.000217
     6  O    0.000004   0.003300   0.003308   0.004305  -0.000844   0.006028
     7  C    0.000000  -0.000221  -0.000223  -0.000362  -0.028596  -0.028115
     8  C    0.000000  -0.000025  -0.000026   0.000002   0.403367   0.409482
     9  C   -0.000000   0.000044  -0.000007   0.000119   0.013717  -0.009137
    10  C   -0.000000  -0.000007   0.000044   0.000119  -0.012992  -0.009141
    11  O   -0.000001   0.000243   0.000244   0.005323   0.000003   0.000080
    12  O    0.005095   0.001161   0.001157   0.019256   0.000000  -0.000000
    13  H    0.368128  -0.000598  -0.000596  -0.000193   0.000000   0.000000
    14  H   -0.000598   0.516005  -0.040616   0.002907   0.000192  -0.000001
    15  H   -0.000596  -0.040616   0.515936   0.002912  -0.000054  -0.000001
    16  H   -0.000193   0.002907   0.002912   0.393582  -0.000000  -0.000002
    17  H    0.000000   0.000192  -0.000054  -0.000000   0.518318  -0.023069
    18  H    0.000000  -0.000001  -0.000001  -0.000002  -0.023069   0.527905
    19  H    0.000000  -0.000054   0.000192  -0.000000  -0.022330  -0.023068
    20  H   -0.000000  -0.000004   0.000010  -0.000002  -0.000096   0.001472
    21  H    0.000000  -0.000017   0.000036   0.000000  -0.000353  -0.000071
    22  H    0.000000  -0.000004   0.000037  -0.000010  -0.000324   0.000712
    23  H   -0.000000   0.000010  -0.000004  -0.000002   0.000646   0.001472
    24  H    0.000000   0.000037  -0.000004  -0.000010   0.002843   0.000712
    25  H    0.000000   0.000036  -0.000018   0.000000  -0.000123  -0.000070
              19         20         21         22         23         24
     1  O   -0.000000  -0.000000  -0.000000  -0.000000  -0.000000  -0.000000
     2  C   -0.000000  -0.000000  -0.000003   0.000006  -0.000000   0.000006
     3  C   -0.000012  -0.000014  -0.000117   0.000048  -0.000014   0.000048
     4  N   -0.000070   0.000022   0.000390   0.000038   0.000022   0.000037
     5  C   -0.000559   0.001747  -0.004005  -0.002179   0.001746  -0.002181
     6  O   -0.000845   0.004905  -0.003305   0.001968   0.004906   0.001969
     7  C   -0.028590  -0.023286  -0.023440  -0.030945  -0.023293  -0.030956
     8  C    0.403363  -0.012121   0.011692  -0.011105  -0.012122  -0.011102
     9  C   -0.012993   0.397134   0.407543   0.395272  -0.007184   0.013547
    10  C    0.013718  -0.007188  -0.010870   0.013545   0.397144   0.395283
    11  O    0.000003   0.000794   0.009650  -0.000178   0.000792  -0.000175
    12  O    0.000000   0.000000   0.000000  -0.000000   0.000000  -0.000000
    13  H    0.000000  -0.000000   0.000000   0.000000  -0.000000   0.000000
    14  H   -0.000054  -0.000004  -0.000017  -0.000004   0.000010   0.000037
    15  H    0.000192   0.000010   0.000036   0.000037  -0.000004  -0.000004
    16  H   -0.000000  -0.000002   0.000000  -0.000010  -0.000002  -0.000010
    17  H   -0.022330  -0.000096  -0.000353  -0.000324   0.000646   0.002843
    18  H   -0.023068   0.001472  -0.000071   0.000712   0.001472   0.000712
    19  H    0.518319   0.000646  -0.000123   0.002843  -0.000096  -0.000324
    20  H    0.000646   0.530654  -0.018516  -0.022152  -0.000077  -0.000119
    21  H   -0.000123  -0.018516   0.461152  -0.020726   0.000391  -0.000097
    22  H    0.002843  -0.022152  -0.020726   0.526669  -0.000119  -0.000516
    23  H   -0.000096  -0.000077   0.000391  -0.000119   0.530641  -0.022150
    24  H   -0.000324  -0.000119  -0.000097  -0.000516  -0.022150   0.526663
    25  H   -0.000353   0.000391   0.002244  -0.000097  -0.018517  -0.020730
              25
     1  O   -0.000000
     2  C   -0.000003
     3  C   -0.000117
     4  N    0.000390
     5  C   -0.003994
     6  O   -0.003311
     7  C   -0.023431
     8  C    0.011694
     9  C   -0.010878
    10  C    0.407524
    11  O    0.009657
    12  O    0.000000
    13  H    0.000000
    14  H    0.000036
    15  H   -0.000018
    16  H    0.000000
    17  H   -0.000123
    18  H   -0.000070
    19  H   -0.000353
    20  H    0.000391
    21  H    0.002244
    22  H   -0.000097
    23  H   -0.018517
    24  H   -0.020730
    25  H    0.461185
 Mulliken charges:
               1
     1  O   -0.402765
     2  C    0.350114
     3  C   -0.174760
     4  N   -0.372513
     5  C    0.494274
     6  O   -0.302056
     7  C    0.094852
     8  C   -0.410281
     9  C   -0.446647
    10  C   -0.446635
    11  O   -0.419215
    12  O   -0.338621
    13  H    0.344678
    14  H    0.173017
    15  H    0.173052
    16  H    0.275173
    17  H    0.150335
    18  H    0.144553
    19  H    0.150334
    20  H    0.145801
    21  H    0.188545
    22  H    0.147217
    23  H    0.145808
    24  H    0.147221
    25  H    0.188520
 Sum of Mulliken charges =  -0.00000
 Mulliken charges with hydrogens summed into heavy atoms:
               1
     1  O   -0.058087
     2  C    0.350114
     3  C    0.171308
     4  N   -0.097341
     5  C    0.494274
     6  O   -0.302056
     7  C    0.094852
     8  C    0.034941
     9  C    0.034917
    10  C    0.034914
    11  O   -0.419215
    12  O   -0.338621
 Electronic spatial extent (au):  <R**2>=           2946.2677
 Charge=              0.0000 electrons
 Dipole moment (field-independent basis, Debye):
    X=             -0.6833    Y=              3.7553    Z=             -0.0013  Tot=              3.8170
 Quadrupole moment (field-independent basis, Debye-Ang):
   XX=            -60.3802   YY=            -80.4198   ZZ=            -71.1826
   XY=             -2.3701   XZ=              0.0006   YZ=              0.0029
 Traceless Quadrupole moment (field-independent basis, Debye-Ang):
   XX=             10.2807   YY=             -9.7589   ZZ=             -0.5217
   XY=             -2.3701   XZ=              0.0006   YZ=              0.0029
 Octapole moment (field-independent basis, Debye-Ang**2):
  XXX=            -59.9616  YYY=              6.8651  ZZZ=             -0.0012  XYY=             -8.0775
  XXY=             36.0546  XXZ=              0.0129  XZZ=             -9.9714  YZZ=              0.6831
  YYZ=              0.0000  XYZ=             -0.0085
 Hexadecapole moment (field-independent basis, Debye-Ang**3):
 XXXX=          -2462.8348 YYYY=           -631.1353 ZZZZ=           -258.1596 XXXY=           -179.0304
 XXXZ=             -0.1067 YYYX=             11.9255 YYYZ=              0.0050 ZZZX=             -0.0122
 ZZZY=             -0.0039 XXYY=           -617.4068 XXZZ=           -534.2453 YYZZ=           -140.0089
 XXYZ=              0.0487 YYXZ=             -0.0102 ZZXY=             -6.0638
 N-N= 7.477543294848D+02 E-N=-2.970162398253D+03  KE= 6.271354033068D+02
 Unable to Open any file for archive entry.
 1\1\GINC-NOTCH212\SP\RM062X\def2TZVP\C7H13N1O4\U6032257\05-Feb-2022\0\
 \# M062X/def2tzvp int=(grid=ultrafine) nmr=giao guess=read geom=check\
 \Ac2.xyz\\0,1\O,0,4.7086494659,0.4789930996,1.1034677623\C,0,3.9507694
 793,-0.4947777095,0.5615636705\C,0,2.9009664946,0.0784086936,-0.364418
 7191\N,0,2.1228791577,-1.0004237581,-0.914839\C,0,1.0875887354,-0.8558
 171391,-1.7902741258\O,0,0.9026222004,0.4601912303,-2.0641703122\C,0,-
 0.1579515327,0.8863319507,-2.9867817986\C,0,-0.0005738027,2.4061028013
 ,-2.9942382237\C,0,0.0976994437,0.3052719399,-4.3783498035\C,0,-1.5247
 458845,0.4828448063,-2.4313284925\O,0,0.4452781969,-1.7889970643,-2.24
 09038525\O,0,4.1037044096,-1.6731710435,0.7952892625\H,0,5.3548158852,
 0.0385080313,1.68098651\H,0,2.2867869788,0.7883788225,0.2040416697\H,0
 ,3.4064222316,0.6668699194,-1.140704042\H,0,2.360398645,-1.9404703094,
 -0.6314905503\H,0,-0.1385445509,2.812081789,-1.9882102395\H,0,-0.74551
 87042,2.8565223307,-3.6560559067\H,0,0.9949115093,2.6880368698,-3.3484
 557299\H,0,-0.6290443098,0.7164352489,-5.0857755323\H,0,0.0082195667,-
 0.7805262932,-4.3670622481\H,0,1.1002990085,0.5771875788,-4.7222755531
 \H,0,-2.3144590178,0.9009521481,-3.0631541924\H,0,-1.6522248893,0.8784
 042804,-1.4190486295\H,0,-1.6271487165,-0.6015382235,-2.4046119235\\Ve
 rsion=ES64L-G16RevC.01\State=1-A\HF=-630.2678148\RMSD=1.852e-09\Dipole
 =0.5046949,1.3832269,0.295152\Quadrupole=4.2726506,-7.2810172,3.008366
 6,-1.4501849,4.013672,-0.5833964\PG=C01 [X(C7H13N1O4)]\\@
 The archive entry for this job was punched.


 FROM WHENCE IT HAPPENS, THAT THEY WHICH TRUST TO BOOKS, DO AS THEY THAT CAST UP MANY LITTLE SUMMS INTO GREATER,
 WITHOUT CONSIDERING WETHER THOSE LITTLE SUMMES WERE RIGHTLY CAST UP OR NOT...
 AND AT LAST FINDING THE ERROUR VISIBLE, AND NOT MISTRUSTING THEIR FIRST GROUNDS,
 KNOW NOT WHICH WAY TO CLEERE THEMSELVES...
 BUT SPEND TIME IN FLUTTERING OVER THEIR BOOKES....
 AS BIRDS THAT ENTERING BY THE CHIMNEY, AND FINDING THEMSELVES INCLOSED IN A CHAMBER,
 FLUTTER AT THE FALSE LIGHT OF A GLASSE WINDOW,
 FOR WANT OF WIT TO CONSIDER WHICH WAY THEY CAME IN....
           LEVIATHAN
 Job cpu time:       0 days  0 hours 35 minutes  1.1 seconds.
 Elapsed time:       0 days  0 hours  0 minutes 47.4 seconds.
 File lengths (MBytes):  RWF=    117 Int=      0 D2E=      0 Chk=     20 Scr=      1
 Normal termination of Gaussian 16 at Sat Feb  5 09:16:55 2022.
