 Entering Gaussian System, Link 0=/uufs/chpc.utah.edu/sys/installdir/gaussian16/C01/AVX2/g16/g16
 Input=Ac2_conf-3.com
 Output=Ac2_conf-3.log
 Initial command:
 /uufs/chpc.utah.edu/sys/installdir/gaussian16/C01/AVX2/g16/l1.exe "/scratch/general/lustre/u6032257/3867920/notchpeak.peaks/Gau-29032.inp" -scrdir="/scratch/general/lustre/u6032257/3867920/notchpeak.peaks/"
 Entering Link 1 = /uufs/chpc.utah.edu/sys/installdir/gaussian16/C01/AVX2/g16/l1.exe PID=     29034.
  
 Copyright (c) 1988-2019, Gaussian, Inc.  All Rights Reserved.
  
 This is part of the Gaussian(R) 16 program.  It is based on
 the Gaussian(R) 09 system (copyright 2009, Gaussian, Inc.),
 the Gaussian(R) 03 system (copyright 2003, Gaussian, Inc.),
 the Gaussian(R) 98 system (copyright 1998, Gaussian, Inc.),
 the Gaussian(R) 94 system (copyright 1995, Gaussian, Inc.),
 the Gaussian 92(TM) system (copyright 1992, Gaussian, Inc.),
 the Gaussian 90(TM) system (copyright 1990, Gaussian, Inc.),
 the Gaussian 88(TM) system (copyright 1988, Gaussian, Inc.),
 the Gaussian 86(TM) system (copyright 1986, Carnegie Mellon
 University), and the Gaussian 82(TM) system (copyright 1983,
 Carnegie Mellon University). Gaussian is a federally registered
 trademark of Gaussian, Inc.
  
 This software contains proprietary and confidential information,
 including trade secrets, belonging to Gaussian, Inc.
  
 This software is provided under written license and may be
 used, copied, transmitted, or stored only in accord with that
 written license.
  
 The following legend is applicable only to US Government
 contracts under FAR:
  
                    RESTRICTED RIGHTS LEGEND
  
 Use, reproduction and disclosure by the US Government is
 subject to restrictions as set forth in subparagraphs (a)
 and (c) of the Commercial Computer Software - Restricted
 Rights clause in FAR 52.227-19.
  
 Gaussian, Inc.
 340 Quinnipiac St., Bldg. 40, Wallingford CT 06492
  
  
 ---------------------------------------------------------------
 Warning -- This program may not be used in any manner that
 competes with the business of Gaussian, Inc. or will provide
 assistance to any competitor of Gaussian, Inc.  The licensee
 of this program is prohibited from giving any competitor of
 Gaussian, Inc. access to this program.  By using this program,
 the user acknowledges that Gaussian, Inc. is engaged in the
 business of creating and licensing software in the field of
 computational chemistry and represents and warrants to the
 licensee that it is not a competitor of Gaussian, Inc. and that
 it will not use this program in any manner prohibited above.
 ---------------------------------------------------------------
  

 Cite this work as:
 Gaussian 16, Revision C.01,
 M. J. Frisch, G. W. Trucks, H. B. Schlegel, G. E. Scuseria, 
 M. A. Robb, J. R. Cheeseman, G. Scalmani, V. Barone, 
 G. A. Petersson, H. Nakatsuji, X. Li, M. Caricato, A. V. Marenich, 
 J. Bloino, B. G. Janesko, R. Gomperts, B. Mennucci, H. P. Hratchian, 
 J. V. Ortiz, A. F. Izmaylov, J. L. Sonnenberg, D. Williams-Young, 
 F. Ding, F. Lipparini, F. Egidi, J. Goings, B. Peng, A. Petrone, 
 T. Henderson, D. Ranasinghe, V. G. Zakrzewski, J. Gao, N. Rega, 
 G. Zheng, W. Liang, M. Hada, M. Ehara, K. Toyota, R. Fukuda, 
 J. Hasegawa, M. Ishida, T. Nakajima, Y. Honda, O. Kitao, H. Nakai, 
 T. Vreven, K. Throssell, J. A. Montgomery, Jr., J. E. Peralta, 
 F. Ogliaro, M. J. Bearpark, J. J. Heyd, E. N. Brothers, K. N. Kudin, 
 V. N. Staroverov, T. A. Keith, R. Kobayashi, J. Normand, 
 K. Raghavachari, A. P. Rendell, J. C. Burant, S. S. Iyengar, 
 J. Tomasi, M. Cossi, J. M. Millam, M. Klene, C. Adamo, R. Cammi, 
 J. W. Ochterski, R. L. Martin, K. Morokuma, O. Farkas, 
 J. B. Foresman, and D. J. Fox, Gaussian, Inc., Wallingford CT, 2019.
 
 ******************************************
 Gaussian 16:  ES64L-G16RevC.01  3-Jul-2019
                 5-Feb-2022 
 ******************************************
 %NProcShared=52
 Will use up to   52 processors via shared memory.
 %mem=16GB
 %chk=Ac2_conf-3.chk
 ----------------------------------------------------------------------
 # B3LYP/6-31G(d,p) empiricaldispersion=GD3BJ int=(grid=ultrafine) opt 
 freq=noraman
 ----------------------------------------------------------------------
 1/18=20,19=15,26=4,38=1/1,3;
 2/9=110,12=2,17=6,18=5,40=1/2;
 3/5=1,6=6,7=101,11=2,25=1,30=1,71=1,74=-5,75=-5,124=41/1,2,3;
 4//1;
 5/5=2,38=5/2;
 6/7=2,8=2,9=2,10=2,28=1/1;
 7//1,2,3,16;
 1/18=20,19=15,26=4/3(2);
 2/9=110/2;
 99//99;
 2/9=110/2;
 3/5=1,6=6,7=101,11=2,25=1,30=1,71=1,74=-5,75=-5,124=41/1,2,3;
 4/5=5,16=3,69=1/1;
 5/5=2,38=5/2;
 7//1,2,3,16;
 1/18=20,19=15,26=4/3(-5);
 2/9=110/2;
 6/7=2,8=2,9=2,10=2,19=2,28=1/1;
 99/9=1/99;
 -------
 Ac2.xyz
 -------
 Symbolic Z-matrix:
 Charge =  0 Multiplicity = 1
 O                     4.343     0.3599    0.2201 
 C                     3.8794   -0.8364    0.6583 
 C                     2.358    -0.8591    0.8877 
 N                     1.6482    0.0661   -0.0204 
 C                     1.1056   -0.3297   -1.2242 
 O                     0.6207    0.7609   -1.8512 
 C                    -0.0088    0.7484   -3.1376 
 C                    -1.3042   -0.0894   -3.1306 
 C                    -0.3645    2.2222   -3.3867 
 C                     0.9578    0.2691   -4.2404 
 O                     1.0702   -1.4802   -1.6509 
 O                     4.6008   -1.7721    0.9016 
 H                     5.2864    0.2259    0.1191 
 H                     2.0064   -1.8885    0.7836 
 H                     2.1801   -0.5696    1.9221 
 H                     1.6617    1.0562    0.1595 
 H                    -1.8511    0.0128   -4.0676 
 H                    -1.9676    0.2174   -2.3221 
 H                    -1.0986   -1.1509   -2.9911 
 H                     0.5261    2.8515   -3.3795 
 H                    -0.8581    2.3593   -4.349 
 H                    -1.0331    2.6047   -2.6148 
 H                     1.2129   -0.7844   -4.1247 
 H                     1.8923    0.8294   -4.2158 
 H                     0.523     0.3888   -5.2326 
 

 GradGradGradGradGradGradGradGradGradGradGradGradGradGradGradGradGradGrad
 Berny optimization.
 Initialization pass.
                           ----------------------------
                           !    Initial Parameters    !
                           ! (Angstroms and Degrees)  !
 --------------------------                            --------------------------
 ! Name  Definition              Value          Derivative Info.                !
 --------------------------------------------------------------------------------
 ! R1    R(1,2)                  1.3558         estimate D2E/DX2                !
 ! R2    R(1,13)                 0.9582         estimate D2E/DX2                !
 ! R3    R(2,3)                  1.5388         estimate D2E/DX2                !
 ! R4    R(2,12)                 1.2063         estimate D2E/DX2                !
 ! R5    R(3,4)                  1.478          estimate D2E/DX2                !
 ! R6    R(3,14)                 1.0928         estimate D2E/DX2                !
 ! R7    R(3,15)                 1.0888         estimate D2E/DX2                !
 ! R8    R(4,5)                  1.3785         estimate D2E/DX2                !
 ! R9    R(4,16)                 1.0064         estimate D2E/DX2                !
 ! R10   R(5,6)                  1.3482         estimate D2E/DX2                !
 ! R11   R(5,11)                 1.2276         estimate D2E/DX2                !
 ! R12   R(6,7)                  1.4322         estimate D2E/DX2                !
 ! R13   R(7,8)                  1.5427         estimate D2E/DX2                !
 ! R14   R(7,9)                  1.5364         estimate D2E/DX2                !
 ! R15   R(7,10)                 1.5428         estimate D2E/DX2                !
 ! R16   R(8,17)                 1.0897         estimate D2E/DX2                !
 ! R17   R(8,18)                 1.0899         estimate D2E/DX2                !
 ! R18   R(8,19)                 1.0902         estimate D2E/DX2                !
 ! R19   R(9,20)                 1.0905         estimate D2E/DX2                !
 ! R20   R(9,21)                 1.0902         estimate D2E/DX2                !
 ! R21   R(9,22)                 1.0905         estimate D2E/DX2                !
 ! R22   R(10,23)                1.0901         estimate D2E/DX2                !
 ! R23   R(10,24)                1.0899         estimate D2E/DX2                !
 ! R24   R(10,25)                1.0899         estimate D2E/DX2                !
 ! A1    A(2,1,13)             104.32           estimate D2E/DX2                !
 ! A2    A(1,2,3)              113.5339         estimate D2E/DX2                !
 ! A3    A(1,2,12)             123.0345         estimate D2E/DX2                !
 ! A4    A(3,2,12)             123.3512         estimate D2E/DX2                !
 ! A5    A(2,3,4)              111.9622         estimate D2E/DX2                !
 ! A6    A(2,3,14)             108.531          estimate D2E/DX2                !
 ! A7    A(2,3,15)             107.4133         estimate D2E/DX2                !
 ! A8    A(4,3,14)             112.1255         estimate D2E/DX2                !
 ! A9    A(4,3,15)             109.8046         estimate D2E/DX2                !
 ! A10   A(14,3,15)            106.7628         estimate D2E/DX2                !
 ! A11   A(3,4,5)              123.0831         estimate D2E/DX2                !
 ! A12   A(3,4,16)             119.9718         estimate D2E/DX2                !
 ! A13   A(5,4,16)             116.3505         estimate D2E/DX2                !
 ! A14   A(4,5,6)              108.3871         estimate D2E/DX2                !
 ! A15   A(4,5,11)             125.7319         estimate D2E/DX2                !
 ! A16   A(6,5,11)             125.881          estimate D2E/DX2                !
 ! A17   A(5,6,7)              124.662          estimate D2E/DX2                !
 ! A18   A(6,7,8)              111.6988         estimate D2E/DX2                !
 ! A19   A(6,7,9)              103.8277         estimate D2E/DX2                !
 ! A20   A(6,7,10)             111.6765         estimate D2E/DX2                !
 ! A21   A(8,7,9)              109.1028         estimate D2E/DX2                !
 ! A22   A(8,7,10)             111.1377         estimate D2E/DX2                !
 ! A23   A(9,7,10)             109.0965         estimate D2E/DX2                !
 ! A24   A(7,8,17)             111.5046         estimate D2E/DX2                !
 ! A25   A(7,8,18)             111.1979         estimate D2E/DX2                !
 ! A26   A(7,8,19)             111.7771         estimate D2E/DX2                !
 ! A27   A(17,8,18)            107.8162         estimate D2E/DX2                !
 ! A28   A(17,8,19)            107.2169         estimate D2E/DX2                !
 ! A29   A(18,8,19)            107.0948         estimate D2E/DX2                !
 ! A30   A(7,9,20)             111.309          estimate D2E/DX2                !
 ! A31   A(7,9,21)             111.6272         estimate D2E/DX2                !
 ! A32   A(7,9,22)             111.3239         estimate D2E/DX2                !
 ! A33   A(20,9,21)            107.6394         estimate D2E/DX2                !
 ! A34   A(20,9,22)            107.0757         estimate D2E/DX2                !
 ! A35   A(21,9,22)            107.6444         estimate D2E/DX2                !
 ! A36   A(7,10,23)            111.7765         estimate D2E/DX2                !
 ! A37   A(7,10,24)            111.1836         estimate D2E/DX2                !
 ! A38   A(7,10,25)            111.5106         estimate D2E/DX2                !
 ! A39   A(23,10,24)           107.0847         estimate D2E/DX2                !
 ! A40   A(23,10,25)           107.2249         estimate D2E/DX2                !
 ! A41   A(24,10,25)           107.8276         estimate D2E/DX2                !
 ! D1    D(13,1,2,3)          -179.7312         estimate D2E/DX2                !
 ! D2    D(13,1,2,12)            3.4328         estimate D2E/DX2                !
 ! D3    D(1,2,3,4)             30.0421         estimate D2E/DX2                !
 ! D4    D(1,2,3,14)           154.3393         estimate D2E/DX2                !
 ! D5    D(1,2,3,15)           -90.5783         estimate D2E/DX2                !
 ! D6    D(12,2,3,4)          -153.1334         estimate D2E/DX2                !
 ! D7    D(12,2,3,14)          -28.8361         estimate D2E/DX2                !
 ! D8    D(12,2,3,15)           86.2463         estimate D2E/DX2                !
 ! D9    D(2,3,4,5)             94.3603         estimate D2E/DX2                !
 ! D10   D(2,3,4,16)           -76.4697         estimate D2E/DX2                !
 ! D11   D(14,3,4,5)           -27.9079         estimate D2E/DX2                !
 ! D12   D(14,3,4,16)          161.2621         estimate D2E/DX2                !
 ! D13   D(15,3,4,5)          -146.4185         estimate D2E/DX2                !
 ! D14   D(15,3,4,16)           42.7515         estimate D2E/DX2                !
 ! D15   D(3,4,5,6)           -175.5078         estimate D2E/DX2                !
 ! D16   D(3,4,5,11)             4.5256         estimate D2E/DX2                !
 ! D17   D(16,4,5,6)            -4.3701         estimate D2E/DX2                !
 ! D18   D(16,4,5,11)          175.6633         estimate D2E/DX2                !
 ! D19   D(4,5,6,7)            179.3818         estimate D2E/DX2                !
 ! D20   D(11,5,6,7)            -0.6517         estimate D2E/DX2                !
 ! D21   D(5,6,7,8)             62.7704         estimate D2E/DX2                !
 ! D22   D(5,6,7,9)           -179.7987         estimate D2E/DX2                !
 ! D23   D(5,6,7,10)           -62.386          estimate D2E/DX2                !
 ! D24   D(6,7,8,17)           172.2349         estimate D2E/DX2                !
 ! D25   D(6,7,8,18)            51.8684         estimate D2E/DX2                !
 ! D26   D(6,7,8,19)           -67.7657         estimate D2E/DX2                !
 ! D27   D(9,7,8,17)            58.0278         estimate D2E/DX2                !
 ! D28   D(9,7,8,18)           -62.3387         estimate D2E/DX2                !
 ! D29   D(9,7,8,19)           178.0272         estimate D2E/DX2                !
 ! D30   D(10,7,8,17)          -62.3103         estimate D2E/DX2                !
 ! D31   D(10,7,8,18)          177.3231         estimate D2E/DX2                !
 ! D32   D(10,7,8,19)           57.689          estimate D2E/DX2                !
 ! D33   D(6,7,9,20)            59.6738         estimate D2E/DX2                !
 ! D34   D(6,7,9,21)           179.9751         estimate D2E/DX2                !
 ! D35   D(6,7,9,22)           -59.7071         estimate D2E/DX2                !
 ! D36   D(8,7,9,20)           178.8959         estimate D2E/DX2                !
 ! D37   D(8,7,9,21)           -60.8028         estimate D2E/DX2                !
 ! D38   D(8,7,9,22)            59.515          estimate D2E/DX2                !
 ! D39   D(10,7,9,20)          -59.5196         estimate D2E/DX2                !
 ! D40   D(10,7,9,21)           60.7817         estimate D2E/DX2                !
 ! D41   D(10,7,9,22)         -178.9005         estimate D2E/DX2                !
 ! D42   D(6,7,10,23)           67.7485         estimate D2E/DX2                !
 ! D43   D(6,7,10,24)          -51.8626         estimate D2E/DX2                !
 ! D44   D(6,7,10,25)         -172.238          estimate D2E/DX2                !
 ! D45   D(8,7,10,23)          -57.7186         estimate D2E/DX2                !
 ! D46   D(8,7,10,24)         -177.3297         estimate D2E/DX2                !
 ! D47   D(8,7,10,25)           62.2949         estimate D2E/DX2                !
 ! D48   D(9,7,10,23)         -178.0605         estimate D2E/DX2                !
 ! D49   D(9,7,10,24)           62.3284         estimate D2E/DX2                !
 ! D50   D(9,7,10,25)          -58.047          estimate D2E/DX2                !
 --------------------------------------------------------------------------------
 Trust Radius=3.00D-01 FncErr=1.00D-07 GrdErr=1.00D-06 EigMax=2.50D+02 EigMin=1.00D-04
 Number of steps in this run=    125 maximum allowed number of steps=    150.
 GradGradGradGradGradGradGradGradGradGradGradGradGradGradGradGradGradGrad

                          Input orientation:                          
 ---------------------------------------------------------------------
 Center     Atomic      Atomic             Coordinates (Angstroms)
 Number     Number       Type             X           Y           Z
 ---------------------------------------------------------------------
      1          8           0        4.343000    0.359900    0.220100
      2          6           0        3.879400   -0.836400    0.658300
      3          6           0        2.358000   -0.859100    0.887700
      4          7           0        1.648200    0.066100   -0.020400
      5          6           0        1.105600   -0.329700   -1.224200
      6          8           0        0.620700    0.760900   -1.851200
      7          6           0       -0.008800    0.748400   -3.137600
      8          6           0       -1.304200   -0.089400   -3.130600
      9          6           0       -0.364500    2.222200   -3.386700
     10          6           0        0.957800    0.269100   -4.240400
     11          8           0        1.070200   -1.480200   -1.650900
     12          8           0        4.600800   -1.772100    0.901600
     13          1           0        5.286400    0.225900    0.119100
     14          1           0        2.006400   -1.888500    0.783600
     15          1           0        2.180100   -0.569600    1.922100
     16          1           0        1.661700    1.056200    0.159500
     17          1           0       -1.851100    0.012800   -4.067600
     18          1           0       -1.967600    0.217400   -2.322100
     19          1           0       -1.098600   -1.150900   -2.991100
     20          1           0        0.526100    2.851500   -3.379500
     21          1           0       -0.858100    2.359300   -4.349000
     22          1           0       -1.033100    2.604700   -2.614800
     23          1           0        1.212900   -0.784400   -4.124700
     24          1           0        1.892300    0.829400   -4.215800
     25          1           0        0.523000    0.388800   -5.232600
 ---------------------------------------------------------------------
                    Distance matrix (angstroms):
                    1          2          3          4          5
     1  O    0.000000
     2  C    1.355757   0.000000
     3  C    2.423195   1.538765   0.000000
     4  N    2.721416   2.500679   1.477991   0.000000
     5  C    3.611414   3.390357   2.511751   1.378480   0.000000
     6  O    4.278622   4.412265   3.625491   2.211409   1.348208
     7  C    5.510285   5.660260   4.938506   3.595569   2.462780
     8  C    6.581788   6.464014   5.490982   4.291176   3.082084
     9  C    6.215925   6.612696   5.931013   4.475679   3.653737
    10  C    5.600347   5.809917   5.434225   4.280918   3.078615
    11  O    4.194977   3.693032   2.913535   2.320271   1.227590
    12  O    2.253071   1.206295   2.421552   3.598181   4.337737
    13  H    0.958207   1.843602   3.216131   3.644379   4.426312
    14  H    3.291282   2.151916   1.092760   2.143638   2.696768
    15  H    2.904980   2.134477   1.088780   2.111951   3.333363
    16  H    2.770898   2.957859   2.164136   1.006402   2.035827
    17  H    7.541334   7.476222   6.559858   5.350492   4.116346
    18  H    6.804907   6.646855   5.492949   4.288907   3.308967
    19  H    6.496563   6.180414   5.203683   4.225051   2.941905
    20  H    5.808091   6.414753   5.944191   4.505676   3.886023
    21  H    7.205950   7.597990   6.937177   5.502462   4.566313
    22  H    6.479061   6.832789   5.980383   4.512734   3.888253
    23  H    5.475786   5.476314   5.142080   4.214038   2.937885
    24  H    5.089555   5.520897   5.395704   4.271252   3.303344
    25  H    6.657715   6.889792   6.510188   5.342026   4.113750
                    6          7          8          9         10
     6  O    0.000000
     7  C    1.432219   0.000000
     8  C    2.462745   1.542731   0.000000
     9  C    2.337472   1.536444   2.508409   0.000000
    10  C    2.462474   1.542794   2.544960   2.508362   0.000000
    11  O    2.294493   2.888109   3.124358   4.333490   3.127010
    12  O    5.462160   6.626950   7.345689   7.681026   6.624055
    13  H    5.092844   6.238449   7.354996   6.943235   6.143605
    14  H    3.985180   5.137128   5.433028   6.317470   5.567349
    15  H    4.294153   5.668242   6.156356   6.515558   6.338284
    16  H    2.283374   3.708932   4.575338   4.247420   4.524834
    17  H    3.403216   2.190908   1.089731   2.748646   2.825857
    18  H    2.686342   2.187213   1.089907   2.778943   3.498644
    19  H    2.812533   2.194645   1.090190   3.474652   2.793910
    20  H    2.591382   2.183498   3.472872   1.090522   2.756139
    21  H    3.313719   2.187190   2.771216   1.090165   2.770961
    22  H    2.591860   2.183657   2.756396   1.090487   3.472936
    23  H    2.812020   2.194628   2.794110   3.474547   1.090103
    24  H    2.685701   2.187066   3.498495   2.778569   1.089877
    25  H    3.403215   2.191152   2.825905   2.748883   1.089881
                   11         12         13         14         15
    11  O    0.000000
    12  O    4.366417   0.000000
    13  H    4.880576   2.252633   0.000000
    14  H    2.640070   2.599689   3.958617   0.000000
    15  H    3.850636   2.889155   3.678686   1.750957   0.000000
    16  H    3.171868   4.145878   3.718801   3.029782   2.453309
    17  H    4.074737   8.337016   8.277546   6.483008   7.243360
    18  H    3.544091   7.582495   7.653760   5.465607   5.986319
    19  H    2.570655   6.929803   7.234442   4.943019   5.935261
    20  H    4.695501   7.503911   6.464861   6.479991   6.522776
    21  H    5.073445   8.627680   7.891147   7.252086   7.558823
    22  H    4.694612   7.953759   7.284846   6.401291   6.401898
    23  H    2.573750   6.141426   5.968580   5.093141   6.127431
    24  H    3.548072   6.347563   5.538545   5.691573   6.301892
    25  H    4.076906   7.676350   7.166394   6.601608   7.406365
                   16         17         18         19         20
    16  H    0.000000
    17  H    5.594356   0.000000
    18  H    4.475907   1.761307   0.000000
    19  H    4.734641   1.754795   1.753558   0.000000
    20  H    4.127616   3.766003   3.778243   4.337016   0.000000
    21  H    5.326728   2.563454   3.150722   3.771371   1.760171
    22  H    4.166118   3.081833   2.580342   3.774973   1.754076
    23  H    4.684400   3.166526   3.790587   2.600462   3.774492
    24  H    4.387239   3.834298   4.342749   3.790377   2.579688
    25  H    5.551288   2.671133   3.834511   3.166162   3.082025
                   21         22         23         24         25
    21  H    0.000000
    22  H    1.760198   0.000000
    23  H    3.771233   4.337086   0.000000
    24  H    3.150085   3.777943   1.753349   0.000000
    25  H    2.563407   3.766236   1.754937   1.761531   0.000000
 Stoichiometry    C7H13NO4
 Framework group  C1[X(C7H13NO4)]
 Deg. of freedom    69
 Full point group                 C1      NOp   1
 Largest Abelian subgroup         C1      NOp   1
 Largest concise Abelian subgroup C1      NOp   1
                         Standard orientation:                         
 ---------------------------------------------------------------------
 Center     Atomic      Atomic             Coordinates (Angstroms)
 Number     Number       Type             X           Y           Z
 ---------------------------------------------------------------------
      1          8           0       -2.899240    1.483863    0.078707
      2          6           0       -3.205004    0.163567    0.116157
      3          6           0       -2.324735   -0.697388   -0.806708
      4          7           0       -0.972269   -0.124836   -0.972473
      5          6           0        0.104464   -0.501864   -0.198714
      6          8           0        1.158226    0.270682   -0.531015
      7          6           0        2.455041    0.181999    0.070366
      8          6           0        3.108081   -1.192698   -0.182155
      9          6           0        3.269736    1.265999   -0.652045
     10          6           0        2.407556    0.506888    1.577815
     11          8           0        0.102555   -1.390664    0.648048
     12          8           0       -4.119034   -0.281605    0.765401
     13          1           0       -3.513433    1.886918    0.693909
     14          1           0       -2.295082   -1.714593   -0.408537
     15          1           0       -2.822823   -0.752922   -1.773282
     16          1           0       -0.832436    0.667790   -1.576655
     17          1           0        4.143593   -1.211342    0.156785
     18          1           0        3.099731   -1.444136   -1.242630
     19          1           0        2.582905   -1.992152    0.340890
     20          1           0        2.827218    2.252953   -0.512985
     21          1           0        4.295398    1.309163   -0.285148
     22          1           0        3.310371    1.081743   -1.726084
     23          1           0        1.866764   -0.255341    2.138954
     24          1           0        1.904366    1.456248    1.760426
     25          1           0        3.408414    0.572289    2.004248
 ---------------------------------------------------------------------
 Rotational constants (GHZ):           2.0682086           0.4106215           0.3967752
 Standard basis: 6-31G(d,p) (6D, 7F)
 There are   245 symmetry adapted cartesian basis functions of A   symmetry.
 There are   245 symmetry adapted basis functions of A   symmetry.
   245 basis functions,   427 primitive gaussians,   245 cartesian basis functions
    47 alpha electrons       47 beta electrons
       nuclear repulsion energy       746.2141337125 Hartrees.
 NAtoms=   25 NActive=   25 NUniq=   25 SFac= 1.00D+00 NAtFMM=   60 NAOKFM=F Big=F
 Integral buffers will be    131072 words long.
 Raffenetti 2 integral format.
 Two-electron integral symmetry is turned on.
 Nuclear repulsion after empirical dispersion term =      746.1761649101 Hartrees.
 One-electron integrals computed using PRISM.
 NBasis=   245 RedAO= T EigKep=  2.71D-03  NBF=   245
 NBsUse=   245 1.00D-06 EigRej= -1.00D+00 NBFU=   245
 ExpMin= 1.61D-01 ExpMax= 5.48D+03 ExpMxC= 8.25D+02 IAcc=3 IRadAn=         5 AccDes= 0.00D+00
 Harris functional with IExCor=  402 and IRadAn=       5 diagonalized for initial guess.
 HarFok:  IExCor=  402 AccDes= 0.00D+00 IRadAn=         5 IDoV= 1 UseB2=F ITyADJ=14
 ICtDFT=  3500011 ScaDFX=  1.000000  1.000000  1.000000  1.000000
 FoFCou: FMM=F IPFlag=           0 FMFlag=      100000 FMFlg1=           0
         NFxFlg=           0 DoJE=T BraDBF=F KetDBF=T FulRan=T
         wScrn=  0.000000 ICntrl=       500 IOpCl=  0 I1Cent=   200000004 NGrid=           0
         NMat0=    1 NMatS0=      1 NMatT0=    0 NMatD0=    1 NMtDS0=    0 NMtDT0=    0
 Petite list used in FoFCou.
 Requested convergence on RMS density matrix=1.00D-08 within 128 cycles.
 Requested convergence on MAX density matrix=1.00D-06.
 Requested convergence on             energy=1.00D-06.
 No special actions if energy rises.
 Integral accuracy reduced to 1.0D-05 until final iterations.
 Initial convergence to 1.0D-05 achieved.  Increase integral accuracy.
 SCF Done:  E(RB3LYP) =  -630.319493538     A.U. after   14 cycles
            NFock= 14  Conv=0.68D-08     -V/T= 2.0093

 **********************************************************************

            Population analysis using the SCF Density.

 **********************************************************************

 Orbital symmetries:
       Occupied  (A) (A) (A) (A) (A) (A) (A) (A) (A) (A) (A) (A)
                 (A) (A) (A) (A) (A) (A) (A) (A) (A) (A) (A) (A)
                 (A) (A) (A) (A) (A) (A) (A) (A) (A) (A) (A) (A)
                 (A) (A) (A) (A) (A) (A) (A) (A) (A) (A) (A)
       Virtual   (A) (A) (A) (A) (A) (A) (A) (A) (A) (A) (A) (A)
                 (A) (A) (A) (A) (A) (A) (A) (A) (A) (A) (A) (A)
                 (A) (A) (A) (A) (A) (A) (A) (A) (A) (A) (A) (A)
                 (A) (A) (A) (A) (A) (A) (A) (A) (A) (A) (A) (A)
                 (A) (A) (A) (A) (A) (A) (A) (A) (A) (A) (A) (A)
                 (A) (A) (A) (A) (A) (A) (A) (A) (A) (A) (A) (A)
                 (A) (A) (A) (A) (A) (A) (A) (A) (A) (A) (A) (A)
                 (A) (A) (A) (A) (A) (A) (A) (A) (A) (A) (A) (A)
                 (A) (A) (A) (A) (A) (A) (A) (A) (A) (A) (A) (A)
                 (A) (A) (A) (A) (A) (A) (A) (A) (A) (A) (A) (A)
                 (A) (A) (A) (A) (A) (A) (A) (A) (A) (A) (A) (A)
                 (A) (A) (A) (A) (A) (A) (A) (A) (A) (A) (A) (A)
                 (A) (A) (A) (A) (A) (A) (A) (A) (A) (A) (A) (A)
                 (A) (A) (A) (A) (A) (A) (A) (A) (A) (A) (A) (A)
                 (A) (A) (A) (A) (A) (A) (A) (A) (A) (A) (A) (A)
                 (A) (A) (A) (A) (A) (A) (A) (A) (A) (A) (A) (A)
                 (A) (A) (A) (A) (A) (A)
 The electronic state is 1-A.
 Alpha  occ. eigenvalues --  -19.20610 -19.18044 -19.14720 -19.11572 -14.36679
 Alpha  occ. eigenvalues --  -10.33442 -10.32933 -10.25820 -10.25071 -10.17743
 Alpha  occ. eigenvalues --  -10.17161 -10.17148  -1.11714  -1.09819  -1.02568
 Alpha  occ. eigenvalues --   -1.00384  -0.92572  -0.80756  -0.74804  -0.69195
 Alpha  occ. eigenvalues --   -0.68949  -0.64225  -0.61790  -0.57377  -0.51403
 Alpha  occ. eigenvalues --   -0.50453  -0.49295  -0.48370  -0.46666  -0.46243
 Alpha  occ. eigenvalues --   -0.44441  -0.43280  -0.42706  -0.40764  -0.40701
 Alpha  occ. eigenvalues --   -0.40033  -0.39041  -0.38315  -0.36297  -0.35590
 Alpha  occ. eigenvalues --   -0.34793  -0.32879  -0.32707  -0.29905  -0.28694
 Alpha  occ. eigenvalues --   -0.26464  -0.25190
 Alpha virt. eigenvalues --    0.00066   0.05120   0.07070   0.08768   0.10060
 Alpha virt. eigenvalues --    0.10614   0.12955   0.14664   0.15118   0.15474
 Alpha virt. eigenvalues --    0.16482   0.17048   0.18548   0.19461   0.19718
 Alpha virt. eigenvalues --    0.20831   0.21226   0.22846   0.23132   0.23411
 Alpha virt. eigenvalues --    0.25634   0.27108   0.29166   0.34972   0.35539
 Alpha virt. eigenvalues --    0.38344   0.47910   0.48934   0.49669   0.50669
 Alpha virt. eigenvalues --    0.52430   0.53781   0.55563   0.56436   0.56701
 Alpha virt. eigenvalues --    0.59221   0.59960   0.61687   0.63966   0.66094
 Alpha virt. eigenvalues --    0.67858   0.68701   0.69098   0.69753   0.70982
 Alpha virt. eigenvalues --    0.73921   0.75786   0.77639   0.80020   0.81032
 Alpha virt. eigenvalues --    0.82725   0.83824   0.84426   0.86097   0.86537
 Alpha virt. eigenvalues --    0.86630   0.87307   0.88094   0.88956   0.90451
 Alpha virt. eigenvalues --    0.90868   0.91850   0.92742   0.92984   0.93585
 Alpha virt. eigenvalues --    0.95769   0.96520   0.96759   1.02941   1.05618
 Alpha virt. eigenvalues --    1.06424   1.07102   1.09914   1.13298   1.14148
 Alpha virt. eigenvalues --    1.15170   1.22535   1.25512   1.27639   1.31552
 Alpha virt. eigenvalues --    1.35369   1.36758   1.38615   1.41021   1.43384
 Alpha virt. eigenvalues --    1.45217   1.47607   1.49955   1.50345   1.51458
 Alpha virt. eigenvalues --    1.54059   1.56540   1.58333   1.62524   1.66501
 Alpha virt. eigenvalues --    1.67541   1.70259   1.73530   1.75829   1.77133
 Alpha virt. eigenvalues --    1.79000   1.80037   1.81077   1.82571   1.84534
 Alpha virt. eigenvalues --    1.85237   1.86515   1.87556   1.89615   1.90452
 Alpha virt. eigenvalues --    1.91463   1.95083   1.97784   1.99677   2.01969
 Alpha virt. eigenvalues --    2.03339   2.04392   2.05522   2.05938   2.08054
 Alpha virt. eigenvalues --    2.08733   2.10553   2.11076   2.13154   2.13611
 Alpha virt. eigenvalues --    2.13756   2.15465   2.16048   2.18484   2.18664
 Alpha virt. eigenvalues --    2.21118   2.24444   2.24826   2.26396   2.31697
 Alpha virt. eigenvalues --    2.33514   2.36075   2.37546   2.39654   2.42453
 Alpha virt. eigenvalues --    2.43895   2.47344   2.52880   2.54407   2.54649
 Alpha virt. eigenvalues --    2.55624   2.58425   2.61118   2.62148   2.63209
 Alpha virt. eigenvalues --    2.63447   2.68426   2.70913   2.71734   2.73940
 Alpha virt. eigenvalues --    2.75137   2.76215   2.77884   2.78797   2.83640
 Alpha virt. eigenvalues --    2.84870   2.87169   2.88973   2.89849   2.91595
 Alpha virt. eigenvalues --    2.95542   2.95680   2.97481   3.02726   3.06117
 Alpha virt. eigenvalues --    3.11118   3.12617   3.17647   3.22437   3.24247
 Alpha virt. eigenvalues --    3.25130   3.31577   3.43065   3.43370   3.43512
 Alpha virt. eigenvalues --    3.44461   3.45019   3.45631   3.51316   3.52787
 Alpha virt. eigenvalues --    3.53816   3.88037   4.04302   4.12633   4.15178
 Alpha virt. eigenvalues --    4.28115   4.34225   4.42177   4.48668   4.53527
 Alpha virt. eigenvalues --    4.56027   4.62387   4.73201
          Condensed to atoms (all electrons):
               1          2          3          4          5          6
     1  O    8.102471   0.266925  -0.095158   0.001597   0.001736  -0.000019
     2  C    0.266925   4.394776   0.321484  -0.051100  -0.000149  -0.000053
     3  C   -0.095158   0.321484   5.017025   0.237493  -0.029665   0.003064
     4  N    0.001597  -0.051100   0.237493   6.966554   0.299409  -0.105135
     5  C    0.001736  -0.000149  -0.029665   0.299409   4.130276   0.288496
     6  O   -0.000019  -0.000053   0.003064  -0.105135   0.288496   8.346322
     7  C    0.000000   0.000002  -0.000120   0.004525  -0.015734   0.182464
     8  C    0.000000   0.000000   0.000010  -0.000360  -0.003635  -0.043096
     9  C    0.000000   0.000000   0.000001  -0.000213   0.003729  -0.052996
    10  C   -0.000000  -0.000000   0.000013  -0.000390  -0.003477  -0.043214
    11  O   -0.000021   0.000092   0.003235  -0.085184   0.546844  -0.072903
    12  O   -0.082886   0.570988  -0.067745   0.002338   0.000022  -0.000000
    13  H    0.273912  -0.011472   0.010842  -0.000714  -0.000087   0.000001
    14  H    0.002283  -0.031366   0.377559  -0.028267  -0.000624   0.000216
    15  H    0.001012  -0.038377   0.372642  -0.031259   0.003351  -0.000032
    16  H    0.003012  -0.001463  -0.022736   0.335490  -0.019973   0.009275
    17  H    0.000000  -0.000000  -0.000000   0.000003   0.000168   0.002880
    18  H   -0.000000  -0.000000  -0.000000  -0.000040   0.000457   0.000140
    19  H    0.000000  -0.000000  -0.000003   0.000077   0.001890  -0.003063
    20  H    0.000000   0.000000   0.000000  -0.000018   0.000033   0.000598
    21  H    0.000000   0.000000  -0.000000   0.000003  -0.000036   0.003430
    22  H   -0.000000  -0.000000  -0.000000  -0.000017   0.000041   0.000580
    23  H    0.000000   0.000001  -0.000000   0.000070   0.001960  -0.003093
    24  H    0.000000   0.000001  -0.000001  -0.000040   0.000447   0.000155
    25  H    0.000000   0.000000  -0.000000   0.000003   0.000160   0.002893
               7          8          9         10         11         12
     1  O    0.000000   0.000000   0.000000  -0.000000  -0.000021  -0.082886
     2  C    0.000002   0.000000   0.000000  -0.000000   0.000092   0.570988
     3  C   -0.000120   0.000010   0.000001   0.000013   0.003235  -0.067745
     4  N    0.004525  -0.000360  -0.000213  -0.000390  -0.085184   0.002338
     5  C   -0.015734  -0.003635   0.003729  -0.003477   0.546844   0.000022
     6  O    0.182464  -0.043096  -0.052996  -0.043214  -0.072903  -0.000000
     7  C    4.605738   0.380729   0.405255   0.380885   0.003369  -0.000000
     8  C    0.380729   5.016191  -0.065431  -0.064017  -0.005101  -0.000000
     9  C    0.405255  -0.065431   4.978855  -0.065394   0.000152   0.000000
    10  C    0.380885  -0.064017  -0.065394   5.015792  -0.004972   0.000000
    11  O    0.003369  -0.005101   0.000152  -0.004972   8.106480  -0.000024
    12  O   -0.000000  -0.000000   0.000000   0.000000  -0.000024   8.011900
    13  H    0.000000   0.000000  -0.000000  -0.000000   0.000001   0.010492
    14  H   -0.000001   0.000000   0.000000   0.000000   0.010030   0.002905
    15  H    0.000002  -0.000000  -0.000000   0.000000   0.000283   0.001337
    16  H   -0.000242   0.000055  -0.000105   0.000049   0.002963  -0.000016
    17  H   -0.024878   0.366689  -0.003470  -0.001610   0.000165   0.000000
    18  H   -0.026340   0.370052  -0.006160   0.005372  -0.000048   0.000000
    19  H   -0.023008   0.377089   0.004764  -0.005890   0.009475   0.000000
    20  H   -0.025311   0.005766   0.371370  -0.006344   0.000003  -0.000000
    21  H   -0.028171  -0.001907   0.372037  -0.001905   0.000008   0.000000
    22  H   -0.025307  -0.006335   0.371385   0.005762   0.000003   0.000000
    23  H   -0.023064  -0.005934   0.004781   0.377314   0.009303  -0.000000
    24  H   -0.026361   0.005376  -0.006173   0.370080  -0.000053   0.000000
    25  H   -0.024841  -0.001633  -0.003407   0.366977   0.000157  -0.000000
              13         14         15         16         17         18
     1  O    0.273912   0.002283   0.001012   0.003012   0.000000  -0.000000
     2  C   -0.011472  -0.031366  -0.038377  -0.001463  -0.000000  -0.000000
     3  C    0.010842   0.377559   0.372642  -0.022736  -0.000000  -0.000000
     4  N   -0.000714  -0.028267  -0.031259   0.335490   0.000003  -0.000040
     5  C   -0.000087  -0.000624   0.003351  -0.019973   0.000168   0.000457
     6  O    0.000001   0.000216  -0.000032   0.009275   0.002880   0.000140
     7  C    0.000000  -0.000001   0.000002  -0.000242  -0.024878  -0.026340
     8  C    0.000000   0.000000  -0.000000   0.000055   0.366689   0.370052
     9  C   -0.000000   0.000000  -0.000000  -0.000105  -0.003470  -0.006160
    10  C   -0.000000   0.000000   0.000000   0.000049  -0.001610   0.005372
    11  O    0.000001   0.010030   0.000283   0.002963   0.000165  -0.000048
    12  O    0.010492   0.002905   0.001337  -0.000016   0.000000   0.000000
    13  H    0.393197  -0.000239  -0.000327  -0.000044  -0.000000  -0.000000
    14  H   -0.000239   0.503593  -0.021115   0.003187   0.000000  -0.000000
    15  H   -0.000327  -0.021115   0.566488  -0.003112   0.000000   0.000000
    16  H   -0.000044   0.003187  -0.003112   0.415168  -0.000001   0.000003
    17  H   -0.000000   0.000000   0.000000  -0.000001   0.612744  -0.029563
    18  H   -0.000000  -0.000000   0.000000   0.000003  -0.029563   0.608611
    19  H   -0.000000  -0.000001  -0.000000  -0.000015  -0.027688  -0.029947
    20  H    0.000000  -0.000000  -0.000000   0.000039  -0.000006  -0.000071
    21  H   -0.000000  -0.000000   0.000000   0.000001   0.001745   0.000156
    22  H   -0.000000  -0.000000   0.000000   0.000029   0.000129   0.004109
    23  H   -0.000000  -0.000002  -0.000000  -0.000018   0.000125   0.000003
    24  H    0.000000  -0.000000  -0.000000   0.000008  -0.000053  -0.000207
    25  H    0.000000  -0.000000  -0.000000  -0.000001   0.001126  -0.000053
              19         20         21         22         23         24
     1  O    0.000000   0.000000   0.000000  -0.000000   0.000000   0.000000
     2  C   -0.000000   0.000000   0.000000  -0.000000   0.000001   0.000001
     3  C   -0.000003   0.000000  -0.000000  -0.000000  -0.000000  -0.000001
     4  N    0.000077  -0.000018   0.000003  -0.000017   0.000070  -0.000040
     5  C    0.001890   0.000033  -0.000036   0.000041   0.001960   0.000447
     6  O   -0.003063   0.000598   0.003430   0.000580  -0.003093   0.000155
     7  C   -0.023008  -0.025311  -0.028171  -0.025307  -0.023064  -0.026361
     8  C    0.377089   0.005766  -0.001907  -0.006335  -0.005934   0.005376
     9  C    0.004764   0.371370   0.372037   0.371385   0.004781  -0.006173
    10  C   -0.005890  -0.006344  -0.001905   0.005762   0.377314   0.370080
    11  O    0.009475   0.000003   0.000008   0.000003   0.009303  -0.000053
    12  O    0.000000  -0.000000   0.000000   0.000000  -0.000000   0.000000
    13  H   -0.000000   0.000000  -0.000000  -0.000000  -0.000000   0.000000
    14  H   -0.000001  -0.000000  -0.000000  -0.000000  -0.000002  -0.000000
    15  H   -0.000000  -0.000000   0.000000   0.000000  -0.000000  -0.000000
    16  H   -0.000015   0.000039   0.000001   0.000029  -0.000018   0.000008
    17  H   -0.027688  -0.000006   0.001745   0.000129   0.000125  -0.000053
    18  H   -0.029947  -0.000071   0.000156   0.004109   0.000003  -0.000207
    19  H    0.554320  -0.000198   0.000014  -0.000045   0.003082   0.000002
    20  H   -0.000198   0.603520  -0.029117  -0.031618  -0.000046   0.004111
    21  H    0.000014  -0.029117   0.605482  -0.029118   0.000012   0.000159
    22  H   -0.000045  -0.031618  -0.029118   0.603620  -0.000198  -0.000071
    23  H    0.003082  -0.000046   0.000012  -0.000198   0.554360  -0.030012
    24  H    0.000002   0.004111   0.000159  -0.000071  -0.030012   0.608420
    25  H    0.000121   0.000128   0.001722  -0.000006  -0.027737  -0.029541
              25
     1  O    0.000000
     2  C    0.000000
     3  C   -0.000000
     4  N    0.000003
     5  C    0.000160
     6  O    0.002893
     7  C   -0.024841
     8  C   -0.001633
     9  C   -0.003407
    10  C    0.366977
    11  O    0.000157
    12  O   -0.000000
    13  H    0.000000
    14  H   -0.000000
    15  H   -0.000000
    16  H   -0.000001
    17  H    0.001126
    18  H   -0.000053
    19  H    0.000121
    20  H    0.000128
    21  H    0.001722
    22  H   -0.000006
    23  H   -0.027737
    24  H   -0.029541
    25  H    0.612221
 Mulliken charges:
               1
     1  O   -0.474863
     2  C    0.579713
     3  C   -0.127938
     4  N   -0.544824
     5  C    0.794360
     6  O   -0.516910
     7  C    0.280410
     8  C   -0.324508
     9  C   -0.308979
    10  C   -0.325031
    11  O   -0.524257
    12  O   -0.449311
    13  H    0.324437
    14  H    0.181842
    15  H    0.149108
    16  H    0.278446
    17  H    0.101495
    18  H    0.103526
    19  H    0.139024
    20  H    0.107162
    21  H    0.105487
    22  H    0.107055
    23  H    0.139093
    24  H    0.103753
    25  H    0.101709
 Sum of Mulliken charges =  -0.00000
 Mulliken charges with hydrogens summed into heavy atoms:
               1
     1  O   -0.150426
     2  C    0.579713
     3  C    0.203011
     4  N   -0.266377
     5  C    0.794360
     6  O   -0.516910
     7  C    0.280410
     8  C    0.019537
     9  C    0.010726
    10  C    0.019524
    11  O   -0.524257
    12  O   -0.449311
 Electronic spatial extent (au):  <R**2>=           2904.4593
 Charge=             -0.0000 electrons
 Dipole moment (field-independent basis, Debye):
    X=              1.0115    Y=              2.5986    Z=             -2.1688  Tot=              3.5326
 Quadrupole moment (field-independent basis, Debye-Ang):
   XX=            -69.5763   YY=            -70.7042   ZZ=            -69.1393
   XY=             -5.0153   XZ=              5.7112   YZ=              4.3959
 Traceless Quadrupole moment (field-independent basis, Debye-Ang):
   XX=              0.2303   YY=             -0.8975   ZZ=              0.6673
   XY=             -5.0153   XZ=              5.7112   YZ=              4.3959
 Octapole moment (field-independent basis, Debye-Ang**2):
  XXX=             28.5299  YYY=             11.0715  ZZZ=             -4.0345  XYY=            -20.4561
  XXY=             25.6224  XXZ=            -14.3666  XZZ=            -11.5457  YZZ=              5.5653
  YYZ=              0.8594  XYZ=            -10.5393
 Hexadecapole moment (field-independent basis, Debye-Ang**3):
 XXXX=          -3037.9542 YYYY=           -421.9091 ZZZZ=           -336.5284 XXXY=           -129.2358
 XXXZ=             74.7858 YYYX=            -36.0498 YYYZ=             10.7179 ZZZX=             -3.6234
 ZZZY=             -4.6705 XXYY=           -507.3901 XXZZ=           -533.0940 YYZZ=           -127.2243
 XXYZ=             41.3438 YYXZ=            -18.1795 ZZXY=            -14.1918
 N-N= 7.461761649101D+02 E-N=-2.965231280537D+03  KE= 6.245381081467D+02
 Calling FoFJK, ICntrl=      2127 FMM=F ISym2X=0 I1Cent= 0 IOpClX= 0 NMat=1 NMatS=1 NMatT=0.
 ***** Axes restored to original set *****
 -------------------------------------------------------------------
 Center     Atomic                   Forces (Hartrees/Bohr)
 Number     Number              X              Y              Z
 -------------------------------------------------------------------
      1        8          -0.016297974   -0.002784029    0.001291851
      2        6          -0.008889761   -0.002284237    0.004772308
      3        6           0.002554334    0.016813978   -0.020783428
      4        7          -0.003373002   -0.019515774    0.006569856
      5        6           0.003396265   -0.016946663   -0.003637776
      6        8           0.004005820    0.011177998    0.012214522
      7        6          -0.012057436   -0.002017689   -0.024766819
      8        6           0.004477647   -0.006050885    0.004800607
      9        6           0.001745560    0.002128809    0.004148712
     10        6           0.002639843   -0.006263345    0.005752649
     11        8           0.001759928    0.012992353    0.008310534
     12        8           0.003654366   -0.002867558    0.000001004
     13        1           0.014725961    0.000619630   -0.001543960
     14        1          -0.000268920    0.003709455   -0.006204903
     15        1          -0.001157013    0.003464156    0.003449883
     16        1           0.002192575    0.000701236    0.001434384
     17        1           0.001032950    0.003486389   -0.003206798
     18        1          -0.000709600    0.003653952    0.002386668
     19        1           0.003552090   -0.000581547    0.000684927
     20        1           0.003510289   -0.000304105    0.000018004
     21        1          -0.000592266   -0.003145857   -0.002201668
     22        1          -0.001964110   -0.001172822    0.002703039
     23        1          -0.001381461   -0.001464224    0.003066880
     24        1           0.001363885    0.004000073    0.001368154
     25        1          -0.003919967    0.002650703   -0.000628631
 -------------------------------------------------------------------
 Cartesian Forces:  Max     0.024766819 RMS     0.007124644

 GradGradGradGradGradGradGradGradGradGradGradGradGradGradGradGradGradGrad
 Berny optimization.
 FormGI is forming the generalized inverse of G from B-inverse, IUseBI=4.
 Internal  Forces:  Max     0.024847349 RMS     0.004961393
 Search for a local minimum.
 Step number   1 out of a maximum of  125
 All quantities printed in internal units (Hartrees-Bohrs-Radians)
 Mixed Optimization -- RFO/linear search
 Second derivative matrix not updated -- first step.
 ITU=  0
     Eigenvalues ---    0.00230   0.00230   0.00253   0.00284   0.00660
     Eigenvalues ---    0.00767   0.01204   0.01266   0.01976   0.02110
     Eigenvalues ---    0.02277   0.02377   0.04494   0.04815   0.05321
     Eigenvalues ---    0.05321   0.05358   0.05361   0.05362   0.05423
     Eigenvalues ---    0.05437   0.06342   0.06806   0.09824   0.13195
     Eigenvalues ---    0.15835   0.15876   0.16000   0.16000   0.16000
     Eigenvalues ---    0.16000   0.16000   0.16000   0.16000   0.16000
     Eigenvalues ---    0.16000   0.16000   0.16278   0.21962   0.22029
     Eigenvalues ---    0.24977   0.25000   0.25000   0.25000   0.25000
     Eigenvalues ---    0.28273   0.28278   0.28629   0.28836   0.34496
     Eigenvalues ---    0.34752   0.34756   0.34791   0.34794   0.34801
     Eigenvalues ---    0.34801   0.34823   0.34826   0.34827   0.34844
     Eigenvalues ---    0.34954   0.40672   0.46580   0.49381   0.53814
     Eigenvalues ---    0.55404   0.55861   0.92098   1.01723
 RFO step:  Lambda=-1.06467282D-02 EMin= 2.30000000D-03
 Linear search not attempted -- first point.
 Iteration  1 RMS(Cart)=  0.11668905 RMS(Int)=  0.00368065
 Iteration  2 RMS(Cart)=  0.00717407 RMS(Int)=  0.00024435
 Iteration  3 RMS(Cart)=  0.00001209 RMS(Int)=  0.00024426
 Iteration  4 RMS(Cart)=  0.00000000 RMS(Int)=  0.00024426
 Variable       Old X    -DE/DX   Delta X   Delta X   Delta X     New X
                                 (Linear)    (Quad)   (Total)
    R1        2.56201  -0.00237   0.00000  -0.00431  -0.00431   2.55770
    R2        1.81075   0.01457   0.00000   0.02560   0.02560   1.83635
    R3        2.90784  -0.00751   0.00000  -0.02530  -0.02530   2.88254
    R4        2.27957   0.00441   0.00000   0.00429   0.00429   2.28386
    R5        2.79300  -0.02485   0.00000  -0.06928  -0.06928   2.72372
    R6        2.06502  -0.00282   0.00000  -0.00792  -0.00792   2.05710
    R7        2.05750   0.00439   0.00000   0.01218   0.01218   2.06968
    R8        2.60495  -0.01293   0.00000  -0.02564  -0.02564   2.57931
    R9        1.90182   0.00098   0.00000   0.00205   0.00205   1.90387
   R10        2.54774   0.00137   0.00000   0.00243   0.00243   2.55017
   R11        2.31981  -0.01512   0.00000  -0.01623  -0.01623   2.30358
   R12        2.70650   0.00633   0.00000   0.01517   0.01517   2.72167
   R13        2.91534  -0.00727   0.00000  -0.02477  -0.02477   2.89057
   R14        2.90346  -0.00377   0.00000  -0.01262  -0.01262   2.89084
   R15        2.91546  -0.00731   0.00000  -0.02492  -0.02492   2.89053
   R16        2.05929   0.00257   0.00000   0.00715   0.00715   2.06644
   R17        2.05963   0.00323   0.00000   0.00900   0.00900   2.06863
   R18        2.06016   0.00132   0.00000   0.00369   0.00369   2.06385
   R19        2.06079   0.00269   0.00000   0.00751   0.00751   2.06830
   R20        2.06011   0.00182   0.00000   0.00506   0.00506   2.06518
   R21        2.06072   0.00271   0.00000   0.00756   0.00756   2.06828
   R22        2.06000   0.00142   0.00000   0.00395   0.00395   2.06395
   R23        2.05957   0.00326   0.00000   0.00907   0.00907   2.06864
   R24        2.05958   0.00243   0.00000   0.00676   0.00676   2.06634
    A1        1.82073   0.00463   0.00000   0.02712   0.02712   1.84785
    A2        1.98154  -0.00524   0.00000  -0.01965  -0.01978   1.96176
    A3        2.14736   0.00111   0.00000   0.00475   0.00461   2.15197
    A4        2.15288   0.00416   0.00000   0.01640   0.01627   2.16915
    A5        1.95411   0.01177   0.00000   0.04850   0.04856   2.00267
    A6        1.89422  -0.00282   0.00000  -0.01537  -0.01475   1.87947
    A7        1.87472  -0.00219   0.00000   0.00729   0.00706   1.88178
    A8        1.95696  -0.00737   0.00000  -0.05585  -0.05569   1.90127
    A9        1.91645  -0.00359   0.00000  -0.01099  -0.01170   1.90475
   A10        1.86336   0.00404   0.00000   0.02802   0.02769   1.89105
   A11        2.14821  -0.00797   0.00000  -0.03561  -0.03586   2.11235
   A12        2.09390   0.00179   0.00000   0.00286   0.00264   2.09654
   A13        2.03070   0.00601   0.00000   0.02742   0.02712   2.05782
   A14        1.89171   0.00326   0.00000   0.01249   0.01243   1.90414
   A15        2.19444  -0.00571   0.00000  -0.02189  -0.02195   2.17248
   A16        2.19704   0.00245   0.00000   0.00939   0.00932   2.20636
   A17        2.17576  -0.02334   0.00000  -0.08955  -0.08955   2.08621
   A18        1.94951  -0.00156   0.00000  -0.02931  -0.02956   1.91995
   A19        1.81214  -0.00004   0.00000  -0.00041   0.00025   1.81239
   A20        1.94912  -0.00168   0.00000  -0.03037  -0.03062   1.91851
   A21        1.90420   0.00169   0.00000   0.02978   0.02938   1.93359
   A22        1.93972   0.00001   0.00000   0.00347   0.00199   1.94171
   A23        1.90409   0.00176   0.00000   0.02997   0.02957   1.93366
   A24        1.94612  -0.00443   0.00000  -0.02812  -0.02840   1.91772
   A25        1.94077  -0.00230   0.00000  -0.01441  -0.01462   1.92615
   A26        1.95088  -0.00297   0.00000  -0.01431  -0.01440   1.93648
   A27        1.88175   0.00285   0.00000   0.01093   0.01055   1.89230
   A28        1.87129   0.00421   0.00000   0.02637   0.02621   1.89750
   A29        1.86916   0.00334   0.00000   0.02366   0.02363   1.89279
   A30        1.94271  -0.00178   0.00000  -0.00931  -0.00939   1.93332
   A31        1.94826  -0.00402   0.00000  -0.02581  -0.02599   1.92227
   A32        1.94297  -0.00180   0.00000  -0.00946  -0.00955   1.93342
   A33        1.87866   0.00285   0.00000   0.01465   0.01447   1.89314
   A34        1.86882   0.00246   0.00000   0.01861   0.01861   1.88743
   A35        1.87875   0.00284   0.00000   0.01454   0.01436   1.89310
   A36        1.95087  -0.00293   0.00000  -0.01408  -0.01417   1.93670
   A37        1.94052  -0.00229   0.00000  -0.01425  -0.01446   1.92606
   A38        1.94623  -0.00446   0.00000  -0.02837  -0.02865   1.91758
   A39        1.86898   0.00334   0.00000   0.02384   0.02382   1.89280
   A40        1.87143   0.00418   0.00000   0.02599   0.02583   1.89725
   A41        1.88195   0.00285   0.00000   0.01097   0.01060   1.89254
    D1       -3.13690  -0.00041   0.00000  -0.00655  -0.00663   3.13966
    D2        0.05991  -0.00103   0.00000  -0.03652  -0.03644   0.02348
    D3        0.52433   0.00098   0.00000  -0.01478  -0.01458   0.50975
    D4        2.69373  -0.00242   0.00000  -0.06400  -0.06401   2.62972
    D5       -1.58089  -0.00025   0.00000  -0.03523  -0.03551  -1.61639
    D6       -2.67268   0.00150   0.00000   0.01488   0.01513  -2.65755
    D7       -0.50328  -0.00190   0.00000  -0.03434  -0.03429  -0.53758
    D8        1.50528   0.00027   0.00000  -0.00557  -0.00579   1.49949
    D9        1.64690  -0.00130   0.00000  -0.03544  -0.03552   1.61138
   D10       -1.33465  -0.00047   0.00000   0.00284   0.00252  -1.33212
   D11       -0.48709  -0.00087   0.00000  -0.01007  -0.00956  -0.49664
   D12        2.81455  -0.00004   0.00000   0.02821   0.02848   2.84304
   D13       -2.55549   0.00109   0.00000  -0.00264  -0.00272  -2.55821
   D14        0.74615   0.00191   0.00000   0.03563   0.03532   0.78147
   D15       -3.06319   0.00018   0.00000   0.00772   0.00795  -3.05523
   D16        0.07899   0.00081   0.00000   0.02753   0.02762   0.10660
   D17       -0.07627  -0.00092   0.00000  -0.03111  -0.03119  -0.10747
   D18        3.06590  -0.00029   0.00000  -0.01130  -0.01153   3.05437
   D19        3.13080   0.00050   0.00000   0.01519   0.01533  -3.13705
   D20       -0.01137  -0.00014   0.00000  -0.00468  -0.00482  -0.01620
   D21        1.09555  -0.00119   0.00000  -0.01883  -0.01849   1.07706
   D22       -3.13808   0.00003   0.00000   0.00190   0.00189  -3.13618
   D23       -1.08884   0.00128   0.00000   0.02233   0.02200  -1.06684
   D24        3.00607   0.00088   0.00000   0.02452   0.02446   3.03052
   D25        0.90527   0.00185   0.00000   0.03961   0.03940   0.94468
   D26       -1.18273   0.00117   0.00000   0.02900   0.02892  -1.15381
   D27        1.01278   0.00079   0.00000   0.02376   0.02391   1.03669
   D28       -1.08802   0.00176   0.00000   0.03885   0.03886  -1.04916
   D29        3.10716   0.00108   0.00000   0.02824   0.02838   3.13554
   D30       -1.08752  -0.00251   0.00000  -0.03503  -0.03495  -1.12247
   D31        3.09487  -0.00154   0.00000  -0.01993  -0.02000   3.07487
   D32        1.00686  -0.00222   0.00000  -0.03054  -0.03049   0.97638
   D33        1.04150   0.00032   0.00000   0.00506   0.00501   1.04651
   D34        3.14116  -0.00003   0.00000  -0.00031  -0.00031   3.14085
   D35       -1.04209  -0.00040   0.00000  -0.00594  -0.00589  -1.04797
   D36        3.12232  -0.00071   0.00000  -0.01500  -0.01528   3.10705
   D37       -1.06121  -0.00105   0.00000  -0.02036  -0.02059  -1.08180
   D38        1.03873  -0.00142   0.00000  -0.02599  -0.02617   1.01256
   D39       -1.03881   0.00145   0.00000   0.02626   0.02644  -1.01237
   D40        1.06084   0.00110   0.00000   0.02090   0.02113   1.08197
   D41       -3.12240   0.00074   0.00000   0.01527   0.01555  -3.10685
   D42        1.18244  -0.00111   0.00000  -0.02827  -0.02818   1.15426
   D43       -0.90517  -0.00183   0.00000  -0.03938  -0.03916  -0.94433
   D44       -3.00612  -0.00086   0.00000  -0.02429  -0.02422  -3.03034
   D45       -1.00738   0.00220   0.00000   0.03067   0.03061  -0.97677
   D46       -3.09499   0.00149   0.00000   0.01956   0.01963  -3.07536
   D47        1.08725   0.00246   0.00000   0.03465   0.03457   1.12182
   D48       -3.10774  -0.00105   0.00000  -0.02800  -0.02814  -3.13588
   D49        1.08784  -0.00177   0.00000  -0.03911  -0.03912   1.04871
   D50       -1.01311  -0.00080   0.00000  -0.02402  -0.02418  -1.03729
         Item               Value     Threshold  Converged?
 Maximum Force            0.024847     0.000450     NO 
 RMS     Force            0.004961     0.000300     NO 
 Maximum Displacement     0.400103     0.001800     NO 
 RMS     Displacement     0.118561     0.001200     NO 
 Predicted change in Energy=-5.713504D-03
 GradGradGradGradGradGradGradGradGradGradGradGradGradGradGradGradGradGrad

                          Input orientation:                          
 ---------------------------------------------------------------------
 Center     Atomic      Atomic             Coordinates (Angstroms)
 Number     Number       Type             X           Y           Z
 ---------------------------------------------------------------------
      1          8           0        4.334086    0.295855    0.202250
      2          6           0        3.826302   -0.900303    0.580743
      3          6           0        2.316696   -0.849837    0.793619
      4          7           0        1.625602    0.122862   -0.014883
      5          6           0        1.101956   -0.215820   -1.228998
      6          8           0        0.609779    0.891916   -1.822138
      7          6           0       -0.004697    0.788457   -3.120610
      8          6           0       -1.229500   -0.125010   -3.048631
      9          6           0       -0.417331    2.225185   -3.445771
     10          6           0        1.012956    0.272109   -4.139167
     11          8           0        1.073478   -1.349484   -1.676173
     12          8           0        4.505839   -1.884444    0.754884
     13          1           0        5.290055    0.157263    0.096307
     14          1           0        1.918487   -1.838836    0.573864
     15          1           0        2.134506   -0.632021    1.851392
     16          1           0        1.667250    1.100615    0.224473
     17          1           0       -1.759038   -0.112969   -4.005299
     18          1           0       -1.916195    0.219414   -2.268805
     19          1           0       -0.937401   -1.152811   -2.822622
     20          1           0        0.455521    2.885315   -3.462708
     21          1           0       -0.900796    2.265317   -4.425035
     22          1           0       -1.118605    2.606614   -2.697023
     23          1           0        1.305235   -0.755654   -3.912975
     24          1           0        1.911280    0.897617   -4.130559
     25          1           0        0.581135    0.300951   -5.143334
 ---------------------------------------------------------------------
                    Distance matrix (angstroms):
                    1          2          3          4          5
     1  O    0.000000
     2  C    1.353476   0.000000
     3  C    2.394200   1.525377   0.000000
     4  N    2.722675   2.498943   1.441330   0.000000
     5  C    3.571687   3.341518   2.443062   1.364912   0.000000
     6  O    4.280643   4.396807   3.576236   2.211224   1.349494
     7  C    5.487176   5.588245   4.836741   3.570214   2.410695
     8  C    6.457464   6.271728   5.278614   4.173329   2.958884
     9  C    6.293356   6.632488   5.907884   4.512685   3.630539
    10  C    5.466111   5.618453   5.224067   4.172208   2.952131
    11  O    4.106968   3.587962   2.809824   2.287472   1.219004
    12  O    2.255795   1.208565   2.421624   3.594104   4.278612
    13  H    0.971755   1.869678   3.215799   3.666301   4.408605
    14  H    3.245015   2.126182   1.088568   2.068977   2.559535
    15  H    2.901513   2.132768   1.095226   2.076491   3.275391
    16  H    2.785704   2.965149   2.133066   1.007485   2.040866
    17  H    7.415980   7.269642   6.339101   5.237826   3.987945
    18  H    6.721456   6.507685   5.332833   4.199263   3.221779
    19  H    6.247965   5.859994   4.874233   4.009953   2.752556
    20  H    5.931314   6.484024   5.960844   4.570310   3.876129
    21  H    7.259100   7.577890   6.876830   5.515636   4.514611
    22  H    6.593727   6.891613   5.994409   4.570949   3.879707
    23  H    5.216770   5.154629   4.814972   4.008683   2.745264
    24  H    5.000534   5.394088   5.240753   4.197695   3.211511
    25  H    6.531457   6.688735   6.291574   5.236758   3.982503
                    6          7          8          9         10
     6  O    0.000000
     7  C    1.440247   0.000000
     8  C    2.433387   1.529623   0.000000
     9  C    2.338534   1.529765   2.518086   0.000000
    10  C    2.432146   1.529605   2.524991   2.518138   0.000000
    11  O    2.293512   2.796364   2.947318   4.258197   2.949503
    12  O    5.434014   6.519877   7.103270   7.666300   6.387698
    13  H    5.111275   6.227468   7.243957   7.028290   6.020465
    14  H    3.861419   4.924474   5.096027   6.174931   5.242970
    15  H    4.259343   5.595958   5.965218   6.537234   6.161341
    16  H    2.313097   3.752656   4.539441   4.368159   4.489529
    17  H    3.374504   2.161702   1.093512   2.753219   2.801813
    18  H    2.651851   2.168687   1.094672   2.766759   3.475766
    19  H    2.752389   2.174226   1.092143   3.474140   2.750924
    20  H    2.586291   2.173854   3.474595   1.094499   2.756297
    21  H    3.308041   2.164632   2.777805   1.092844   2.777957
    22  H    2.587069   2.173916   2.756392   1.094485   3.474657
    23  H    2.751317   2.174407   2.751306   3.474322   1.092194
    24  H    2.650046   2.168613   3.475750   2.766550   1.094678
    25  H    3.373485   2.161545   2.801361   2.753421   1.093459
                   11         12         13         14         15
    11  O    0.000000
    12  O    4.239967   0.000000
    13  H    4.815755   2.284138   0.000000
    14  H    2.452789   2.594077   3.947143   0.000000
    15  H    3.752899   2.897261   3.696050   1.770634   0.000000
    16  H    3.157214   4.153252   3.745806   2.970785   2.422235
    17  H    3.870005   8.065119   8.160019   6.121401   7.051945
    18  H    3.427943   7.403474   7.584699   5.198264   5.840303
    19  H    2.323071   6.554594   7.001261   4.490306   5.617317
    20  H    4.637575   7.546109   6.594056   6.383713   6.590167
    21  H    4.951847   8.560595   7.950664   7.055595   7.549911
    22  H    4.636602   7.982459   7.407627   6.299577   6.462165
    23  H    2.325861   5.771216   5.725954   4.656295   5.825024
    24  H    3.431529   6.191862   5.461743   5.442410   6.178459
    25  H    3.871375   7.414056   7.046163   6.249285   7.225621
                   16         17         18         19         20
    16  H    0.000000
    17  H    5.577024   0.000000
    18  H    4.453540   1.774990   0.000000
    19  H    4.598578   1.776255   1.774191   0.000000
    20  H    4.271855   3.766747   3.762640   4.319306   0.000000
    21  H    5.437767   2.563007   3.141032   3.775271   1.774842
    22  H    4.308615   3.085105   2.553085   3.765885   1.772518
    23  H    4.549204   3.132305   3.745886   2.525078   3.765821
    24  H    4.366584   3.808964   4.309948   3.745656   2.552685
    25  H    5.534659   2.634931   3.808703   3.131306   3.085323
                   21         22         23         24         25
    21  H    0.000000
    22  H    1.774810   0.000000
    23  H    3.775585   4.319536   0.000000
    24  H    3.140874   3.762433   1.774244   0.000000
    25  H    2.563358   3.766913   1.776097   1.775109   0.000000
 Stoichiometry    C7H13NO4
 Framework group  C1[X(C7H13NO4)]
 Deg. of freedom    69
 Full point group                 C1      NOp   1
 Largest Abelian subgroup         C1      NOp   1
 Largest concise Abelian subgroup C1      NOp   1
                         Standard orientation:                         
 ---------------------------------------------------------------------
 Center     Atomic      Atomic             Coordinates (Angstroms)
 Number     Number       Type             X           Y           Z
 ---------------------------------------------------------------------
      1          8           0       -2.900188    1.460399    0.097348
      2          6           0       -3.155028    0.131377    0.122925
      3          6           0       -2.245776   -0.653059   -0.817657
      4          7           0       -0.947725   -0.064426   -1.032148
      5          6           0        0.119875   -0.413339   -0.256599
      6          8           0        1.177812    0.355253   -0.590021
      7          6           0        2.432997    0.169586    0.091411
      8          6           0        2.957250   -1.246274   -0.154037
      9          6           0        3.354739    1.208545   -0.549790
     10          6           0        2.260481    0.445596    1.585984
     11          8           0        0.103767   -1.297973    0.581931
     12          8           0       -4.026469   -0.364251    0.797887
     13          1           0       -3.526518    1.863197    0.721665
     14          1           0       -2.116924   -1.649388   -0.398482
     15          1           0       -2.760462   -0.747697   -1.779770
     16          1           0       -0.848213    0.732539   -1.640400
     17          1           0        3.960683   -1.349593    0.268120
     18          1           0        3.010931   -1.451697   -1.227920
     19          1           0        2.304371   -1.990007    0.307902
     20          1           0        2.960963    2.219309   -0.404101
     21          1           0        4.349842    1.156657   -0.101028
     22          1           0        3.449978    1.031700   -1.625686
     23          1           0        1.607368   -0.298043    2.047863
     24          1           0        1.822053    1.436419    1.742097
     25          1           0        3.233390    0.415577    2.084182
 ---------------------------------------------------------------------
 Rotational constants (GHZ):           2.1175293           0.4233831           0.4113493
 Standard basis: 6-31G(d,p) (6D, 7F)
 There are   245 symmetry adapted cartesian basis functions of A   symmetry.
 There are   245 symmetry adapted basis functions of A   symmetry.
   245 basis functions,   427 primitive gaussians,   245 cartesian basis functions
    47 alpha electrons       47 beta electrons
       nuclear repulsion energy       754.8950032714 Hartrees.
 NAtoms=   25 NActive=   25 NUniq=   25 SFac= 1.00D+00 NAtFMM=   60 NAOKFM=F Big=F
 Integral buffers will be    131072 words long.
 Raffenetti 2 integral format.
 Two-electron integral symmetry is turned on.
 Nuclear repulsion after empirical dispersion term =      754.8562058702 Hartrees.
 One-electron integrals computed using PRISM.
 NBasis=   245 RedAO= T EigKep=  2.57D-03  NBF=   245
 NBsUse=   245 1.00D-06 EigRej= -1.00D+00 NBFU=   245
 Initial guess from the checkpoint file:  "Ac2_conf-3.chk"
 B after Tr=    -0.000000   -0.000000   -0.000000
         Rot=    0.999885   -0.014266    0.004663    0.002388 Ang=  -1.74 deg.
 ExpMin= 1.61D-01 ExpMax= 5.48D+03 ExpMxC= 8.25D+02 IAcc=3 IRadAn=         5 AccDes= 0.00D+00
 Harris functional with IExCor=  402 and IRadAn=       5 diagonalized for initial guess.
 HarFok:  IExCor=  402 AccDes= 0.00D+00 IRadAn=         5 IDoV= 1 UseB2=F ITyADJ=14
 ICtDFT=  3500011 ScaDFX=  1.000000  1.000000  1.000000  1.000000
 FoFCou: FMM=F IPFlag=           0 FMFlag=      100000 FMFlg1=           0
         NFxFlg=           0 DoJE=T BraDBF=F KetDBF=T FulRan=T
         wScrn=  0.000000 ICntrl=       500 IOpCl=  0 I1Cent=   200000004 NGrid=           0
         NMat0=    1 NMatS0=      1 NMatT0=    0 NMatD0=    1 NMtDS0=    0 NMtDT0=    0
 Petite list used in FoFCou.
 Requested convergence on RMS density matrix=1.00D-08 within 128 cycles.
 Requested convergence on MAX density matrix=1.00D-06.
 Requested convergence on             energy=1.00D-06.
 No special actions if energy rises.
 Integral accuracy reduced to 1.0D-05 until final iterations.
 Initial convergence to 1.0D-05 achieved.  Increase integral accuracy.
 SCF Done:  E(RB3LYP) =  -630.324458414     A.U. after   12 cycles
            NFock= 12  Conv=0.84D-08     -V/T= 2.0090
 Calling FoFJK, ICntrl=      2127 FMM=F ISym2X=0 I1Cent= 0 IOpClX= 0 NMat=1 NMatS=1 NMatT=0.
 ***** Axes restored to original set *****
 -------------------------------------------------------------------
 Center     Atomic                   Forces (Hartrees/Bohr)
 Number     Number              X              Y              Z
 -------------------------------------------------------------------
      1        8          -0.000797627   -0.000109373    0.000004216
      2        6          -0.000405475   -0.002100207   -0.001127296
      3        6           0.000386968    0.003686787   -0.001297786
      4        7          -0.001609660   -0.001187355    0.003953352
      5        6          -0.000004013   -0.000268906    0.000728846
      6        8           0.004344257    0.003879572    0.009644604
      7        6          -0.005812289   -0.002477292   -0.012688232
      8        6          -0.002551284   -0.002533605    0.000833862
      9        6           0.000654770    0.000889148    0.001604935
     10        6           0.002780945   -0.001582334   -0.001807756
     11        8           0.002525416   -0.002254182    0.002565366
     12        8           0.000212733    0.000537714    0.001207549
     13        1           0.000433037    0.000115196    0.000102917
     14        1           0.000294918   -0.000864067   -0.000456023
     15        1           0.000821686   -0.001122611    0.000973401
     16        1           0.001197538    0.000274403   -0.000979496
     17        1          -0.000388427    0.000638804   -0.000242435
     18        1          -0.000243675    0.000784155   -0.000520898
     19        1          -0.000275844    0.002022702   -0.000818010
     20        1          -0.000013368   -0.000646759   -0.000083903
     21        1          -0.000038980   -0.000328683   -0.000183841
     22        1           0.000118940   -0.000622324   -0.000145912
     23        1          -0.001032050    0.001872935   -0.000477468
     24        1          -0.000480767    0.000745927   -0.000404418
     25        1          -0.000117747    0.000650355   -0.000385572
 -------------------------------------------------------------------
 Cartesian Forces:  Max     0.012688232 RMS     0.002425139

 GradGradGradGradGradGradGradGradGradGradGradGradGradGradGradGradGradGrad
 Berny optimization.
 Using GEDIIS/GDIIS optimizer.
 FormGI is forming the generalized inverse of G from B-inverse, IUseBI=4.
 Internal  Forces:  Max     0.017010050 RMS     0.002424054
 Search for a local minimum.
 Step number   2 out of a maximum of  125
 All quantities printed in internal units (Hartrees-Bohrs-Radians)
 Mixed Optimization -- RFO/linear search
 Update second derivatives using D2CorX and points    1    2
 DE= -4.96D-03 DEPred=-5.71D-03 R= 8.69D-01
 TightC=F SS=  1.41D+00  RLast= 2.70D-01 DXNew= 5.0454D-01 8.0972D-01
 Trust test= 8.69D-01 RLast= 2.70D-01 DXMaxT set to 5.05D-01
 ITU=  1  0
 Use linear search instead of GDIIS.
     Eigenvalues ---    0.00230   0.00231   0.00252   0.00284   0.00660
     Eigenvalues ---    0.00759   0.01224   0.01266   0.01976   0.02123
     Eigenvalues ---    0.02276   0.02377   0.04368   0.04575   0.05472
     Eigenvalues ---    0.05488   0.05514   0.05565   0.05577   0.05598
     Eigenvalues ---    0.06077   0.06378   0.06737   0.10275   0.13378
     Eigenvalues ---    0.15020   0.15802   0.16000   0.16000   0.16000
     Eigenvalues ---    0.16000   0.16000   0.16000   0.16000   0.16000
     Eigenvalues ---    0.16009   0.16033   0.16560   0.20527   0.22058
     Eigenvalues ---    0.24267   0.24995   0.24999   0.25000   0.27704
     Eigenvalues ---    0.28276   0.28454   0.28789   0.30638   0.32894
     Eigenvalues ---    0.34507   0.34753   0.34758   0.34794   0.34796
     Eigenvalues ---    0.34823   0.34825   0.34827   0.34842   0.34941
     Eigenvalues ---    0.35075   0.44476   0.46584   0.50678   0.53801
     Eigenvalues ---    0.55016   0.57352   0.92276   1.01719
 RFO step:  Lambda=-2.47481260D-03 EMin= 2.30000000D-03
 Quartic linear search produced a step of -0.09715.
 Iteration  1 RMS(Cart)=  0.05238889 RMS(Int)=  0.00137962
 Iteration  2 RMS(Cart)=  0.00206929 RMS(Int)=  0.00014475
 Iteration  3 RMS(Cart)=  0.00000396 RMS(Int)=  0.00014472
 Iteration  4 RMS(Cart)=  0.00000000 RMS(Int)=  0.00014472
 Variable       Old X    -DE/DX   Delta X   Delta X   Delta X     New X
                                 (Linear)    (Quad)   (Total)
    R1        2.55770  -0.00016   0.00042  -0.00163  -0.00121   2.55649
    R2        1.83635   0.00040  -0.00249   0.00870   0.00622   1.84257
    R3        2.88254  -0.00053   0.00246  -0.00972  -0.00726   2.87528
    R4        2.28386  -0.00014  -0.00042   0.00122   0.00080   2.28466
    R5        2.72372   0.00003   0.00673  -0.02195  -0.01522   2.70850
    R6        2.05710   0.00077   0.00077  -0.00053   0.00024   2.05734
    R7        2.06968   0.00058  -0.00118   0.00535   0.00417   2.07385
    R8        2.57931   0.00213   0.00249  -0.00424  -0.00175   2.57756
    R9        1.90387   0.00008  -0.00020   0.00081   0.00061   1.90448
   R10        2.55017   0.00631  -0.00024   0.01096   0.01072   2.56089
   R11        2.30358   0.00110   0.00158  -0.00402  -0.00244   2.30114
   R12        2.72167   0.01701  -0.00147   0.04214   0.04067   2.76234
   R13        2.89057   0.00219   0.00241  -0.00102   0.00139   2.89195
   R14        2.89084  -0.00111   0.00123  -0.00747  -0.00624   2.88460
   R15        2.89053   0.00224   0.00242  -0.00090   0.00152   2.89206
   R16        2.06644   0.00041  -0.00069   0.00331   0.00262   2.06906
   R17        2.06863   0.00003  -0.00087   0.00293   0.00206   2.07069
   R18        2.06385  -0.00215  -0.00036  -0.00433  -0.00469   2.05916
   R19        2.06830  -0.00040  -0.00073   0.00136   0.00063   2.06894
   R20        2.06518   0.00017  -0.00049   0.00204   0.00155   2.06673
   R21        2.06828  -0.00039  -0.00073   0.00139   0.00066   2.06894
   R22        2.06395  -0.00214  -0.00038  -0.00422  -0.00461   2.05934
   R23        2.06864   0.00003  -0.00088   0.00296   0.00208   2.07072
   R24        2.06634   0.00042  -0.00066   0.00322   0.00256   2.06890
    A1        1.84785   0.00024  -0.00263   0.01018   0.00755   1.85539
    A2        1.96176  -0.00084   0.00192  -0.00982  -0.00830   1.95346
    A3        2.15197   0.00026  -0.00045   0.00191   0.00106   2.15303
    A4        2.16915   0.00056  -0.00158   0.00676   0.00478   2.17394
    A5        2.00267   0.00150  -0.00472   0.02219   0.01743   2.02010
    A6        1.87947  -0.00100   0.00143  -0.01358  -0.01216   1.86732
    A7        1.88178  -0.00123  -0.00069  -0.00324  -0.00405   1.87773
    A8        1.90127  -0.00010   0.00541  -0.01860  -0.01312   1.88815
    A9        1.90475   0.00071   0.00114   0.00601   0.00715   1.91190
   A10        1.89105   0.00003  -0.00269   0.00680   0.00413   1.89518
   A11        2.11235  -0.00049   0.00348  -0.01586  -0.01307   2.09928
   A12        2.09654   0.00044  -0.00026  -0.00046  -0.00142   2.09513
   A13        2.05782  -0.00010  -0.00264   0.00386   0.00051   2.05834
   A14        1.90414  -0.00076  -0.00121   0.00141   0.00015   1.90429
   A15        2.17248  -0.00425   0.00213  -0.02205  -0.01996   2.15252
   A16        2.20636   0.00502  -0.00091   0.02096   0.02001   2.22637
   A17        2.08621   0.01477   0.00870   0.02384   0.03254   2.11876
   A18        1.91995   0.00108   0.00287   0.00686   0.00943   1.92937
   A19        1.81239  -0.00179  -0.00002  -0.02546  -0.02550   1.78689
   A20        1.91851   0.00113   0.00297   0.00699   0.00967   1.92817
   A21        1.93359  -0.00081  -0.00285  -0.00382  -0.00658   1.92701
   A22        1.94171   0.00108  -0.00019   0.01665   0.01646   1.95817
   A23        1.93366  -0.00084  -0.00287  -0.00378  -0.00655   1.92711
   A24        1.91772  -0.00038   0.00276  -0.01329  -0.01055   1.90717
   A25        1.92615  -0.00040   0.00142  -0.00741  -0.00601   1.92014
   A26        1.93648  -0.00005   0.00140  -0.00282  -0.00141   1.93506
   A27        1.89230  -0.00014  -0.00103  -0.00183  -0.00291   1.88939
   A28        1.89750   0.00033  -0.00255   0.01110   0.00856   1.90606
   A29        1.89279   0.00067  -0.00230   0.01487   0.01259   1.90538
   A30        1.93332  -0.00048   0.00091  -0.00547  -0.00456   1.92875
   A31        1.92227  -0.00032   0.00253  -0.01081  -0.00830   1.91397
   A32        1.93342  -0.00048   0.00093  -0.00558  -0.00465   1.92876
   A33        1.89314   0.00036  -0.00141   0.00621   0.00480   1.89793
   A34        1.88743   0.00061  -0.00181   0.01038   0.00858   1.89601
   A35        1.89310   0.00036  -0.00139   0.00611   0.00471   1.89781
   A36        1.93670  -0.00003   0.00138  -0.00264  -0.00125   1.93545
   A37        1.92606  -0.00042   0.00140  -0.00743  -0.00605   1.92002
   A38        1.91758  -0.00033   0.00278  -0.01308  -0.01032   1.90726
   A39        1.89280   0.00066  -0.00231   0.01492   0.01262   1.90542
   A40        1.89725   0.00028  -0.00251   0.01068   0.00819   1.90544
   A41        1.89254  -0.00015  -0.00103  -0.00184  -0.00293   1.88961
    D1        3.13966  -0.00053   0.00064  -0.03898  -0.03827   3.10138
    D2        0.02348   0.00020   0.00354   0.00941   0.01288   0.03636
    D3        0.50975   0.00026   0.00142  -0.05375  -0.05233   0.45742
    D4        2.62972   0.00038   0.00622  -0.07302  -0.06682   2.56290
    D5       -1.61639  -0.00074   0.00345  -0.07380  -0.07030  -1.68670
    D6       -2.65755  -0.00048  -0.00147  -0.10279  -0.10427  -2.76182
    D7       -0.53758  -0.00036   0.00333  -0.12205  -0.11877  -0.65634
    D8        1.49949  -0.00148   0.00056  -0.12284  -0.12225   1.37724
    D9        1.61138  -0.00060   0.00345  -0.04810  -0.04466   1.56672
   D10       -1.33212   0.00034  -0.00025   0.02553   0.02520  -1.30692
   D11       -0.49664  -0.00025   0.00093  -0.03175  -0.03082  -0.52747
   D12        2.84304   0.00069  -0.00277   0.04188   0.03904   2.88208
   D13       -2.55821  -0.00064   0.00026  -0.03266  -0.03228  -2.59048
   D14        0.78147   0.00030  -0.00343   0.04097   0.03759   0.81906
   D15       -3.05523   0.00057  -0.00077   0.03550   0.03460  -3.02063
   D16        0.10660  -0.00012  -0.00268   0.01886   0.01625   0.12285
   D17       -0.10747  -0.00029   0.00303  -0.03695  -0.03399  -0.14146
   D18        3.05437  -0.00098   0.00112  -0.05359  -0.05234   3.00203
   D19       -3.13705  -0.00020  -0.00149  -0.00310  -0.00478   3.14136
   D20       -0.01620   0.00037   0.00047   0.01331   0.01397  -0.00223
   D21        1.07706   0.00145   0.00180   0.01777   0.01958   1.09664
   D22       -3.13618   0.00003  -0.00018   0.00262   0.00244  -3.13375
   D23       -1.06684  -0.00139  -0.00214  -0.01237  -0.01452  -1.08136
   D24        3.03052  -0.00192  -0.00238  -0.01910  -0.02150   3.00902
   D25        0.94468  -0.00126  -0.00383  -0.00382  -0.00771   0.93696
   D26       -1.15381  -0.00180  -0.00281  -0.01575  -0.01860  -1.17242
[...]
 Alpha  occ. eigenvalues --   -1.13865  -1.04813  -0.91632  -0.84525  -0.79041
 Alpha  occ. eigenvalues --   -0.78778  -0.73153  -0.70177  -0.66308  -0.60171
 Alpha  occ. eigenvalues --   -0.59651  -0.59285  -0.56370  -0.55693  -0.54976
 Alpha  occ. eigenvalues --   -0.52292  -0.52245  -0.50909  -0.48939  -0.48641
 Alpha  occ. eigenvalues --   -0.47150  -0.45830  -0.45446  -0.43475  -0.43023
 Alpha  occ. eigenvalues --   -0.41991  -0.40617  -0.40525  -0.38748  -0.36956
 Alpha  occ. eigenvalues --   -0.35634  -0.32994
 Alpha virt. eigenvalues --    0.03761   0.04708   0.06701   0.07385   0.08644
 Alpha virt. eigenvalues --    0.10399   0.10459   0.11882   0.11970   0.13446
 Alpha virt. eigenvalues --    0.13840   0.14847   0.16054   0.16340   0.17325
 Alpha virt. eigenvalues --    0.18154   0.18374   0.18682   0.19695   0.20021
 Alpha virt. eigenvalues --    0.20208   0.21000   0.22571   0.23273   0.24006
 Alpha virt. eigenvalues --    0.25662   0.27269   0.29240   0.30166   0.30496
 Alpha virt. eigenvalues --    0.30883   0.31912   0.32884   0.33587   0.34944
 Alpha virt. eigenvalues --    0.35503   0.36502   0.37830   0.38560   0.38722
 Alpha virt. eigenvalues --    0.39297   0.39934   0.40542   0.41870   0.42598
 Alpha virt. eigenvalues --    0.44301   0.44951   0.45059   0.45780   0.47017
 Alpha virt. eigenvalues --    0.47707   0.47975   0.48246   0.48586   0.49231
 Alpha virt. eigenvalues --    0.50316   0.50940   0.51142   0.52300   0.52764
 Alpha virt. eigenvalues --    0.53112   0.54458   0.55386   0.55889   0.56321
 Alpha virt. eigenvalues --    0.57231   0.59513   0.60457   0.61108   0.61390
 Alpha virt. eigenvalues --    0.63554   0.63986   0.65719   0.66617   0.68208
 Alpha virt. eigenvalues --    0.69391   0.70441   0.72270   0.73101   0.73566
 Alpha virt. eigenvalues --    0.75936   0.79096   0.79704   0.82656   0.84674
 Alpha virt. eigenvalues --    0.85249   0.86253   0.86736   0.87856   0.90213
 Alpha virt. eigenvalues --    0.90851   0.92499   0.93344   0.94952   0.96211
 Alpha virt. eigenvalues --    0.98016   0.98959   0.99692   1.00939   1.02112
 Alpha virt. eigenvalues --    1.03234   1.03949   1.04423   1.05231   1.07037
 Alpha virt. eigenvalues --    1.11475   1.12169   1.13632   1.14115   1.15777
 Alpha virt. eigenvalues --    1.16322   1.17620   1.21706   1.24132   1.26061
 Alpha virt. eigenvalues --    1.27437   1.30604   1.32294   1.34387   1.34808
 Alpha virt. eigenvalues --    1.37383   1.39169   1.40076   1.43575   1.44646
 Alpha virt. eigenvalues --    1.46566   1.48647   1.49538   1.51126   1.52919
 Alpha virt. eigenvalues --    1.54772   1.56199   1.57087   1.57552   1.58564
 Alpha virt. eigenvalues --    1.59080   1.60830   1.61795   1.63114   1.63420
 Alpha virt. eigenvalues --    1.63861   1.64919   1.65560   1.66149   1.66990
 Alpha virt. eigenvalues --    1.68229   1.69004   1.70205   1.70902   1.73621
 Alpha virt. eigenvalues --    1.74900   1.76512   1.78800   1.79262   1.81903
 Alpha virt. eigenvalues --    1.82108   1.84312   1.86257   1.88006   1.89045
 Alpha virt. eigenvalues --    1.90347   1.92227   1.93637   1.95844   1.97010
 Alpha virt. eigenvalues --    1.98491   1.99475   2.01048   2.02363   2.03450
 Alpha virt. eigenvalues --    2.04665   2.08318   2.08435   2.10187   2.10342
 Alpha virt. eigenvalues --    2.12199   2.14128   2.16407   2.16949   2.18156
 Alpha virt. eigenvalues --    2.19223   2.20864   2.23327   2.25369   2.26577
 Alpha virt. eigenvalues --    2.27638   2.29777   2.30579   2.30886   2.31747
 Alpha virt. eigenvalues --    2.33688   2.34235   2.34929   2.35501   2.37176
 Alpha virt. eigenvalues --    2.37610   2.40280   2.40828   2.41946   2.42121
 Alpha virt. eigenvalues --    2.44258   2.45752   2.47238   2.49654   2.50419
 Alpha virt. eigenvalues --    2.52527   2.55527   2.55893   2.56618   2.57131
 Alpha virt. eigenvalues --    2.59536   2.60788   2.61371   2.62142   2.65129
 Alpha virt. eigenvalues --    2.66387   2.67461   2.67755   2.68651   2.71337
 Alpha virt. eigenvalues --    2.74763   2.75911   2.77431   2.79706   2.80065
 Alpha virt. eigenvalues --    2.81176   2.82134   2.84590   2.86113   2.86871
 Alpha virt. eigenvalues --    2.88180   2.89815   2.90781   2.92170   2.94087
 Alpha virt. eigenvalues --    2.96414   2.97723   2.99006   3.01955   3.02581
 Alpha virt. eigenvalues --    3.03597   3.06583   3.07395   3.08109   3.10030
 Alpha virt. eigenvalues --    3.11304   3.12475   3.13106   3.15757   3.16504
 Alpha virt. eigenvalues --    3.17459   3.18126   3.19944   3.20526   3.22570
 Alpha virt. eigenvalues --    3.23120   3.24837   3.25886   3.27743   3.30035
 Alpha virt. eigenvalues --    3.30630   3.32240   3.32802   3.33055   3.33387
 Alpha virt. eigenvalues --    3.34183   3.34741   3.35977   3.37233   3.37341
 Alpha virt. eigenvalues --    3.38316   3.39064   3.39996   3.40648   3.43106
 Alpha virt. eigenvalues --    3.43513   3.46863   3.47223   3.50675   3.51815
 Alpha virt. eigenvalues --    3.53788   3.55258   3.58867   3.59571   3.64140
 Alpha virt. eigenvalues --    3.64698   3.66016   3.66174   3.69145   3.72204
 Alpha virt. eigenvalues --    3.73099   3.75847   3.80217   3.82052   3.83159
 Alpha virt. eigenvalues --    3.85399   3.90225   3.93971   3.95591   3.97666
 Alpha virt. eigenvalues --    4.00336   4.02150   4.02460   4.03849   4.04589
 Alpha virt. eigenvalues --    4.08298   4.10576   4.11073   4.11685   4.15253
 Alpha virt. eigenvalues --    4.22819   4.28645   4.32279   4.32956   4.35835
 Alpha virt. eigenvalues --    4.36701   4.38996   4.40582   4.42797   4.43869
 Alpha virt. eigenvalues --    4.46173   4.49551   4.52582   4.53744   4.63623
 Alpha virt. eigenvalues --    4.66096   4.70164   4.72904   4.75171   4.82354
 Alpha virt. eigenvalues --    4.84020   4.85798   4.87671   4.90178   4.97701
 Alpha virt. eigenvalues --    5.01632   5.09838   5.15204   5.16394   5.16860
 Alpha virt. eigenvalues --    5.20134   5.20981   5.24185   5.26427   5.30011
 Alpha virt. eigenvalues --    5.35549   5.36031   5.38133   5.40412   5.42157
 Alpha virt. eigenvalues --    5.48866   5.51440   5.56284   5.59788   5.67158
 Alpha virt. eigenvalues --    5.71241   5.74473   5.77902   5.87616   5.88145
 Alpha virt. eigenvalues --    5.92950   6.02810   6.12132   6.14831   6.18770
 Alpha virt. eigenvalues --    6.20698   6.24050   6.32162   6.34923   6.39957
 Alpha virt. eigenvalues --    6.40856   6.44165   6.46837   6.54568   6.63379
 Alpha virt. eigenvalues --    6.67331   6.68292   6.70353   6.75332   6.79965
 Alpha virt. eigenvalues --    6.80652   6.88426   6.90601   6.94890   7.06292
 Alpha virt. eigenvalues --    7.07359   7.08362   7.14649   7.29627   7.38699
 Alpha virt. eigenvalues --    7.42517  22.48550  22.52202  22.53613  22.61767
 Alpha virt. eigenvalues --   22.71048  23.28582  23.54023  32.57426  43.91430
 Alpha virt. eigenvalues --   43.98416  44.09442  44.57346
          Condensed to atoms (all electrons):
               1          2          3          4          5          6
     1  O    7.928917   0.381051  -0.124866   0.011392  -0.000764  -0.000056
     2  C    0.381051   4.462805   0.265399  -0.027493   0.006901  -0.000208
     3  C   -0.124866   0.265399   5.290488   0.132451  -0.037380   0.004486
     4  N    0.011392  -0.027493   0.132451   6.706273   0.403341  -0.106661
     5  C   -0.000764   0.006901  -0.037380   0.403341   4.258288   0.368984
     6  O   -0.000056  -0.000208   0.004486  -0.106661   0.368984   8.058238
     7  C   -0.000254   0.000034  -0.001447   0.009734  -0.048314   0.171718
     8  C   -0.000001  -0.000010   0.000123  -0.001743  -0.009286  -0.040196
     9  C   -0.000012   0.000012  -0.000086   0.000337  -0.001662  -0.055059
    10  C    0.000226   0.000056   0.000549  -0.002225  -0.004478  -0.041131
    11  O   -0.000354   0.001398   0.003702  -0.096037   0.598462  -0.074754
    12  O   -0.089987   0.672461  -0.094608   0.009023  -0.000248  -0.000000
    13  H    0.291106  -0.027520   0.021260  -0.002718  -0.000302   0.000029
    14  H    0.002977  -0.038674   0.392065  -0.011591  -0.015946   0.000717
    15  H    0.002244  -0.040413   0.405251  -0.028206   0.003927   0.000003
    16  H    0.002223  -0.005941  -0.032369   0.381407  -0.046802   0.007388
    17  H   -0.000000  -0.000000  -0.000008   0.000040   0.001981   0.004925
    18  H    0.000000   0.000001   0.000024   0.000102  -0.002183   0.001355
    19  H    0.000000   0.000006  -0.000170   0.000518  -0.004551  -0.002500
    20  H   -0.000001  -0.000000  -0.000005  -0.000073  -0.000858  -0.000670
    21  H   -0.000000   0.000000  -0.000001   0.000006   0.000389   0.005650
    22  H    0.000000  -0.000000   0.000004  -0.000008  -0.000615  -0.000449
    23  H    0.000028   0.000053  -0.000009   0.000290  -0.004595  -0.002579
    24  H    0.000314   0.000026  -0.000085   0.000155  -0.002078   0.001441
    25  H    0.000010   0.000000   0.000005  -0.000006   0.001570   0.005090
               7          8          9         10         11         12
     1  O   -0.000254  -0.000001  -0.000012   0.000226  -0.000354  -0.089987
     2  C    0.000034  -0.000010   0.000012   0.000056   0.001398   0.672461
     3  C   -0.001447   0.000123  -0.000086   0.000549   0.003702  -0.094608
     4  N    0.009734  -0.001743   0.000337  -0.002225  -0.096037   0.009023
     5  C   -0.048314  -0.009286  -0.001662  -0.004478   0.598462  -0.000248
     6  O    0.171718  -0.040196  -0.055059  -0.041131  -0.074754  -0.000000
     7  C    5.055212   0.302378   0.309465   0.296496   0.041549  -0.000001
     8  C    0.302378   5.232176  -0.096173  -0.097987  -0.030128  -0.000000
     9  C    0.309465  -0.096173   5.152290  -0.096341   0.001238   0.000000
    10  C    0.296496  -0.097987  -0.096341   5.235907  -0.029113  -0.000001
    11  O    0.041549  -0.030128   0.001238  -0.029113   7.977536  -0.000086
    12  O   -0.000001  -0.000000   0.000000  -0.000001  -0.000086   7.813590
    13  H   -0.000004   0.000001  -0.000001   0.000013   0.000031   0.006641
    14  H   -0.000144   0.000054   0.000003   0.000026   0.010790   0.006776
    15  H   -0.000005  -0.000005  -0.000004   0.000004   0.001247   0.003312
    16  H   -0.000724   0.000288  -0.000299   0.000347   0.003597   0.000150
    17  H   -0.023611   0.397759  -0.012944  -0.006120   0.000759   0.000000
    18  H   -0.030843   0.396803  -0.010387   0.013279  -0.000197  -0.000000
    19  H   -0.024440   0.407930   0.011735  -0.010468   0.008010   0.000000
    20  H   -0.028328   0.013626   0.404061  -0.012970   0.000003  -0.000000
    21  H   -0.027539  -0.009740   0.408267  -0.009661   0.000079  -0.000000
    22  H   -0.028775  -0.012682   0.403992   0.013648   0.000006   0.000000
    23  H   -0.024460  -0.010352   0.011606   0.408789   0.007688  -0.000001
    24  H   -0.030677   0.013214  -0.010418   0.395535  -0.000272   0.000001
    25  H   -0.023373  -0.005758  -0.012721   0.397044   0.000688  -0.000000
              13         14         15         16         17         18
     1  O    0.291106   0.002977   0.002244   0.002223  -0.000000   0.000000
     2  C   -0.027520  -0.038674  -0.040413  -0.005941  -0.000000   0.000001
     3  C    0.021260   0.392065   0.405251  -0.032369  -0.000008   0.000024
     4  N   -0.002718  -0.011591  -0.028206   0.381407   0.000040   0.000102
     5  C   -0.000302  -0.015946   0.003927  -0.046802   0.001981  -0.002183
     6  O    0.000029   0.000717   0.000003   0.007388   0.004925   0.001355
     7  C   -0.000004  -0.000144  -0.000005  -0.000724  -0.023611  -0.030843
     8  C    0.000001   0.000054  -0.000005   0.000288   0.397759   0.396803
     9  C   -0.000001   0.000003  -0.000004  -0.000299  -0.012944  -0.010387
    10  C    0.000013   0.000026   0.000004   0.000347  -0.006120   0.013279
    11  O    0.000031   0.010790   0.001247   0.003597   0.000759  -0.000197
    12  O    0.006641   0.006776   0.003312   0.000150   0.000000  -0.000000
    13  H    0.373255  -0.000789  -0.000579  -0.000291  -0.000000   0.000000
    14  H   -0.000789   0.459037  -0.008379   0.005358   0.000000  -0.000013
    15  H   -0.000579  -0.008379   0.487538  -0.003528   0.000000   0.000000
    16  H   -0.000291   0.005358  -0.003528   0.437217  -0.000006  -0.000004
    17  H   -0.000000   0.000000   0.000000  -0.000006   0.528241  -0.021528
    18  H    0.000000  -0.000013   0.000000  -0.000004  -0.021528   0.520539
    19  H   -0.000000   0.000065   0.000001  -0.000049  -0.019050  -0.020523
    20  H    0.000000  -0.000000  -0.000000   0.000046  -0.000068  -0.000328
    21  H    0.000000  -0.000000   0.000000   0.000007   0.001383   0.000712
    22  H   -0.000000  -0.000001   0.000000   0.000005   0.000620   0.002773
    23  H    0.000003  -0.000017  -0.000000  -0.000106   0.000385  -0.000106
    24  H    0.000004   0.000001  -0.000001   0.000048  -0.000113  -0.000506
    25  H    0.000001  -0.000002  -0.000000  -0.000010  -0.000105  -0.000126
              19         20         21         22         23         24
     1  O    0.000000  -0.000001  -0.000000   0.000000   0.000028   0.000314
     2  C    0.000006  -0.000000   0.000000  -0.000000   0.000053   0.000026
     3  C   -0.000170  -0.000005  -0.000001   0.000004  -0.000009  -0.000085
     4  N    0.000518  -0.000073   0.000006  -0.000008   0.000290   0.000155
     5  C   -0.004551  -0.000858   0.000389  -0.000615  -0.004595  -0.002078
     6  O   -0.002500  -0.000670   0.005650  -0.000449  -0.002579   0.001441
     7  C   -0.024440  -0.028328  -0.027539  -0.028775  -0.024460  -0.030677
     8  C    0.407930   0.013626  -0.009740  -0.012682  -0.010352   0.013214
     9  C    0.011735   0.404061   0.408267   0.403992   0.011606  -0.010418
    10  C   -0.010468  -0.012970  -0.009661   0.013648   0.408789   0.395535
    11  O    0.008010   0.000003   0.000079   0.000006   0.007688  -0.000272
    12  O    0.000000  -0.000000  -0.000000   0.000000  -0.000001   0.000001
    13  H   -0.000000   0.000000   0.000000  -0.000000   0.000003   0.000004
    14  H    0.000065  -0.000000  -0.000000  -0.000001  -0.000017   0.000001
    15  H    0.000001  -0.000000   0.000000   0.000000  -0.000000  -0.000001
    16  H   -0.000049   0.000046   0.000007   0.000005  -0.000106   0.000048
    17  H   -0.019050  -0.000068   0.001383   0.000620   0.000385  -0.000113
    18  H   -0.020523  -0.000328   0.000712   0.002773  -0.000106  -0.000506
    19  H    0.465703  -0.000356  -0.000061  -0.000136   0.002236  -0.000110
    20  H   -0.000356   0.515850  -0.023368  -0.021398  -0.000138   0.002744
    21  H   -0.000061  -0.023368   0.532323  -0.023183  -0.000055   0.000722
    22  H   -0.000136  -0.021398  -0.023183   0.514222  -0.000346  -0.000333
    23  H    0.002236  -0.000138  -0.000055  -0.000346   0.465127  -0.020656
    24  H   -0.000110   0.002744   0.000722  -0.000333  -0.020656   0.523043
    25  H    0.000293   0.000627   0.001397  -0.000080  -0.019170  -0.021518
              25
     1  O    0.000010
     2  C    0.000000
     3  C    0.000005
     4  N   -0.000006
     5  C    0.001570
     6  O    0.005090
     7  C   -0.023373
     8  C   -0.005758
     9  C   -0.012721
    10  C    0.397044
    11  O    0.000688
    12  O   -0.000000
    13  H    0.000001
    14  H   -0.000002
    15  H   -0.000000
    16  H   -0.000010
    17  H   -0.000105
    18  H   -0.000126
    19  H    0.000293
    20  H    0.000627
    21  H    0.001397
    22  H   -0.000080
    23  H   -0.019170
    24  H   -0.021518
    25  H    0.528894
 Mulliken charges:
               1
     1  O   -0.404195
     2  C    0.350057
     3  C   -0.224772
     4  N   -0.378309
     5  C    0.536221
     6  O   -0.305760
     7  C    0.106352
     8  C   -0.450291
     9  C   -0.406900
    10  C   -0.451426
    11  O   -0.425842
    12  O   -0.327022
    13  H    0.339861
    14  H    0.197687
    15  H    0.177594
    16  H    0.252046
    17  H    0.147460
    18  H    0.151153
    19  H    0.185917
    20  H    0.151604
    21  H    0.142673
    22  H    0.152736
    23  H    0.186386
    24  H    0.149519
    25  H    0.147253
 Sum of Mulliken charges =  -0.00000
 Mulliken charges with hydrogens summed into heavy atoms:
               1
     1  O   -0.064334
     2  C    0.350057
     3  C    0.150508
     4  N   -0.126263
     5  C    0.536221
     6  O   -0.305760
     7  C    0.106352
     8  C    0.034240
     9  C    0.040112
    10  C    0.031732
    11  O   -0.425842
    12  O   -0.327022
 Electronic spatial extent (au):  <R**2>=           2725.9269
 Charge=             -0.0000 electrons
 Dipole moment (field-independent basis, Debye):
    X=              1.9583    Y=              1.3918    Z=             -2.4400  Tot=              3.4242
 Quadrupole moment (field-independent basis, Debye-Ang):
   XX=            -76.2725   YY=            -67.7563   ZZ=            -72.8910
   XY=             -1.2112   XZ=              5.8940   YZ=              2.5085
 Traceless Quadrupole moment (field-independent basis, Debye-Ang):
   XX=             -3.9659   YY=              4.5503   ZZ=             -0.5844
   XY=             -1.2112   XZ=              5.8940   YZ=              2.5085
 Octapole moment (field-independent basis, Debye-Ang**2):
  XXX=             68.0305  YYY=             15.3991  ZZZ=             -9.6991  XYY=            -25.1354
  XXY=              9.2985  XXZ=            -15.4943  XZZ=            -10.0905  YZZ=              2.2876
  YYZ=              0.9230  XYZ=             -2.7087
 Hexadecapole moment (field-independent basis, Debye-Ang**3):
 XXXX=          -3083.8004 YYYY=           -409.0718 ZZZZ=           -337.6839 XXXY=            -30.4018
 XXXZ=             87.5006 YYYX=            -55.2042 YYYZ=              0.3536 ZZZX=              4.7132
 ZZZY=              2.1356 XXYY=           -471.9235 XXZZ=           -512.3507 YYZZ=           -134.5255
 XXYZ=             12.9002 YYXZ=             -9.0366 ZZXY=             -2.9123
 N-N= 7.595704497750D+02 E-N=-2.993958631464D+03  KE= 6.271352455732D+02
 Unable to Open any file for archive entry.
 1\1\GINC-NOTCH208\SP\RM062X\def2TZVP\C7H13N1O4\U6032257\05-Feb-2022\0\
 \# M062X/def2tzvp int=(grid=ultrafine) nmr=giao guess=read geom=check\
 \Ac2.xyz\\0,1\O,0,4.0961586214,0.0626600025,-0.4313921134\C,0,3.770115
 5648,-0.8373782218,0.5232695276\C,0,2.2870300269,-0.8208362429,0.87648
 72382\N,0,1.4659127177,0.1111726622,0.1461488608\C,0,1.0441011126,-0.2
 293912096,-1.118404487\O,0,0.5633108768,0.8684723892,-1.7378375547\C,0
 ,0.0209215727,0.7764426033,-3.1020949727\C,0,-1.1959732183,-0.14976614
 34,-3.1172485091\C,0,-0.3885808103,2.2189571898,-3.3940849155\C,0,1.11
 58734541,0.3148857167,-4.0652274828\O,0,1.0860435332,-1.3635894649,-1.
 5635679754\O,0,4.5739915615,-1.5716298423,1.0492569049\H,0,5.049031543
 9,-0.0487565227,-0.5885696273\H,0,1.9105177593,-1.8290198523,0.6908159
 178\H,0,2.2104600882,-0.6349313531,1.9516416442\H,0,1.6046718897,1.098
 4594418,0.3054492191\H,0,-1.6632710636,-0.1225937647,-4.1064302109\H,0
 ,-1.9337831693,0.1844480815,-2.3817338011\H,0,-0.9069013811,-1.1754805
 682,-2.8900281086\H,0,0.4775628292,2.8839005272,-3.3363758917\H,0,-0.8
 155344586,2.2900488315,-4.3982891849\H,0,-1.1363939492,2.5599503196,-2
 .6729399231\H,0,1.4194579076,-0.7087609072,-3.8480039956\H,0,1.9886102
 442,0.969854493,-3.9851272705\H,0,0.7432667466,0.3651818351,-5.0929132
 884\\Version=ES64L-G16RevC.01\State=1-A\HF=-630.2673614\RMSD=1.909e-09
 \Dipole=-0.2720594,1.2851642,-0.2987869\Quadrupole=0.7815919,-3.738165
 5,2.9565736,3.5385427,-2.1976686,2.1542897\PG=C01 [X(C7H13N1O4)]\\@
 The archive entry for this job was punched.


 THE RED LIGHT IS ALWAYS LONGER THAN THE GREEN LIGHT.

                     -- PETER'S THEORY OF RELATIVITY
 Job cpu time:       0 days  0 hours 35 minutes 26.5 seconds.
 Elapsed time:       0 days  0 hours  0 minutes 48.3 seconds.
 File lengths (MBytes):  RWF=    117 Int=      0 D2E=      0 Chk=     20 Scr=      1
 Normal termination of Gaussian 16 at Sat Feb  5 09:07:44 2022.
