 Entering Gaussian System, Link 0=/uufs/chpc.utah.edu/sys/installdir/gaussian16/C01/AVX2/g16/g16
 Input=Ac2_conf-2.com
 Output=Ac2_conf-2.log
 Initial command:
 /uufs/chpc.utah.edu/sys/installdir/gaussian16/C01/AVX2/g16/l1.exe "/scratch/general/lustre/u6032257/3867919/notchpeak.peaks/Gau-141922.inp" -scrdir="/scratch/general/lustre/u6032257/3867919/notchpeak.peaks/"
 Entering Link 1 = /uufs/chpc.utah.edu/sys/installdir/gaussian16/C01/AVX2/g16/l1.exe PID=    141925.
  
 Copyright (c) 1988-2019, Gaussian, Inc.  All Rights Reserved.
  
 This is part of the Gaussian(R) 16 program.  It is based on
 the Gaussian(R) 09 system (copyright 2009, Gaussian, Inc.),
 the Gaussian(R) 03 system (copyright 2003, Gaussian, Inc.),
 the Gaussian(R) 98 system (copyright 1998, Gaussian, Inc.),
 the Gaussian(R) 94 system (copyright 1995, Gaussian, Inc.),
 the Gaussian 92(TM) system (copyright 1992, Gaussian, Inc.),
 the Gaussian 90(TM) system (copyright 1990, Gaussian, Inc.),
 the Gaussian 88(TM) system (copyright 1988, Gaussian, Inc.),
 the Gaussian 86(TM) system (copyright 1986, Carnegie Mellon
 University), and the Gaussian 82(TM) system (copyright 1983,
 Carnegie Mellon University). Gaussian is a federally registered
 trademark of Gaussian, Inc.
  
 This software contains proprietary and confidential information,
 including trade secrets, belonging to Gaussian, Inc.
  
 This software is provided under written license and may be
 used, copied, transmitted, or stored only in accord with that
 written license.
  
 The following legend is applicable only to US Government
 contracts under FAR:
  
                    RESTRICTED RIGHTS LEGEND
  
 Use, reproduction and disclosure by the US Government is
 subject to restrictions as set forth in subparagraphs (a)
 and (c) of the Commercial Computer Software - Restricted
 Rights clause in FAR 52.227-19.
  
 Gaussian, Inc.
 340 Quinnipiac St., Bldg. 40, Wallingford CT 06492
  
  
 ---------------------------------------------------------------
 Warning -- This program may not be used in any manner that
 competes with the business of Gaussian, Inc. or will provide
 assistance to any competitor of Gaussian, Inc.  The licensee
 of this program is prohibited from giving any competitor of
 Gaussian, Inc. access to this program.  By using this program,
 the user acknowledges that Gaussian, Inc. is engaged in the
 business of creating and licensing software in the field of
 computational chemistry and represents and warrants to the
 licensee that it is not a competitor of Gaussian, Inc. and that
 it will not use this program in any manner prohibited above.
 ---------------------------------------------------------------
  

 Cite this work as:
 Gaussian 16, Revision C.01,
 M. J. Frisch, G. W. Trucks, H. B. Schlegel, G. E. Scuseria, 
 M. A. Robb, J. R. Cheeseman, G. Scalmani, V. Barone, 
 G. A. Petersson, H. Nakatsuji, X. Li, M. Caricato, A. V. Marenich, 
 J. Bloino, B. G. Janesko, R. Gomperts, B. Mennucci, H. P. Hratchian, 
 J. V. Ortiz, A. F. Izmaylov, J. L. Sonnenberg, D. Williams-Young, 
 F. Ding, F. Lipparini, F. Egidi, J. Goings, B. Peng, A. Petrone, 
 T. Henderson, D. Ranasinghe, V. G. Zakrzewski, J. Gao, N. Rega, 
 G. Zheng, W. Liang, M. Hada, M. Ehara, K. Toyota, R. Fukuda, 
 J. Hasegawa, M. Ishida, T. Nakajima, Y. Honda, O. Kitao, H. Nakai, 
 T. Vreven, K. Throssell, J. A. Montgomery, Jr., J. E. Peralta, 
 F. Ogliaro, M. J. Bearpark, J. J. Heyd, E. N. Brothers, K. N. Kudin, 
 V. N. Staroverov, T. A. Keith, R. Kobayashi, J. Normand, 
 K. Raghavachari, A. P. Rendell, J. C. Burant, S. S. Iyengar, 
 J. Tomasi, M. Cossi, J. M. Millam, M. Klene, C. Adamo, R. Cammi, 
 J. W. Ochterski, R. L. Martin, K. Morokuma, O. Farkas, 
 J. B. Foresman, and D. J. Fox, Gaussian, Inc., Wallingford CT, 2019.
 
 ******************************************
 Gaussian 16:  ES64L-G16RevC.01  3-Jul-2019
                 5-Feb-2022 
 ******************************************
 %NProcShared=52
 Will use up to   52 processors via shared memory.
 %mem=16GB
 %chk=Ac2_conf-2.chk
 ----------------------------------------------------------------------
 # B3LYP/6-31G(d,p) empiricaldispersion=GD3BJ int=(grid=ultrafine) opt 
 freq=noraman
 ----------------------------------------------------------------------
 1/18=20,19=15,26=4,38=1/1,3;
 2/9=110,12=2,17=6,18=5,40=1/2;
 3/5=1,6=6,7=101,11=2,25=1,30=1,71=1,74=-5,75=-5,124=41/1,2,3;
 4//1;
 5/5=2,38=5/2;
 6/7=2,8=2,9=2,10=2,28=1/1;
 7//1,2,3,16;
 1/18=20,19=15,26=4/3(2);
 2/9=110/2;
 99//99;
 2/9=110/2;
 3/5=1,6=6,7=101,11=2,25=1,30=1,71=1,74=-5,75=-5,124=41/1,2,3;
 4/5=5,16=3,69=1/1;
 5/5=2,38=5/2;
 7//1,2,3,16;
 1/18=20,19=15,26=4/3(-5);
 2/9=110/2;
 6/7=2,8=2,9=2,10=2,19=2,28=1/1;
 99/9=1/99;
 -------
 Ac2.xyz
 -------
 Symbolic Z-matrix:
 Charge =  0 Multiplicity = 1
 O                     4.6165   -1.288     1.3008 
 C                     3.9169   -0.3884    0.5748 
 C                     3.8492   -0.8237   -0.8963 
 N                     2.9177    0.0409   -1.6472 
 C                     1.6186   -0.3231   -1.9318 
 O                     1.0065    0.7185   -2.5299 
 C                    -0.3638    0.7291   -2.9454 
 C                    -0.5552    2.1312   -3.5438 
 C                    -0.6371   -0.3274   -4.0358 
 C                    -1.3232    0.5558   -1.7496 
 O                     1.1089   -1.4129   -1.6849 
 O                     3.4441    0.6246    1.0364 
 H                     4.5934   -0.9509    2.1975 
 H                     4.8508   -0.7482   -1.3174 
 H                     3.5606   -1.8767   -0.9428 
 H                     3.169     0.9932   -1.8548 
 H                    -0.3508    2.9078   -2.8058 
 H                    -1.573     2.2786   -3.9052 
 H                     0.1214    2.3003   -4.3821 
 H                    -1.6416   -0.2269   -4.4463 
 H                    -0.5471   -1.342    -3.6474 
 H                     0.0706   -0.2354   -4.8595 
 H                    -2.3619    0.7013   -2.0455 
 H                    -1.0983    1.2708   -0.9581 
 H                    -1.248    -0.4397   -1.3118 
 

 GradGradGradGradGradGradGradGradGradGradGradGradGradGradGradGradGradGrad
 Berny optimization.
 Initialization pass.
                           ----------------------------
                           !    Initial Parameters    !
                           ! (Angstroms and Degrees)  !
 --------------------------                            --------------------------
 ! Name  Definition              Value          Derivative Info.                !
 --------------------------------------------------------------------------------
 ! R1    R(1,2)                  1.3512         estimate D2E/DX2                !
 ! R2    R(1,13)                 0.9582         estimate D2E/DX2                !
 ! R3    R(2,3)                  1.5356         estimate D2E/DX2                !
 ! R4    R(2,12)                 1.2095         estimate D2E/DX2                !
 ! R5    R(3,4)                  1.4762         estimate D2E/DX2                !
 ! R6    R(3,14)                 1.0891         estimate D2E/DX2                !
 ! R7    R(3,15)                 1.0928         estimate D2E/DX2                !
 ! R8    R(4,5)                  1.3788         estimate D2E/DX2                !
 ! R9    R(4,16)                 1.0065         estimate D2E/DX2                !
 ! R10   R(5,6)                  1.3481         estimate D2E/DX2                !
 ! R11   R(5,11)                 1.2282         estimate D2E/DX2                !
 ! R12   R(6,7)                  1.4319         estimate D2E/DX2                !
 ! R13   R(7,8)                  1.5364         estimate D2E/DX2                !
 ! R14   R(7,9)                  1.5427         estimate D2E/DX2                !
 ! R15   R(7,10)                 1.5429         estimate D2E/DX2                !
 ! R16   R(8,17)                 1.0907         estimate D2E/DX2                !
 ! R17   R(8,18)                 1.0901         estimate D2E/DX2                !
 ! R18   R(8,19)                 1.0905         estimate D2E/DX2                !
 ! R19   R(9,20)                 1.0898         estimate D2E/DX2                !
 ! R20   R(9,21)                 1.0901         estimate D2E/DX2                !
 ! R21   R(9,22)                 1.0899         estimate D2E/DX2                !
 ! R22   R(10,23)                1.0898         estimate D2E/DX2                !
 ! R23   R(10,24)                1.0901         estimate D2E/DX2                !
 ! R24   R(10,25)                1.0901         estimate D2E/DX2                !
 ! A1    A(2,1,13)             104.8383         estimate D2E/DX2                !
 ! A2    A(1,2,3)              110.4147         estimate D2E/DX2                !
 ! A3    A(1,2,12)             123.7082         estimate D2E/DX2                !
 ! A4    A(3,2,12)             125.8598         estimate D2E/DX2                !
 ! A5    A(2,3,4)              110.4319         estimate D2E/DX2                !
 ! A6    A(2,3,14)             108.0708         estimate D2E/DX2                !
 ! A7    A(2,3,15)             108.9982         estimate D2E/DX2                !
 ! A8    A(4,3,14)             110.0616         estimate D2E/DX2                !
 ! A9    A(4,3,15)             112.0906         estimate D2E/DX2                !
 ! A10   A(14,3,15)            107.0499         estimate D2E/DX2                !
 ! A11   A(3,4,5)              123.0187         estimate D2E/DX2                !
 ! A12   A(3,4,16)             120.1001         estimate D2E/DX2                !
 ! A13   A(5,4,16)             116.2588         estimate D2E/DX2                !
 ! A14   A(4,5,6)              108.385          estimate D2E/DX2                !
 ! A15   A(4,5,11)             125.7158         estimate D2E/DX2                !
 ! A16   A(6,5,11)             125.8989         estimate D2E/DX2                !
 ! A17   A(5,6,7)              124.6778         estimate D2E/DX2                !
 ! A18   A(6,7,8)              103.8263         estimate D2E/DX2                !
 ! A19   A(6,7,9)              111.6883         estimate D2E/DX2                !
 ! A20   A(6,7,10)             111.6747         estimate D2E/DX2                !
 ! A21   A(8,7,9)              109.124          estimate D2E/DX2                !
 ! A22   A(8,7,10)             109.0809         estimate D2E/DX2                !
 ! A23   A(9,7,10)             111.1455         estimate D2E/DX2                !
 ! A24   A(7,8,17)             111.2789         estimate D2E/DX2                !
 ! A25   A(7,8,18)             111.6441         estimate D2E/DX2                !
 ! A26   A(7,8,19)             111.3232         estimate D2E/DX2                !
 ! A27   A(17,8,18)            107.6402         estimate D2E/DX2                !
 ! A28   A(17,8,19)            107.0664         estimate D2E/DX2                !
 ! A29   A(18,8,19)            107.6674         estimate D2E/DX2                !
 ! A30   A(7,9,20)             111.4928         estimate D2E/DX2                !
 ! A31   A(7,9,21)             111.7737         estimate D2E/DX2                !
 ! A32   A(7,9,22)             111.1836         estimate D2E/DX2                !
 ! A33   A(20,9,21)            107.2257         estimate D2E/DX2                !
 ! A34   A(20,9,22)            107.8219         estimate D2E/DX2                !
 ! A35   A(21,9,22)            107.1118         estimate D2E/DX2                !
 ! A36   A(7,10,23)            111.5457         estimate D2E/DX2                !
 ! A37   A(7,10,24)            111.1489         estimate D2E/DX2                !
 ! A38   A(7,10,25)            111.7741         estimate D2E/DX2                !
 ! A39   A(23,10,24)           107.8317         estimate D2E/DX2                !
 ! A40   A(23,10,25)           107.2608         estimate D2E/DX2                !
 ! A41   A(24,10,25)           107.0465         estimate D2E/DX2                !
 ! D1    D(13,1,2,3)          -178.8806         estimate D2E/DX2                !
 ! D2    D(13,1,2,12)            2.5534         estimate D2E/DX2                !
 ! D3    D(1,2,3,4)            171.3327         estimate D2E/DX2                !
 ! D4    D(1,2,3,14)           -68.2294         estimate D2E/DX2                !
 ! D5    D(1,2,3,15)            47.7802         estimate D2E/DX2                !
 ! D6    D(12,2,3,4)           -10.1392         estimate D2E/DX2                !
 ! D7    D(12,2,3,14)          110.2987         estimate D2E/DX2                !
 ! D8    D(12,2,3,15)         -133.6916         estimate D2E/DX2                !
 ! D9    D(2,3,4,5)            -99.0708         estimate D2E/DX2                !
 ! D10   D(2,3,4,16)            71.5416         estimate D2E/DX2                !
 ! D11   D(14,3,4,5)           141.6909         estimate D2E/DX2                !
 ! D12   D(14,3,4,16)          -47.6967         estimate D2E/DX2                !
 ! D13   D(15,3,4,5)            22.6725         estimate D2E/DX2                !
 ! D14   D(15,3,4,16)         -166.7151         estimate D2E/DX2                !
 ! D15   D(3,4,5,6)            175.1845         estimate D2E/DX2                !
 ! D16   D(3,4,5,11)            -5.003          estimate D2E/DX2                !
 ! D17   D(16,4,5,6)             4.238          estimate D2E/DX2                !
 ! D18   D(16,4,5,11)         -175.9495         estimate D2E/DX2                !
 ! D19   D(4,5,6,7)           -178.4518         estimate D2E/DX2                !
 ! D20   D(11,5,6,7)             1.7361         estimate D2E/DX2                !
 ! D21   D(5,6,7,8)            179.4208         estimate D2E/DX2                !
 ! D22   D(5,6,7,9)            -63.1291         estimate D2E/DX2                !
 ! D23   D(5,6,7,10)            62.0282         estimate D2E/DX2                !
 ! D24   D(6,7,8,17)           -59.6537         estimate D2E/DX2                !
 ! D25   D(6,7,8,18)          -179.9469         estimate D2E/DX2                !
 ! D26   D(6,7,8,19)            59.6949         estimate D2E/DX2                !
 ! D27   D(9,7,8,17)          -178.8731         estimate D2E/DX2                !
 ! D28   D(9,7,8,18)            60.8338         estimate D2E/DX2                !
 ! D29   D(9,7,8,19)           -59.5244         estimate D2E/DX2                !
 ! D30   D(10,7,8,17)           59.5293         estimate D2E/DX2                !
 ! D31   D(10,7,8,18)          -60.7638         estimate D2E/DX2                !
 ! D32   D(10,7,8,19)          178.878          estimate D2E/DX2                !
 ! D33   D(6,7,9,20)          -172.2225         estimate D2E/DX2                !
 ! D34   D(6,7,9,21)            67.7772         estimate D2E/DX2                !
 ! D35   D(6,7,9,22)           -51.8664         estimate D2E/DX2                !
 ! D36   D(8,7,9,20)           -58.0104         estimate D2E/DX2                !
 ! D37   D(8,7,9,21)          -178.0107         estimate D2E/DX2                !
 ! D38   D(8,7,9,22)            62.3457         estimate D2E/DX2                !
 ! D39   D(10,7,9,20)           62.3272         estimate D2E/DX2                !
 ! D40   D(10,7,9,21)          -57.6731         estimate D2E/DX2                !
 ! D41   D(10,7,9,22)         -177.3167         estimate D2E/DX2                !
 ! D42   D(6,7,10,23)          172.1352         estimate D2E/DX2                !
 ! D43   D(6,7,10,24)           51.7545         estimate D2E/DX2                !
 ! D44   D(6,7,10,25)          -67.783          estimate D2E/DX2                !
 ! D45   D(8,7,10,23)           57.9562         estimate D2E/DX2                !
 ! D46   D(8,7,10,24)          -62.4245         estimate D2E/DX2                !
 ! D47   D(8,7,10,25)          178.038          estimate D2E/DX2                !
 ! D48   D(9,7,10,23)          -62.4069         estimate D2E/DX2                !
 ! D49   D(9,7,10,24)          177.2125         estimate D2E/DX2                !
 ! D50   D(9,7,10,25)           57.675          estimate D2E/DX2                !
 --------------------------------------------------------------------------------
 Trust Radius=3.00D-01 FncErr=1.00D-07 GrdErr=1.00D-06 EigMax=2.50D+02 EigMin=1.00D-04
 Number of steps in this run=    125 maximum allowed number of steps=    150.
 GradGradGradGradGradGradGradGradGradGradGradGradGradGradGradGradGradGrad

                          Input orientation:                          
 ---------------------------------------------------------------------
 Center     Atomic      Atomic             Coordinates (Angstroms)
 Number     Number       Type             X           Y           Z
 ---------------------------------------------------------------------
      1          8           0        4.616500   -1.288000    1.300800
      2          6           0        3.916900   -0.388400    0.574800
      3          6           0        3.849200   -0.823700   -0.896300
      4          7           0        2.917700    0.040900   -1.647200
      5          6           0        1.618600   -0.323100   -1.931800
      6          8           0        1.006500    0.718500   -2.529900
      7          6           0       -0.363800    0.729100   -2.945400
      8          6           0       -0.555200    2.131200   -3.543800
      9          6           0       -0.637100   -0.327400   -4.035800
     10          6           0       -1.323200    0.555800   -1.749600
     11          8           0        1.108900   -1.412900   -1.684900
     12          8           0        3.444100    0.624600    1.036400
     13          1           0        4.593400   -0.950900    2.197500
     14          1           0        4.850800   -0.748200   -1.317400
     15          1           0        3.560600   -1.876700   -0.942800
     16          1           0        3.169000    0.993200   -1.854800
     17          1           0       -0.350800    2.907800   -2.805800
     18          1           0       -1.573000    2.278600   -3.905200
     19          1           0        0.121400    2.300300   -4.382100
     20          1           0       -1.641600   -0.226900   -4.446300
     21          1           0       -0.547100   -1.342000   -3.647400
     22          1           0        0.070600   -0.235400   -4.859500
     23          1           0       -2.361900    0.701300   -2.045500
     24          1           0       -1.098300    1.270800   -0.958100
     25          1           0       -1.248000   -0.439700   -1.311800
 ---------------------------------------------------------------------
                    Distance matrix (angstroms):
                    1          2          3          4          5
     1  O    0.000000
     2  C    1.351220   0.000000
     3  C    2.373093   1.535645   0.000000
     4  N    3.652752   2.473860   1.476169   0.000000
     5  C    4.513107   3.401395   2.509669   1.378823   0.000000
     6  O    5.633152   4.397137   3.623254   2.211557   1.348080
     7  C    6.848525   5.653760   4.935521   3.595439   2.462604
     8  C    7.868136   6.581104   5.927852   4.475207   3.653428
     9  C    7.549991   6.480761   5.498151   4.298565   3.084642
    10  C    6.927090   5.809733   5.420781   4.273270   3.075687
    11  O    4.607956   3.747093   2.911750   2.320929   1.228177
    12  O    2.258864   1.209456   2.448879   2.796339   3.611204
    13  H    0.958249   1.845864   3.184590   4.309682   5.127834
    14  H    2.683515   2.140571   1.089141   2.113841   3.317426
    15  H    2.548575   2.155249   1.092823   2.141656   2.676408
    16  H    4.154147   2.893290   2.163913   1.006541   2.035268
    17  H    7.690447   6.364484   5.933825   4.499396   3.883443
    18  H    8.839286   7.571149   6.933830   5.502023   4.566121
    19  H    8.085615   6.797484   5.983868   4.517063   3.889448
    20  H    8.562646   7.492293   6.565634   5.356668   4.118358
    21  H    7.151948   6.218008   5.211971   4.232972   2.944775
    22  H    7.728031   6.659508   5.507347   4.301301   3.312918
    23  H    7.990814   6.890337   6.498003   5.335630   4.111776
    24  H    6.656503   5.500451   5.372942   4.256262   3.296992
    25  H    6.475929   5.498917   5.128503   4.206724   2.935199
                    6          7          8          9         10
     6  O    0.000000
     7  C    1.431948   0.000000
     8  C    2.337225   1.536425   0.000000
     9  C    2.462329   1.542679   2.508682   0.000000
    10  C    2.462284   1.542861   2.508159   2.545091   0.000000
    11  O    2.295077   2.888922   4.334211   3.123069   3.129709
    12  O    4.320788   5.510513   6.264382   6.579492   5.522108
    13  H    6.164500   7.337960   8.304815   8.160938   7.270206
    14  H    4.289523   5.659050   6.517103   6.138715   6.324989
    15  H    3.972075   5.118742   6.306209   5.439454   5.515386
    16  H    2.282022   3.706728   4.244694   4.581173   4.514670
    17  H    2.590641   2.183207   1.090656   3.472951   2.755544
    18  H    3.313485   2.187311   1.090070   2.772039   2.770749
    19  H    2.591551   2.183620   1.090472   2.756819   3.472781
    20  H    3.402764   2.190755   2.748710   1.089785   2.825985
    21  H    2.812141   2.194506   3.474754   1.090123   2.793854
    22  H    2.685679   2.186948   2.779116   1.089855   3.498593
    23  H    3.403095   2.191574   2.748396   2.827446   1.089782
    24  H    2.684357   2.186845   2.778685   3.498455   1.090081
    25  H    2.812110   2.194664   3.474381   2.793919   1.090112
                   11         12         13         14         15
    11  O    0.000000
    12  O    4.124323   0.000000
    13  H    5.237195   2.269635   0.000000
    14  H    3.818206   3.066555   3.530137   0.000000
    15  H    2.603201   3.191756   3.432967   1.754552   0.000000
    16  H    3.172096   2.927556   4.714825   2.479864   3.036679
    17  H    4.696338   5.863171   8.022948   6.529802   6.454553
    18  H    5.074396   7.233700   9.257273   7.558005   7.238521
    19  H    4.694454   6.573313   8.594197   6.407259   6.411257
    20  H    4.073963   7.526579   9.139993   7.225858   6.485309
    21  H    2.568807   6.460277   7.793623   5.909215   4.947117
    22  H    3.541562   6.847024   8.412426   5.971578   5.496772
    23  H    4.079991   6.573707   8.313183   7.392849   6.552712
    24  H    3.549960   5.002899   6.876715   6.292634   5.622485
    25  H    2.577072   5.353744   6.833628   6.106600   5.032272
                   16         17         18         19         20
    16  H    0.000000
    17  H    4.118141   0.000000
    18  H    5.323810   1.760212   0.000000
    19  H    4.169367   1.754067   1.760368   0.000000
    20  H    5.598785   3.766132   2.564181   3.082050   0.000000
    21  H    4.740883   4.336776   3.771959   3.775318   1.754884
    22  H    4.487512   3.778223   3.151556   2.580749   1.761373
    23  H    5.541879   3.080783   2.562952   3.766069   2.672869
    24  H    4.369323   2.579248   3.150619   3.777739   3.834817
    25  H    4.675248   3.773958   3.771008   4.337003   3.166275
                   21         22         23         24         25
    21  H    0.000000
    22  H    1.753654   0.000000
    23  H    3.167753   3.835761   0.000000
    24  H    3.789839   4.342337   1.761662   0.000000
    25  H    2.600083   3.790332   1.755269   1.753090   0.000000
 Stoichiometry    C7H13NO4
 Framework group  C1[X(C7H13NO4)]
 Deg. of freedom    69
 Full point group                 C1      NOp   1
 Largest Abelian subgroup         C1      NOp   1
 Largest concise Abelian subgroup C1      NOp   1
                         Standard orientation:                         
 ---------------------------------------------------------------------
 Center     Atomic      Atomic             Coordinates (Angstroms)
 Number     Number       Type             X           Y           Z
 ---------------------------------------------------------------------
      1          8           0        4.332331   -0.203978    0.440115
      2          6           0        3.157926    0.332517    0.041691
      3          6           0        2.305366   -0.720969   -0.680467
      4          7           0        0.947105   -0.200479   -0.932047
      5          6           0       -0.134186   -0.504833   -0.132465
      6          8           0       -1.195451    0.205683   -0.563979
      7          6           0       -2.493743    0.178788    0.039501
      8          6           0       -3.314997    1.158806   -0.812385
      9          6           0       -3.132858   -1.222719   -0.045151
     10          6           0       -2.455695    0.686089    1.496078
     11          8           0       -0.129914   -1.292522    0.809843
     12          8           0        2.855465    1.490475    0.216147
     13          1           0        4.787141    0.508629    0.891314
     14          1           0        2.793709   -0.962087   -1.623659
     15          1           0        2.290693   -1.636544   -0.084005
     16          1           0        0.800688    0.513577   -1.626174
     17          1           0       -2.881288    2.159338   -0.793339
     18          1           0       -4.342421    1.237313   -0.456732
     19          1           0       -3.349154    0.844619   -1.856056
     20          1           0       -4.169730   -1.209630    0.290043
     21          1           0       -2.602695   -1.946957    0.573538
     22          1           0       -3.117371   -1.601564   -1.066925
     23          1           0       -3.458638    0.795480    1.908101
     24          1           0       -1.960107    1.654736    1.562361
     25          1           0       -1.910884    0.003108    2.148046
 ---------------------------------------------------------------------
 Rotational constants (GHZ):           2.1768683           0.3981616           0.3852970
 Standard basis: 6-31G(d,p) (6D, 7F)
 There are   245 symmetry adapted cartesian basis functions of A   symmetry.
 There are   245 symmetry adapted basis functions of A   symmetry.
   245 basis functions,   427 primitive gaussians,   245 cartesian basis functions
    47 alpha electrons       47 beta electrons
       nuclear repulsion energy       743.8741815980 Hartrees.
 NAtoms=   25 NActive=   25 NUniq=   25 SFac= 1.00D+00 NAtFMM=   60 NAOKFM=F Big=F
 Integral buffers will be    131072 words long.
 Raffenetti 2 integral format.
 Two-electron integral symmetry is turned on.
 Nuclear repulsion after empirical dispersion term =      743.8362811066 Hartrees.
 One-electron integrals computed using PRISM.
 NBasis=   245 RedAO= T EigKep=  2.75D-03  NBF=   245
 NBsUse=   245 1.00D-06 EigRej= -1.00D+00 NBFU=   245
 ExpMin= 1.61D-01 ExpMax= 5.48D+03 ExpMxC= 8.25D+02 IAcc=3 IRadAn=         5 AccDes= 0.00D+00
 Harris functional with IExCor=  402 and IRadAn=       5 diagonalized for initial guess.
 HarFok:  IExCor=  402 AccDes= 0.00D+00 IRadAn=         5 IDoV= 1 UseB2=F ITyADJ=14
 ICtDFT=  3500011 ScaDFX=  1.000000  1.000000  1.000000  1.000000
 FoFCou: FMM=F IPFlag=           0 FMFlag=      100000 FMFlg1=           0
         NFxFlg=           0 DoJE=T BraDBF=F KetDBF=T FulRan=T
         wScrn=  0.000000 ICntrl=       500 IOpCl=  0 I1Cent=   200000004 NGrid=           0
         NMat0=    1 NMatS0=      1 NMatT0=    0 NMatD0=    1 NMtDS0=    0 NMtDT0=    0
 Petite list used in FoFCou.
 Requested convergence on RMS density matrix=1.00D-08 within 128 cycles.
 Requested convergence on MAX density matrix=1.00D-06.
 Requested convergence on             energy=1.00D-06.
 No special actions if energy rises.
 Integral accuracy reduced to 1.0D-05 until final iterations.
 Initial convergence to 1.0D-05 achieved.  Increase integral accuracy.
 SCF Done:  E(RB3LYP) =  -630.321787489     A.U. after   14 cycles
            NFock= 14  Conv=0.44D-08     -V/T= 2.0093

 **********************************************************************

            Population analysis using the SCF Density.

 **********************************************************************

 Orbital symmetries:
       Occupied  (A) (A) (A) (A) (A) (A) (A) (A) (A) (A) (A) (A)
                 (A) (A) (A) (A) (A) (A) (A) (A) (A) (A) (A) (A)
                 (A) (A) (A) (A) (A) (A) (A) (A) (A) (A) (A) (A)
                 (A) (A) (A) (A) (A) (A) (A) (A) (A) (A) (A)
       Virtual   (A) (A) (A) (A) (A) (A) (A) (A) (A) (A) (A) (A)
                 (A) (A) (A) (A) (A) (A) (A) (A) (A) (A) (A) (A)
                 (A) (A) (A) (A) (A) (A) (A) (A) (A) (A) (A) (A)
                 (A) (A) (A) (A) (A) (A) (A) (A) (A) (A) (A) (A)
                 (A) (A) (A) (A) (A) (A) (A) (A) (A) (A) (A) (A)
                 (A) (A) (A) (A) (A) (A) (A) (A) (A) (A) (A) (A)
                 (A) (A) (A) (A) (A) (A) (A) (A) (A) (A) (A) (A)
                 (A) (A) (A) (A) (A) (A) (A) (A) (A) (A) (A) (A)
                 (A) (A) (A) (A) (A) (A) (A) (A) (A) (A) (A) (A)
                 (A) (A) (A) (A) (A) (A) (A) (A) (A) (A) (A) (A)
                 (A) (A) (A) (A) (A) (A) (A) (A) (A) (A) (A) (A)
                 (A) (A) (A) (A) (A) (A) (A) (A) (A) (A) (A) (A)
                 (A) (A) (A) (A) (A) (A) (A) (A) (A) (A) (A) (A)
                 (A) (A) (A) (A) (A) (A) (A) (A) (A) (A) (A) (A)
                 (A) (A) (A) (A) (A) (A) (A) (A) (A) (A) (A) (A)
                 (A) (A) (A) (A) (A) (A) (A) (A) (A) (A) (A) (A)
                 (A) (A) (A) (A) (A) (A)
 The electronic state is 1-A.
 Alpha  occ. eigenvalues --  -19.20602 -19.17791 -19.14940 -19.11354 -14.36399
 Alpha  occ. eigenvalues --  -10.33229 -10.32965 -10.25567 -10.24980 -10.17483
 Alpha  occ. eigenvalues --  -10.16945 -10.16873  -1.11770  -1.09564  -1.02638
 Alpha  occ. eigenvalues --   -1.00129  -0.92234  -0.80519  -0.75062  -0.68949
 Alpha  occ. eigenvalues --   -0.68699  -0.64796  -0.60451  -0.57210  -0.50736
 Alpha  occ. eigenvalues --   -0.50669  -0.49408  -0.47931  -0.46994  -0.46430
 Alpha  occ. eigenvalues --   -0.44663  -0.43164  -0.42549  -0.40587  -0.40469
 Alpha  occ. eigenvalues --   -0.39927  -0.38794  -0.38018  -0.36043  -0.35335
 Alpha  occ. eigenvalues --   -0.34478  -0.32857  -0.32601  -0.28866  -0.28432
 Alpha  occ. eigenvalues --   -0.26331  -0.25758
 Alpha virt. eigenvalues --    0.00237   0.05318   0.07555   0.08497   0.09960
 Alpha virt. eigenvalues --    0.11068   0.12936   0.15112   0.15395   0.15763
 Alpha virt. eigenvalues --    0.16725   0.17220   0.18373   0.19706   0.19953
 Alpha virt. eigenvalues --    0.21079   0.21415   0.23104   0.23394   0.23752
 Alpha virt. eigenvalues --    0.25877   0.27397   0.29101   0.34860   0.35673
 Alpha virt. eigenvalues --    0.38766   0.48500   0.49374   0.49889   0.50994
 Alpha virt. eigenvalues --    0.51359   0.53366   0.55798   0.56506   0.58762
 Alpha virt. eigenvalues --    0.59592   0.60393   0.61568   0.64658   0.65639
 Alpha virt. eigenvalues --    0.67142   0.68446   0.69207   0.69934   0.71222
 Alpha virt. eigenvalues --    0.73450   0.76066   0.78104   0.80544   0.81304
 Alpha virt. eigenvalues --    0.83234   0.84058   0.85046   0.86304   0.86710
 Alpha virt. eigenvalues --    0.87552   0.88084   0.88369   0.88793   0.90319
 Alpha virt. eigenvalues --    0.91225   0.92110   0.92291   0.93166   0.93947
 Alpha virt. eigenvalues --    0.95242   0.96877   0.97006   1.03003   1.04612
 Alpha virt. eigenvalues --    1.06454   1.08952   1.10325   1.13171   1.14698
 Alpha virt. eigenvalues --    1.16669   1.20231   1.27292   1.27839   1.31217
 Alpha virt. eigenvalues --    1.35329   1.37291   1.38580   1.40519   1.43869
 Alpha virt. eigenvalues --    1.46504   1.47769   1.50148   1.50580   1.51095
 Alpha virt. eigenvalues --    1.54586   1.55932   1.58490   1.62420   1.66738
 Alpha virt. eigenvalues --    1.68233   1.70469   1.72651   1.76046   1.76983
 Alpha virt. eigenvalues --    1.79181   1.80086   1.80913   1.82946   1.84652
 Alpha virt. eigenvalues --    1.86308   1.86775   1.87549   1.89012   1.90739
 Alpha virt. eigenvalues --    1.91633   1.95251   1.98266   1.99930   2.02465
 Alpha virt. eigenvalues --    2.03067   2.04640   2.05751   2.06141   2.07464
 Alpha virt. eigenvalues --    2.08973   2.10602   2.11496   2.13184   2.13731
 Alpha virt. eigenvalues --    2.14142   2.15582   2.16451   2.18323   2.18800
 Alpha virt. eigenvalues --    2.20575   2.23728   2.26021   2.30210   2.31664
 Alpha virt. eigenvalues --    2.32210   2.34143   2.37127   2.39460   2.41097
 Alpha virt. eigenvalues --    2.44314   2.50566   2.52035   2.54900   2.55497
 Alpha virt. eigenvalues --    2.56656   2.59854   2.60732   2.61954   2.63361
 Alpha virt. eigenvalues --    2.64131   2.67960   2.70741   2.72811   2.74516
 Alpha virt. eigenvalues --    2.76096   2.77228   2.78333   2.80176   2.82068
 Alpha virt. eigenvalues --    2.86239   2.87401   2.89552   2.90022   2.90964
 Alpha virt. eigenvalues --    2.95746   2.96020   2.97624   3.00873   3.06460
 Alpha virt. eigenvalues --    3.10981   3.16286   3.17918   3.22431   3.24477
 Alpha virt. eigenvalues --    3.24677   3.31044   3.43145   3.43603   3.43644
 Alpha virt. eigenvalues --    3.44720   3.45158   3.45672   3.50773   3.53022
 Alpha virt. eigenvalues --    3.54023   3.87330   4.06892   4.12086   4.20569
 Alpha virt. eigenvalues --    4.25740   4.32107   4.41420   4.48340   4.53770
 Alpha virt. eigenvalues --    4.56264   4.62042   4.73398
          Condensed to atoms (all electrons):
               1          2          3          4          5          6
     1  O    8.114710   0.252722  -0.094484   0.002218   0.000032  -0.000000
     2  C    0.252722   4.415169   0.292404  -0.056785   0.001276  -0.000090
     3  C   -0.094484   0.292404   5.034430   0.272516  -0.029407   0.003064
     4  N    0.002218  -0.056785   0.272516   6.929046   0.300357  -0.103663
     5  C    0.000032   0.001276  -0.029407   0.300357   4.124175   0.288702
     6  O   -0.000000  -0.000090   0.003064  -0.103663   0.288702   8.343574
     7  C   -0.000000   0.000003  -0.000123   0.004515  -0.015579   0.182624
     8  C    0.000000   0.000000   0.000001  -0.000214   0.003733  -0.053009
     9  C   -0.000000   0.000000   0.000011  -0.000360  -0.003703  -0.043158
    10  C    0.000000  -0.000000   0.000014  -0.000384  -0.003456  -0.043107
    11  O   -0.000005  -0.000175   0.002401  -0.084771   0.545605  -0.072539
    12  O   -0.081667   0.598711  -0.081231  -0.000895   0.002244  -0.000022
    13  H    0.270055  -0.009077   0.010469  -0.000307  -0.000010  -0.000000
    14  H    0.003914  -0.039105   0.374922  -0.033180   0.003144  -0.000031
    15  H    0.004404  -0.026578   0.368545  -0.028486  -0.000162   0.000235
    16  H    0.000032  -0.000403  -0.027095   0.337013  -0.018453   0.009099
    17  H   -0.000000  -0.000000   0.000000  -0.000019   0.000031   0.000599
    18  H   -0.000000   0.000000  -0.000000   0.000003  -0.000037   0.003436
    19  H    0.000000  -0.000000  -0.000000  -0.000016   0.000040   0.000566
    20  H    0.000000  -0.000000  -0.000000   0.000003   0.000172   0.002884
    21  H    0.000000  -0.000000  -0.000002   0.000080   0.001891  -0.003056
    22  H    0.000000  -0.000000  -0.000000  -0.000038   0.000452   0.000169
    23  H   -0.000000   0.000000  -0.000000   0.000003   0.000155   0.002904
    24  H   -0.000000   0.000000  -0.000001  -0.000039   0.000430   0.000117
    25  H   -0.000000   0.000001   0.000000   0.000064   0.001956  -0.003105
               7          8          9         10         11         12
     1  O   -0.000000   0.000000  -0.000000   0.000000  -0.000005  -0.081667
     2  C    0.000003   0.000000   0.000000  -0.000000  -0.000175   0.598711
     3  C   -0.000123   0.000001   0.000011   0.000014   0.002401  -0.081231
     4  N    0.004515  -0.000214  -0.000360  -0.000384  -0.084771  -0.000895
     5  C   -0.015579   0.003733  -0.003703  -0.003456   0.545605   0.002244
     6  O    0.182624  -0.053009  -0.043158  -0.043107  -0.072539  -0.000022
     7  C    4.605130   0.405339   0.380284   0.381220   0.003375   0.000000
     8  C    0.405339   4.979001  -0.065450  -0.065329   0.000153   0.000000
     9  C    0.380284  -0.065450   5.017135  -0.064098  -0.005075   0.000000
    10  C    0.381220  -0.065329  -0.064098   5.015168  -0.004979  -0.000000
    11  O    0.003375   0.000153  -0.005075  -0.004979   8.110522  -0.000040
    12  O    0.000000   0.000000   0.000000  -0.000000  -0.000040   7.999349
    13  H    0.000000  -0.000000  -0.000000  -0.000000   0.000000   0.010470
    14  H    0.000002  -0.000000  -0.000000   0.000000   0.000278   0.000101
    15  H   -0.000002   0.000000   0.000001   0.000001   0.011682   0.001215
    16  H   -0.000253  -0.000103   0.000054   0.000051   0.002960   0.002913
    17  H   -0.025240   0.371945   0.005750  -0.006283   0.000003   0.000000
    18  H   -0.028195   0.371776  -0.001876  -0.001946   0.000008   0.000000
    19  H   -0.025315   0.371107  -0.006362   0.005764   0.000003  -0.000000
    20  H   -0.024911  -0.003473   0.366342  -0.001570   0.000169   0.000000
    21  H   -0.023005   0.004769   0.376896  -0.005882   0.009554   0.000000
    22  H   -0.026330  -0.006155   0.369862   0.005380  -0.000051  -0.000000
    23  H   -0.024862  -0.003429  -0.001636   0.366594   0.000154   0.000000
    24  H   -0.026128  -0.006112   0.005339   0.371266  -0.000054   0.000001
    25  H   -0.023100   0.004797  -0.005981   0.377053   0.009236   0.000000
              13         14         15         16         17         18
     1  O    0.270055   0.003914   0.004404   0.000032  -0.000000  -0.000000
     2  C   -0.009077  -0.039105  -0.026578  -0.000403  -0.000000   0.000000
     3  C    0.010469   0.374922   0.368545  -0.027095   0.000000  -0.000000
     4  N   -0.000307  -0.033180  -0.028486   0.337013  -0.000019   0.000003
     5  C   -0.000010   0.003144  -0.000162  -0.018453   0.000031  -0.000037
     6  O   -0.000000  -0.000031   0.000235   0.009099   0.000599   0.003436
     7  C    0.000000   0.000002  -0.000002  -0.000253  -0.025240  -0.028195
     8  C   -0.000000  -0.000000   0.000000  -0.000103   0.371945   0.371776
     9  C   -0.000000  -0.000000   0.000001   0.000054   0.005750  -0.001876
    10  C   -0.000000   0.000000   0.000001   0.000051  -0.006283  -0.001946
    11  O    0.000000   0.000278   0.011682   0.002960   0.000003   0.000008
    12  O    0.010470   0.000101   0.001215   0.002913   0.000000   0.000000
    13  H    0.395489  -0.000505  -0.000447  -0.000003   0.000000   0.000000
    14  H   -0.000505   0.565183  -0.022196  -0.002245  -0.000000   0.000000
    15  H   -0.000447  -0.022196   0.507969   0.003405  -0.000000  -0.000000
    16  H   -0.000003  -0.002245   0.003405   0.414286   0.000039   0.000001
    17  H    0.000000  -0.000000  -0.000000   0.000039   0.600701  -0.029041
    18  H    0.000000   0.000000  -0.000000   0.000001  -0.029041   0.606633
    19  H   -0.000000   0.000000  -0.000000   0.000029  -0.031523  -0.029254
    20  H   -0.000000   0.000000   0.000000  -0.000001  -0.000007   0.001747
    21  H   -0.000000  -0.000000  -0.000001  -0.000014  -0.000198   0.000014
    22  H   -0.000000   0.000000  -0.000000   0.000003  -0.000072   0.000156
    23  H    0.000000  -0.000000  -0.000000  -0.000001   0.000127   0.001720
    24  H    0.000000  -0.000000  -0.000000   0.000009   0.004057   0.000161
    25  H    0.000000  -0.000000  -0.000003  -0.000018  -0.000045   0.000011
              19         20         21         22         23         24
     1  O    0.000000   0.000000   0.000000   0.000000  -0.000000  -0.000000
     2  C   -0.000000  -0.000000  -0.000000  -0.000000   0.000000   0.000000
     3  C   -0.000000  -0.000000  -0.000002  -0.000000  -0.000000  -0.000001
     4  N   -0.000016   0.000003   0.000080  -0.000038   0.000003  -0.000039
     5  C    0.000040   0.000172   0.001891   0.000452   0.000155   0.000430
     6  O    0.000566   0.002884  -0.003056   0.000169   0.002904   0.000117
     7  C   -0.025315  -0.024911  -0.023005  -0.026330  -0.024862  -0.026128
     8  C    0.371107  -0.003473   0.004769  -0.006155  -0.003429  -0.006112
     9  C   -0.006362   0.366342   0.376896   0.369862  -0.001636   0.005339
    10  C    0.005764  -0.001570  -0.005882   0.005380   0.366594   0.371266
    11  O    0.000003   0.000169   0.009554  -0.000051   0.000154  -0.000054
    12  O   -0.000000   0.000000   0.000000  -0.000000   0.000000   0.000001
    13  H   -0.000000  -0.000000  -0.000000  -0.000000   0.000000   0.000000
    14  H    0.000000   0.000000  -0.000000   0.000000  -0.000000  -0.000000
    15  H   -0.000000   0.000000  -0.000001  -0.000000  -0.000000  -0.000000
    16  H    0.000029  -0.000001  -0.000014   0.000003  -0.000001   0.000009
    17  H   -0.031523  -0.000007  -0.000198  -0.000072   0.000127   0.004057
    18  H   -0.029254   0.001747   0.000014   0.000156   0.001720   0.000161
    19  H    0.604727   0.000131  -0.000045   0.004123  -0.000005  -0.000069
    20  H    0.000131   0.613970  -0.027769  -0.029627   0.001126  -0.000053
    21  H   -0.000045  -0.027769   0.555542  -0.030028   0.000121   0.000002
    22  H    0.004123  -0.029627  -0.030028   0.609590  -0.000054  -0.000206
    23  H   -0.000005   0.001126   0.000121  -0.000054   0.614004  -0.029448
    24  H   -0.000069  -0.000053   0.000002  -0.000206  -0.029448   0.602425
    25  H   -0.000199   0.000125   0.003105   0.000003  -0.028001  -0.029773
              25
     1  O   -0.000000
     2  C    0.000001
     3  C    0.000000
     4  N    0.000064
     5  C    0.001956
     6  O   -0.003105
     7  C   -0.023100
     8  C    0.004797
     9  C   -0.005981
    10  C    0.377053
    11  O    0.009236
    12  O    0.000000
    13  H    0.000000
    14  H   -0.000000
    15  H   -0.000003
    16  H   -0.000018
    17  H   -0.000045
    18  H    0.000011
    19  H   -0.000199
    20  H    0.000125
    21  H    0.003105
    22  H    0.000003
    23  H   -0.028001
    24  H   -0.029773
    25  H    0.556251
 Mulliken charges:
               1
     1  O   -0.471931
     2  C    0.571929
     3  C   -0.126431
     4  N   -0.536661
     5  C    0.796412
     6  O   -0.516192
     7  C    0.280552
     8  C   -0.309349
     9  C   -0.323974
    10  C   -0.325475
    11  O   -0.528411
    12  O   -0.451150
    13  H    0.323868
    14  H    0.149719
    15  H    0.180421
    16  H    0.278697
    17  H    0.109175
    18  H    0.104684
    19  H    0.106298
    20  H    0.100740
    21  H    0.138027
    22  H    0.102824
    23  H    0.100528
    24  H    0.108078
    25  H    0.137622
 Sum of Mulliken charges =  -0.00000
 Mulliken charges with hydrogens summed into heavy atoms:
               1
     1  O   -0.148064
     2  C    0.571929
     3  C    0.203710
     4  N   -0.257964
     5  C    0.796412
     6  O   -0.516192
     7  C    0.280552
     8  C    0.010808
     9  C    0.017616
    10  C    0.020754
    11  O   -0.528411
    12  O   -0.451150
 Electronic spatial extent (au):  <R**2>=           2970.2281
 Charge=             -0.0000 electrons
 Dipole moment (field-independent basis, Debye):
    X=              0.6440    Y=              0.4263    Z=             -1.7154  Tot=              1.8812
 Quadrupole moment (field-independent basis, Debye-Ang):
   XX=            -55.7834   YY=            -76.0086   ZZ=            -68.3525
   XY=             -1.6174   XZ=             -0.7067   YZ=              2.1581
 Traceless Quadrupole moment (field-independent basis, Debye-Ang):
   XX=             10.9314   YY=             -9.2938   ZZ=             -1.6376
   XY=             -1.6174   XZ=             -0.7067   YZ=              2.1581
 Octapole moment (field-independent basis, Debye-Ang**2):
  XXX=             61.4789  YYY=             -2.7438  ZZZ=             -3.5044  XYY=              1.0748
  XXY=              9.4827  XXZ=             15.1460  XZZ=             18.9337  YZZ=              4.6022
  YYZ=             -4.0115  XYZ=              2.9779
 Hexadecapole moment (field-independent basis, Debye-Ang**3):
 XXXX=          -2638.1037 YYYY=           -432.3343 ZZZZ=           -319.1004 XXXY=             98.3413
 XXXZ=             85.2809 YYYX=            -10.9172 YYYZ=             -1.5220 ZZZX=             10.3674
 ZZZY=             -3.8106 XXYY=           -590.2373 XXZZ=           -513.9217 YYZZ=           -126.6097
 XXYZ=             21.9825 YYXZ=              1.0144 ZZXY=             10.0515
 N-N= 7.438362811066D+02 E-N=-2.960688357698D+03  KE= 6.245267229841D+02
 Calling FoFJK, ICntrl=      2127 FMM=F ISym2X=0 I1Cent= 0 IOpClX= 0 NMat=1 NMatS=1 NMatT=0.
 ***** Axes restored to original set *****
 -------------------------------------------------------------------
 Center     Atomic                   Forces (Hartrees/Bohr)
 Number     Number              X              Y              Z
 -------------------------------------------------------------------
      1        8          -0.001642452   -0.002864073   -0.010867917
      2        6          -0.000597709   -0.000471685   -0.007217871
      3        6          -0.018073099    0.019535920   -0.000397250
      4        7           0.004324425   -0.022838450    0.001359533
      5        6          -0.004097425   -0.015139400    0.007859991
      6        8           0.013787304    0.009715302    0.000050668
      7        6          -0.026612459   -0.001564237   -0.007586546
      8        6           0.004647942    0.002071400    0.000805367
      9        6           0.004891411   -0.005514019    0.004768075
     10        6           0.005860358   -0.006006069    0.003207141
     11        8           0.009481452    0.012479252   -0.001992173
     12        8           0.001170656   -0.003871105   -0.001233656
     13        1           0.002278051    0.003194960    0.014726689
     14        1           0.003523040    0.000767063   -0.001783153
     15        1          -0.005552379    0.003338775   -0.002968761
     16        1           0.001915269    0.000926350    0.002919734
     17        1           0.000563372    0.000235567    0.003377413
     18        1          -0.002569101   -0.002963849    0.000322943
     19        1           0.002235304   -0.001792957   -0.002123294
     20        1          -0.002692515    0.003926501    0.000767160
     21        1           0.001247722   -0.000019375    0.003462456
     22        1           0.002533083    0.003148790   -0.001819333
     23        1          -0.001135536    0.001895732   -0.004316869
     24        1           0.001874810    0.003839987    0.000195393
     25        1           0.002638479   -0.002030381   -0.001515740
 -------------------------------------------------------------------
 Cartesian Forces:  Max     0.026612459 RMS     0.007031799

 GradGradGradGradGradGradGradGradGradGradGradGradGradGradGradGradGradGrad
 Berny optimization.
 FormGI is forming the generalized inverse of G from B-inverse, IUseBI=4.
 Internal  Forces:  Max     0.028374835 RMS     0.005024754
 Search for a local minimum.
 Step number   1 out of a maximum of  125
 All quantities printed in internal units (Hartrees-Bohrs-Radians)
 Mixed Optimization -- RFO/linear search
 Second derivative matrix not updated -- first step.
 ITU=  0
     Eigenvalues ---    0.00230   0.00230   0.00284   0.00294   0.00684
     Eigenvalues ---    0.00788   0.01218   0.01269   0.01972   0.02108
     Eigenvalues ---    0.02337   0.02379   0.04493   0.05021   0.05316
     Eigenvalues ---    0.05323   0.05357   0.05363   0.05367   0.05427
     Eigenvalues ---    0.05438   0.06410   0.06808   0.09592   0.13049
     Eigenvalues ---    0.15837   0.15870   0.16000   0.16000   0.16000
     Eigenvalues ---    0.16000   0.16000   0.16000   0.16000   0.16000
     Eigenvalues ---    0.16000   0.16000   0.16279   0.21940   0.22030
     Eigenvalues ---    0.24995   0.25000   0.25000   0.25000   0.25000
     Eigenvalues ---    0.28267   0.28283   0.28838   0.28908   0.34488
     Eigenvalues ---    0.34737   0.34758   0.34798   0.34800   0.34803
     Eigenvalues ---    0.34804   0.34829   0.34838   0.34838   0.34912
     Eigenvalues ---    0.35012   0.40711   0.46557   0.49318   0.54763
     Eigenvalues ---    0.55432   0.55852   0.91850   1.00212
 RFO step:  Lambda=-1.08268632D-02 EMin= 2.30000000D-03
 Linear search not attempted -- first point.
 Iteration  1 RMS(Cart)=  0.12181388 RMS(Int)=  0.00394532
 Iteration  2 RMS(Cart)=  0.00758288 RMS(Int)=  0.00024680
 Iteration  3 RMS(Cart)=  0.00001514 RMS(Int)=  0.00024667
 Iteration  4 RMS(Cart)=  0.00000000 RMS(Int)=  0.00024667
 Variable       Old X    -DE/DX   Delta X   Delta X   Delta X     New X
                                 (Linear)    (Quad)   (Total)
    R1        2.55344   0.00218   0.00000   0.00391   0.00391   2.55734
    R2        1.81083   0.01485   0.00000   0.02608   0.02608   1.83691
    R3        2.90195  -0.00548   0.00000  -0.01828  -0.01828   2.88366
    R4        2.28554  -0.00417   0.00000  -0.00412  -0.00412   2.28142
    R5        2.78956  -0.02837   0.00000  -0.07861  -0.07861   2.71094
    R6        2.05818   0.00398   0.00000   0.01106   0.01106   2.06924
    R7        2.06514  -0.00162   0.00000  -0.00457  -0.00457   2.06057
    R8        2.60560  -0.01365   0.00000  -0.02709  -0.02709   2.57851
    R9        1.90209   0.00075   0.00000   0.00158   0.00158   1.90367
   R10        2.54750   0.00070   0.00000   0.00124   0.00124   2.54874
   R11        2.32092  -0.01541   0.00000  -0.01658  -0.01658   2.30434
   R12        2.70599   0.00633   0.00000   0.01515   0.01515   2.72114
   R13        2.90342  -0.00377   0.00000  -0.01260  -0.01260   2.89082
   R14        2.91524  -0.00719   0.00000  -0.02448  -0.02448   2.89076
   R15        2.91558  -0.00737   0.00000  -0.02511  -0.02511   2.89047
   R16        2.06104   0.00256   0.00000   0.00714   0.00714   2.06818
   R17        2.05993   0.00189   0.00000   0.00527   0.00527   2.06520
   R18        2.06069   0.00274   0.00000   0.00765   0.00765   2.06834
   R19        2.05939   0.00255   0.00000   0.00711   0.00711   2.06651
   R20        2.06003   0.00135   0.00000   0.00378   0.00378   2.06381
   R21        2.05953   0.00329   0.00000   0.00915   0.00915   2.06868
   R22        2.05939   0.00251   0.00000   0.00698   0.00698   2.06637
   R23        2.05996   0.00305   0.00000   0.00849   0.00849   2.06845
   R24        2.06001   0.00143   0.00000   0.00398   0.00398   2.06399
    A1        1.82977   0.00592   0.00000   0.03468   0.03468   1.86445
    A2        1.92710   0.00141   0.00000   0.00536   0.00536   1.93246
    A3        2.15912  -0.00099   0.00000  -0.00385  -0.00386   2.15526
    A4        2.19667  -0.00042   0.00000  -0.00163  -0.00163   2.19504
    A5        1.92740   0.00751   0.00000   0.03142   0.03136   1.95876
    A6        1.88619  -0.00196   0.00000   0.00628   0.00593   1.89212
    A7        1.90238   0.00083   0.00000   0.00805   0.00838   1.91076
    A8        1.92094  -0.00092   0.00000   0.00374   0.00325   1.92419
    A9        1.95635  -0.00801   0.00000  -0.06436  -0.06433   1.89202
   A10        1.86837   0.00254   0.00000   0.01660   0.01627   1.88464
   A11        2.14708  -0.00832   0.00000  -0.03763  -0.03817   2.10891
   A12        2.09614   0.00138   0.00000  -0.00061  -0.00108   2.09506
   A13        2.02910   0.00669   0.00000   0.03019   0.02957   2.05867
   A14        1.89168   0.00335   0.00000   0.01280   0.01270   1.90438
   A15        2.19415  -0.00571   0.00000  -0.02190  -0.02200   2.17216
   A16        2.19735   0.00236   0.00000   0.00902   0.00891   2.20626
   A17        2.17604  -0.02325   0.00000  -0.08915  -0.08915   2.08689
   A18        1.81211  -0.00003   0.00000  -0.00051   0.00015   1.81226
   A19        1.94933  -0.00150   0.00000  -0.02873  -0.02898   1.92035
   A20        1.94909  -0.00177   0.00000  -0.03095  -0.03118   1.91791
   A21        1.90457   0.00162   0.00000   0.02935   0.02894   1.93351
   A22        1.90382   0.00181   0.00000   0.03009   0.02970   1.93352
   A23        1.93985   0.00005   0.00000   0.00381   0.00234   1.94220
   A24        1.94218  -0.00179   0.00000  -0.00928  -0.00937   1.93282
   A25        1.94856  -0.00405   0.00000  -0.02598  -0.02616   1.92239
   A26        1.94296  -0.00178   0.00000  -0.00940  -0.00949   1.93346
   A27        1.87868   0.00287   0.00000   0.01487   0.01469   1.89337
   A28        1.86866   0.00246   0.00000   0.01873   0.01874   1.88740
   A29        1.87915   0.00283   0.00000   0.01429   0.01410   1.89325
   A30        1.94592  -0.00440   0.00000  -0.02783  -0.02809   1.91782
   A31        1.95082  -0.00299   0.00000  -0.01448  -0.01457   1.93625
   A32        1.94052  -0.00225   0.00000  -0.01412  -0.01432   1.92620
   A33        1.87144   0.00421   0.00000   0.02637   0.02621   1.89765
   A34        1.88185   0.00281   0.00000   0.01078   0.01042   1.89226
   A35        1.86945   0.00331   0.00000   0.02333   0.02330   1.89276
   A36        1.94684  -0.00454   0.00000  -0.02886  -0.02914   1.91770
   A37        1.93991  -0.00227   0.00000  -0.01395  -0.01415   1.92577
   A38        1.95083  -0.00291   0.00000  -0.01409  -0.01419   1.93664
   A39        1.88202   0.00292   0.00000   0.01159   0.01123   1.89324
   A40        1.87205   0.00417   0.00000   0.02564   0.02546   1.89752
   A41        1.86831   0.00333   0.00000   0.02380   0.02378   1.89209
    D1       -3.12206  -0.00094   0.00000  -0.02884  -0.02884   3.13229
    D2        0.04457  -0.00085   0.00000  -0.02374  -0.02374   0.02082
    D3        2.99032  -0.00200   0.00000  -0.01181  -0.01190   2.97842
    D4       -1.19083   0.00015   0.00000   0.01545   0.01553  -1.17529
    D5        0.83392   0.00253   0.00000   0.04278   0.04279   0.87671
    D6       -0.17696  -0.00210   0.00000  -0.01708  -0.01717  -0.19413
    D7        1.92508   0.00005   0.00000   0.01018   0.01026   1.93534
    D8       -2.33336   0.00243   0.00000   0.03751   0.03752  -2.29584
    D9       -1.72911   0.00077   0.00000   0.03471   0.03471  -1.69440
   D10        1.24864  -0.00048   0.00000  -0.02266  -0.02222   1.22641
   D11        2.47297  -0.00094   0.00000   0.00488   0.00471   2.47768
   D12       -0.83247  -0.00219   0.00000  -0.05249  -0.05223  -0.88469
   D13        0.39571   0.00163   0.00000   0.02290   0.02242   0.41813
   D14       -2.90973   0.00038   0.00000  -0.03447  -0.03452  -2.94425
   D15        3.05755  -0.00023   0.00000  -0.01064  -0.01101   3.04653
   D16       -0.08732  -0.00103   0.00000  -0.03575  -0.03594  -0.12326
   D17        0.07397   0.00137   0.00000   0.04709   0.04727   0.12124
   D18       -3.07090   0.00058   0.00000   0.02197   0.02235  -3.04855
   D19       -3.11457  -0.00067   0.00000  -0.02016  -0.02034  -3.13491
   D20        0.03030   0.00015   0.00000   0.00509   0.00527   0.03557
   D21        3.13148  -0.00003   0.00000  -0.00271  -0.00270   3.12878
   D22       -1.10181   0.00114   0.00000   0.01773   0.01739  -1.08442
   D23        1.08260  -0.00130   0.00000  -0.02296  -0.02263   1.05996
   D24       -1.04115  -0.00028   0.00000  -0.00470  -0.00466  -1.04581
   D25       -3.14067   0.00006   0.00000   0.00047   0.00047  -3.14020
   D26        1.04187   0.00045   0.00000   0.00651   0.00646   1.04833
   D27       -3.12192   0.00070   0.00000   0.01494   0.01521  -3.10671
   D28        1.06175   0.00104   0.00000   0.02011   0.02034   1.08209
   D29       -1.03890   0.00143   0.00000   0.02615   0.02633  -1.01257
   D30        1.03898  -0.00149   0.00000  -0.02657  -0.02675   1.01224
   D31       -1.06053  -0.00115   0.00000  -0.02140  -0.02162  -1.08215
   D32        3.12201  -0.00076   0.00000  -0.01536  -0.01563   3.10638
   D33       -3.00585  -0.00089   0.00000  -0.02436  -0.02430  -3.03015
   D34        1.18294  -0.00119   0.00000  -0.02894  -0.02886   1.15407
   D35       -0.90524  -0.00185   0.00000  -0.03922  -0.03902  -0.94426
   D36       -1.01247  -0.00081   0.00000  -0.02365  -0.02380  -1.03628
   D37       -3.10687  -0.00110   0.00000  -0.02823  -0.02836  -3.13524
   D38        1.08814  -0.00177   0.00000  -0.03851  -0.03852   1.04962
   D39        1.08781   0.00253   0.00000   0.03524   0.03517   1.12299
   D40       -1.00659   0.00224   0.00000   0.03067   0.03062  -0.97597
   D41       -3.09476   0.00157   0.00000   0.02038   0.02046  -3.07430
   D42        3.00433   0.00087   0.00000   0.02420   0.02412   3.02845
   D43        0.90329   0.00180   0.00000   0.03863   0.03840   0.94169
   D44       -1.18304   0.00107   0.00000   0.02735   0.02726  -1.15578
   D45        1.01153   0.00082   0.00000   0.02429   0.02445   1.03598
   D46       -1.08951   0.00175   0.00000   0.03871   0.03873  -1.05078
   D47        3.10735   0.00102   0.00000   0.02744   0.02759   3.13494
   D48       -1.08921  -0.00240   0.00000  -0.03415  -0.03408  -1.12328
   D49        3.09294  -0.00147   0.00000  -0.01973  -0.01980   3.07314
   D50        1.00662  -0.00220   0.00000  -0.03100  -0.03094   0.97568
         Item               Value     Threshold  Converged?
 Maximum Force            0.028375     0.000450     NO 
 RMS     Force            0.005025     0.000300     NO 
 Maximum Displacement     0.444912     0.001800     NO 
 RMS     Displacement     0.124547     0.001200     NO 
 Predicted change in Energy=-5.819095D-03
 GradGradGradGradGradGradGradGradGradGradGradGradGradGradGradGradGradGrad

                          Input orientation:                          
 ---------------------------------------------------------------------
 Center     Atomic      Atomic             Coordinates (Angstroms)
 Number     Number       Type             X           Y           Z
 ---------------------------------------------------------------------
      1          8           0        4.441051   -1.388956    1.260934
      2          6           0        3.830569   -0.418207    0.542361
      3          6           0        3.757188   -0.803305   -0.932393
      4          7           0        2.932146    0.095100   -1.687484
      5          6           0        1.629343   -0.209637   -1.955190
      6          8           0        1.047112    0.840993   -2.568597
      7          6           0       -0.340083    0.763538   -2.947006
      8          6           0       -0.622852    2.126523   -3.581408
      9          6           0       -0.543766   -0.361128   -3.963713
     10          6           0       -1.207303    0.552677   -1.704806
     11          8           0        1.104913   -1.280594   -1.700305
     12          8           0        3.436892    0.617580    1.021612
     13          1           0        4.464685   -1.083470    2.183432
     14          1           0        4.774315   -0.815061   -1.337768
     15          1           0        3.346035   -1.808919   -1.025563
     16          1           0        3.242725    1.036959   -1.864261
     17          1           0       -0.442822    2.932952   -2.863736
     18          1           0       -1.664028    2.180421   -3.909107
     19          1           0        0.022984    2.292322   -4.449383
     20          1           0       -1.572416   -0.345507   -4.334499
     21          1           0       -0.348754   -1.335977   -3.511642
     22          1           0        0.132653   -0.232405   -4.814742
     23          1           0       -2.265125    0.608930   -1.975984
     24          1           0       -0.998698    1.326559   -0.959363
     25          1           0       -1.012563   -0.422590   -1.253289
 ---------------------------------------------------------------------
                    Distance matrix (angstroms):
                    1          2          3          4          5
     1  O    0.000000
     2  C    1.353288   0.000000
     3  C    2.370936   1.525969   0.000000
     4  N    3.629378   2.458222   1.434569   0.000000
     5  C    4.431698   3.335664   2.434395   1.364488   0.000000
     6  O    5.581828   4.360192   3.567267   2.210446   1.348735
     7  C    6.723037   5.564759   4.827141   3.569410   2.410271
     8  C    7.839004   6.581343   5.897960   4.511279   3.629685
     9  C    7.293953   6.280347   5.280400   4.179871   2.963024
    10  C    6.668542   5.601118   5.203987   4.164698   2.947944
    11  O    4.462118   3.633519   2.802152   2.287243   1.219403
    12  O    2.256501   1.207277   2.437137   2.804809   3.579507
    13  H    0.972051   1.880902   3.207399   4.326857   5.092243
    14  H    2.682102   2.140802   1.094996   2.084294   3.261687
    15  H    2.569727   2.151101   1.090406   2.057846   2.523676
    16  H    4.133751   2.873134   2.125941   1.007377   2.040900
    17  H    7.716476   6.410432   5.943887   4.563703   3.872362
    18  H    8.760238   7.533859   6.866807   5.514435   4.514029
    19  H    8.104247   6.838287   5.991360   4.573739   3.880874
    20  H    8.280063   7.278825   6.339447   5.243272   3.991345
    21  H    6.761843   5.894402   4.878014   4.017442   2.757545
    22  H    7.537489   6.512115   5.341892   4.210007   3.227636
    23  H    7.709863   6.674920   6.273097   5.230572   3.979619
    24  H    6.472604   5.349878   5.211094   4.183083   3.202837
    25  H    6.082523   5.165298   4.795669   4.002156   2.741838
                    6          7          8          9         10
     6  O    0.000000
     7  C    1.439966   0.000000
     8  C    2.338194   1.529756   0.000000
     9  C    2.433585   1.529723   2.518099   0.000000
    10  C    2.431388   1.529573   2.517977   2.525466   0.000000
    11  O    2.293121   2.796561   4.258188   2.947299   2.950804
    12  O    4.318630   5.480581   6.320303   6.454221   5.385733
    13  H    6.161586   7.267643   8.331895   7.962019   7.068721
    14  H    4.260223   5.589159   6.543413   5.948414   6.146965
    15  H    3.832497   4.888450   6.145902   5.085210   5.174108
    16  H    2.314132   3.752813   4.367886   4.549709   4.479141
    17  H    2.585208   2.173441   1.094436   3.474349   2.755586
    18  H    3.307766   2.164723   1.092859   2.778028   2.777965
    19  H    2.586995   2.173967   1.094520   2.756425   3.474574
    20  H    3.374629   2.161889   2.753136   1.093549   2.802736
    21  H    2.752631   2.174133   3.474033   1.092121   2.751141
    22  H    2.652091   2.168829   2.767028   1.094697   3.476138
    23  H    3.372827   2.161614   2.752733   2.802705   1.093476
    24  H    2.647781   2.168292   2.767007   3.475826   1.094575
    25  H    2.751170   2.174352   3.474189   2.751353   1.092217
                   11         12         13         14         15
    11  O    0.000000
    12  O    4.055863   0.000000
    13  H    5.139099   2.302119   0.000000
    14  H    3.716540   3.067219   3.544963   0.000000
    15  H    2.399382   3.176015   3.474954   1.767826   0.000000
    16  H    3.157242   2.922643   4.730035   2.460273   2.968688
    17  H    4.637136   5.958948   8.104886   6.602629   6.341897
    18  H    4.952218   7.264561   9.237594   7.552282   7.023559
    19  H    4.636132   6.662680   8.667116   6.474034   6.291691
    20  H    3.870589   7.396528   8.914853   7.034336   6.105881
    21  H    2.323178   6.220763   7.461020   5.589537   4.478362
    22  H    3.426909   6.760436   8.274373   5.828710   5.212398
    23  H    3.873430   6.441945   8.090445   7.210326   6.183398
    24  H    3.430950   4.909315   6.747885   6.169068   5.358386
    25  H    2.328024   5.104388   6.499851   5.800787   4.579426
                   16         17         18         19         20
    16  H    0.000000
    17  H    4.263449   0.000000
    18  H    5.437382   1.774950   0.000000
    19  H    4.315729   1.772472   1.774945   0.000000
    20  H    5.585595   3.766620   2.563136   3.084906   0.000000
    21  H    4.609057   4.318841   3.775312   3.765912   1.776365
    22  H    4.470925   3.762590   3.141651   2.553382   1.775017
    23  H    5.525586   3.083824   2.562785   3.766557   2.636928
    24  H    4.346536   2.552672   3.142091   3.762548   3.810053
    25  H    4.539939   3.765342   3.775373   4.319504   3.132608
                   21         22         23         24         25
    21  H    0.000000
    22  H    1.774173   0.000000
    23  H    3.132633   3.809951   0.000000
    24  H    3.745084   4.309788   1.775485   0.000000
    25  H    2.524892   3.745882   1.776298   1.773726   0.000000
 Stoichiometry    C7H13NO4
 Framework group  C1[X(C7H13NO4)]
 Deg. of freedom    69
 Full point group                 C1      NOp   1
 Largest Abelian subgroup         C1      NOp   1
 Largest concise Abelian subgroup C1      NOp   1
                         Standard orientation:                         
 ---------------------------------------------------------------------
 Center     Atomic      Atomic             Coordinates (Angstroms)
 Number     Number       Type             X           Y           Z
 ---------------------------------------------------------------------
      1          8           0        4.227838   -0.266465    0.504708
      2          6           0        3.096446    0.316656    0.045024
      3          6           0        2.222977   -0.700017   -0.684367
      4          7           0        0.925136   -0.175002   -0.997349
      5          6           0       -0.145753   -0.430939   -0.191420
      6          8           0       -1.209995    0.268352   -0.635792
      7          6           0       -2.466346    0.169568    0.060861
      8          6           0       -3.392730    1.102314   -0.721412
      9          6           0       -2.979939   -1.270576    0.013311
     10          6           0       -2.301218    0.652713    1.502699
     11          8           0       -0.128544   -1.198926    0.755597
     12          8           0        2.851188    1.491288    0.177704
     13          1           0        4.742201    0.428608    0.948766
     14          1           0        2.739243   -1.005394   -1.600462
     15          1           0        2.095066   -1.584289   -0.059317
     16          1           0        0.826152    0.538220   -1.701852
     17          1           0       -3.005954    2.126117   -0.716690
     18          1           0       -4.389176    1.106342   -0.272616
     19          1           0       -3.482551    0.776774   -1.762531
     20          1           0       -3.984492   -1.321546    0.442407
     21          1           0       -2.323823   -1.937725    0.576473
     22          1           0       -3.027571   -1.624031   -1.021659
     23          1           0       -3.275857    0.686840    1.997275
     24          1           0       -1.868154    1.657828    1.519882
     25          1           0       -1.645548   -0.015032    2.065860
 ---------------------------------------------------------------------
 Rotational constants (GHZ):           2.2191712           0.4123401           0.4005521
 Standard basis: 6-31G(d,p) (6D, 7F)
 There are   245 symmetry adapted cartesian basis functions of A   symmetry.
 There are   245 symmetry adapted basis functions of A   symmetry.
   245 basis functions,   427 primitive gaussians,   245 cartesian basis functions
    47 alpha electrons       47 beta electrons
       nuclear repulsion energy       752.9609980885 Hartrees.
 NAtoms=   25 NActive=   25 NUniq=   25 SFac= 1.00D+00 NAtFMM=   60 NAOKFM=F Big=F
 Integral buffers will be    131072 words long.
 Raffenetti 2 integral format.
 Two-electron integral symmetry is turned on.
 Nuclear repulsion after empirical dispersion term =      752.9222508671 Hartrees.
 One-electron integrals computed using PRISM.
 NBasis=   245 RedAO= T EigKep=  2.60D-03  NBF=   245
 NBsUse=   245 1.00D-06 EigRej= -1.00D+00 NBFU=   245
 Initial guess from the checkpoint file:  "Ac2_conf-2.chk"
 B after Tr=    -0.000000    0.000000    0.000000
         Rot=    0.999981   -0.003164   -0.004963   -0.001854 Ang=  -0.71 deg.
 ExpMin= 1.61D-01 ExpMax= 5.48D+03 ExpMxC= 8.25D+02 IAcc=3 IRadAn=         5 AccDes= 0.00D+00
 Harris functional with IExCor=  402 and IRadAn=       5 diagonalized for initial guess.
 HarFok:  IExCor=  402 AccDes= 0.00D+00 IRadAn=         5 IDoV= 1 UseB2=F ITyADJ=14
 ICtDFT=  3500011 ScaDFX=  1.000000  1.000000  1.000000  1.000000
 FoFCou: FMM=F IPFlag=           0 FMFlag=      100000 FMFlg1=           0
         NFxFlg=           0 DoJE=T BraDBF=F KetDBF=T FulRan=T
         wScrn=  0.000000 ICntrl=       500 IOpCl=  0 I1Cent=   200000004 NGrid=           0
         NMat0=    1 NMatS0=      1 NMatT0=    0 NMatD0=    1 NMtDS0=    0 NMtDT0=    0
 Petite list used in FoFCou.
 Requested convergence on RMS density matrix=1.00D-08 within 128 cycles.
 Requested convergence on MAX density matrix=1.00D-06.
 Requested convergence on             energy=1.00D-06.
 No special actions if energy rises.
 Integral accuracy reduced to 1.0D-05 until final iterations.
 Initial convergence to 1.0D-05 achieved.  Increase integral accuracy.
 SCF Done:  E(RB3LYP) =  -630.326766256     A.U. after   13 cycles
            NFock= 13  Conv=0.42D-08     -V/T= 2.0090
 Calling FoFJK, ICntrl=      2127 FMM=F ISym2X=0 I1Cent= 0 IOpClX= 0 NMat=1 NMatS=1 NMatT=0.
 ***** Axes restored to original set *****
 -------------------------------------------------------------------
 Center     Atomic                   Forces (Hartrees/Bohr)
 Number     Number              X              Y              Z
 -------------------------------------------------------------------
      1        8          -0.000246689   -0.000760707   -0.000983692
      2        6           0.002607033   -0.002207212    0.000615592
      3        6          -0.001259208    0.003343138    0.001323756
      4        7           0.003427689   -0.001924407   -0.003019919
      5        6           0.000523921    0.000172056   -0.000704114
      6        8           0.010520029    0.003272926    0.002177038
      7        6          -0.013755797   -0.002117375   -0.003198725
      8        6           0.001777979    0.000865632    0.000242574
      9        6           0.000254317   -0.003011998   -0.002056342
     10        6          -0.001414429   -0.000793019    0.003300280
     11        8           0.002503131   -0.002101670    0.002696810
     12        8          -0.001489869    0.000919239   -0.000453413
     13        1           0.000011951    0.000708616   -0.000430819
     14        1           0.001103477   -0.001270899    0.001025235
     15        1          -0.000218550   -0.000840904    0.000557413
     16        1          -0.001063719    0.000954156    0.001867034
     17        1          -0.000135132   -0.000629248    0.000122686
     18        1          -0.000213874   -0.000321484    0.000043873
     19        1          -0.000178048   -0.000580818    0.000254642
     20        1          -0.000256164    0.000588028   -0.000462767
     21        1          -0.000687321    0.001994529   -0.000546049
     22        1          -0.000490319    0.000773841   -0.000313405
     23        1          -0.000364838    0.000630498   -0.000194326
     24        1          -0.000423057    0.000646275   -0.000567279
     25        1          -0.000532514    0.001690807   -0.001296081
 -------------------------------------------------------------------
 Cartesian Forces:  Max     0.013755797 RMS     0.002477856

 GradGradGradGradGradGradGradGradGradGradGradGradGradGradGradGradGradGrad
 Berny optimization.
 Using GEDIIS/GDIIS optimizer.
 FormGI is forming the generalized inverse of G from B-inverse, IUseBI=4.
 Internal  Forces:  Max     0.017059183 RMS     0.002441308
 Search for a local minimum.
 Step number   2 out of a maximum of  125
 All quantities printed in internal units (Hartrees-Bohrs-Radians)
 Mixed Optimization -- RFO/linear search
 Update second derivatives using D2CorX and points    1    2
 DE= -4.98D-03 DEPred=-5.82D-03 R= 8.56D-01
 TightC=F SS=  1.41D+00  RLast= 2.74D-01 DXNew= 5.0454D-01 8.2072D-01
 Trust test= 8.56D-01 RLast= 2.74D-01 DXMaxT set to 5.05D-01
 ITU=  1  0
 Use linear search instead of GDIIS.
     Eigenvalues ---    0.00230   0.00231   0.00284   0.00294   0.00684
     Eigenvalues ---    0.00788   0.01241   0.01269   0.01971   0.02127
     Eigenvalues ---    0.02333   0.02379   0.04361   0.04847   0.05476
     Eigenvalues ---    0.05490   0.05517   0.05568   0.05577   0.05597
     Eigenvalues ---    0.06075   0.06421   0.06741   0.09957   0.13020
     Eigenvalues ---    0.15216   0.15757   0.16000   0.16000   0.16000
     Eigenvalues ---    0.16000   0.16000   0.16000   0.16000   0.16000
     Eigenvalues ---    0.16035   0.16056   0.16560   0.21148   0.22044
     Eigenvalues ---    0.24303   0.24992   0.25000   0.25000   0.27680
     Eigenvalues ---    0.28275   0.28612   0.28865   0.30305   0.32910
     Eigenvalues ---    0.34498   0.34739   0.34760   0.34799   0.34804
     Eigenvalues ---    0.34807   0.34831   0.34838   0.34839   0.34903
     Eigenvalues ---    0.35104   0.44569   0.46555   0.50806   0.54778
     Eigenvalues ---    0.55092   0.57571   0.92050   1.00295
 RFO step:  Lambda=-2.39546720D-03 EMin= 2.29999967D-03
 Quartic linear search produced a step of -0.10780.
 Iteration  1 RMS(Cart)=  0.05227305 RMS(Int)=  0.00092066
 Iteration  2 RMS(Cart)=  0.00207542 RMS(Int)=  0.00022973
 Iteration  3 RMS(Cart)=  0.00000103 RMS(Int)=  0.00022973
 Iteration  4 RMS(Cart)=  0.00000000 RMS(Int)=  0.00022973
 Variable       Old X    -DE/DX   Delta X   Delta X   Delta X     New X
                                 (Linear)    (Quad)   (Total)
    R1        2.55734  -0.00082  -0.00042  -0.00010  -0.00052   2.55682
    R2        1.83691  -0.00019  -0.00281   0.00784   0.00503   1.84194
    R3        2.88366  -0.00151   0.00197  -0.01038  -0.00841   2.87526
    R4        2.28142   0.00109   0.00044  -0.00031   0.00014   2.28156
    R5        2.71094   0.00123   0.00847  -0.02166  -0.01319   2.69775
    R6        2.06924   0.00066  -0.00119   0.00515   0.00396   2.07320
    R7        2.06057   0.00081   0.00049   0.00063   0.00112   2.06169
    R8        2.57851   0.00260   0.00292  -0.00381  -0.00089   2.57762
    R9        1.90367   0.00024  -0.00017   0.00094   0.00077   1.90444
   R10        2.54874   0.00602  -0.00013   0.00999   0.00985   2.55859
   R11        2.30434   0.00133   0.00179  -0.00385  -0.00206   2.30228
   R12        2.72114   0.01706  -0.00163   0.04171   0.04008   2.76122
   R13        2.89082  -0.00110   0.00136  -0.00735  -0.00599   2.88483
   R14        2.89076   0.00215   0.00264  -0.00108   0.00156   2.89232
   R15        2.89047   0.00226   0.00271  -0.00093   0.00178   2.89225
   R16        2.06818  -0.00041  -0.00077   0.00122   0.00045   2.06864
   R17        2.06520   0.00017  -0.00057   0.00210   0.00153   2.06674
   R18        2.06834  -0.00040  -0.00082   0.00141   0.00058   2.06893
   R19        2.06651   0.00041  -0.00077   0.00327   0.00250   2.06901
   R20        2.06381  -0.00213  -0.00041  -0.00420  -0.00461   2.05920
   R21        2.06868   0.00003  -0.00099   0.00296   0.00198   2.07065
   R22        2.06637   0.00043  -0.00075   0.00330   0.00254   2.06891
   R23        2.06845  -0.00001  -0.00092   0.00265   0.00173   2.07018
   R24        2.06399  -0.00214  -0.00043  -0.00417  -0.00460   2.05940
    A1        1.86445  -0.00130  -0.00374   0.00417   0.00043   1.86488
    A2        1.93246  -0.00028  -0.00058   0.00089   0.00027   1.93272
    A3        2.15526   0.00144   0.00042   0.00403   0.00440   2.15965
    A4        2.19504  -0.00116   0.00018  -0.00442  -0.00430   2.19074
    A5        1.95876   0.00109  -0.00338   0.01530   0.01188   1.97064
    A6        1.89212  -0.00132  -0.00064  -0.00496  -0.00570   1.88642
    A7        1.91076  -0.00077  -0.00090  -0.00475  -0.00567   1.90508
    A8        1.92419   0.00109  -0.00035   0.01327   0.01295   1.93713
    A9        1.89202   0.00001   0.00693  -0.02037  -0.01339   1.87863
   A10        1.88464  -0.00015  -0.00175   0.00107  -0.00063   1.88401
   A11        2.10891  -0.00009   0.00411  -0.01620  -0.01342   2.09550
   A12        2.09506   0.00024   0.00012  -0.00440  -0.00564   2.08942
   A13        2.05867  -0.00039  -0.00319   0.00103  -0.00353   2.05514
   A14        1.90438  -0.00063  -0.00137   0.00204   0.00057   1.90495
   A15        2.17216  -0.00416   0.00237  -0.02140  -0.01913   2.15303
   A16        2.20626   0.00482  -0.00096   0.02000   0.01894   2.22521
   A17        2.08689   0.01482   0.00961   0.02370   0.03331   2.12020
   A18        1.81226  -0.00179  -0.00002  -0.02530  -0.02533   1.78693
   A19        1.92035   0.00102   0.00312   0.00608   0.00890   1.92925
   A20        1.91791   0.00118   0.00336   0.00682   0.00989   1.92780
   A21        1.93351  -0.00078  -0.00312  -0.00353  -0.00655   1.92696
   A22        1.93352  -0.00086  -0.00320  -0.00334  -0.00643   1.92708
   A23        1.94220   0.00108  -0.00025   0.01669   0.01646   1.95866
   A24        1.93282  -0.00047   0.00101  -0.00531  -0.00431   1.92851
   A25        1.92239  -0.00033   0.00282  -0.01094  -0.00813   1.91427
   A26        1.93346  -0.00049   0.00102  -0.00557  -0.00455   1.92892
   A27        1.89337   0.00037  -0.00158   0.00631   0.00472   1.89808
   A28        1.88740   0.00061  -0.00202   0.01048   0.00846   1.89585
   A29        1.89325   0.00036  -0.00152   0.00587   0.00435   1.89760
   A30        1.91782  -0.00040   0.00303  -0.01319  -0.01018   1.90764
   A31        1.93625  -0.00004   0.00157  -0.00278  -0.00119   1.93505
   A32        1.92620  -0.00040   0.00154  -0.00729  -0.00577   1.92043
   A33        1.89765   0.00033  -0.00283   0.01112   0.00831   1.90597
   A34        1.89226  -0.00013  -0.00112  -0.00187  -0.00304   1.88922
   A35        1.89276   0.00066  -0.00251   0.01462   0.01212   1.90488
   A36        1.91770  -0.00034   0.00314  -0.01327  -0.01015   1.90755
   A37        1.92577  -0.00040   0.00152  -0.00716  -0.00565   1.92012
   A38        1.93664  -0.00001   0.00153  -0.00255  -0.00100   1.93563
   A39        1.89324  -0.00014  -0.00121  -0.00150  -0.00276   1.89049
   A40        1.89752   0.00026  -0.00274   0.01027   0.00754   1.90506
   A41        1.89209   0.00065  -0.00256   0.01482   0.01227   1.90436
    D1        3.13229  -0.00025   0.00311  -0.01441  -0.01126   3.12103
    D2        0.02082  -0.00044   0.00256  -0.03155  -0.02903  -0.00821
    D3        2.97842  -0.00019   0.00128   0.03258   0.03389   3.01231
    D4       -1.17529   0.00098  -0.00167   0.05578   0.05409  -1.12121
    D5        0.87671  -0.00038  -0.00461   0.05156   0.04698   0.92369
    D6       -0.19413   0.00007   0.00185   0.05038   0.05224  -0.14190
    D7        1.93534   0.00124  -0.00111   0.07359   0.07243   2.00777
    D8       -2.29584  -0.00013  -0.00404   0.06936   0.06532  -2.23052
    D9       -1.69440   0.00058  -0.00374   0.04532   0.04154  -1.65286
   D10        1.22641  -0.00072   0.00240  -0.05833  -0.05582   1.17059
   D11        2.47768   0.00076  -0.00051   0.03205   0.03139   2.50907
   D12       -0.88469  -0.00054   0.00563  -0.07160  -0.06598  -0.95067
   D13        0.41813   0.00032  -0.00242   0.03527   0.03281   0.45094
   D14       -2.94425  -0.00098   0.00372  -0.06838  -0.06455  -3.00880
   D15        3.04653  -0.00089   0.00119  -0.05246  -0.05106   2.99548
   D16       -0.12326   0.00009   0.00387  -0.02843  -0.02461  -0.14787
   D17        0.12124   0.00031  -0.00510   0.04970   0.04466   0.16590
   D18       -3.04855   0.00129  -0.00241   0.07373   0.07111  -2.97745
   D19       -3.13491   0.00037   0.00219   0.00737   0.00982  -3.12509
   D20        0.03557  -0.00045  -0.00057  -0.01639  -0.01722   0.01835
   D21        3.12878  -0.00004   0.00029  -0.00311  -0.00283   3.12596
   D22       -1.08442  -0.00144  -0.00187  -0.01822  -0.02010  -1.10452
   D23        1.05996   0.00138   0.00244   0.01133   0.01378   1.07374
   D24       -1.04581  -0.00012   0.00050  -0.00347  -0.00297  -1.04878
   D25       -3.14020  -0.00006  -0.00005  -0.00083  -0.00088  -3.14107
   D26        1.04833   0.00002  -0.00070   0.00253   0.00184   1.05017
[...]
 Alpha  occ. eigenvalues --   -0.78401  -0.73427  -0.68637  -0.65859  -0.60079
 Alpha  occ. eigenvalues --   -0.59418  -0.59220  -0.56353  -0.55830  -0.54941
 Alpha  occ. eigenvalues --   -0.52364  -0.51915  -0.51002  -0.49041  -0.48278
 Alpha  occ. eigenvalues --   -0.46732  -0.45419  -0.45013  -0.43099  -0.42608
 Alpha  occ. eigenvalues --   -0.41546  -0.41083  -0.40159  -0.37772  -0.36599
 Alpha  occ. eigenvalues --   -0.35505  -0.33516
 Alpha virt. eigenvalues --    0.03818   0.05510   0.06333   0.07556   0.08727
 Alpha virt. eigenvalues --    0.10777   0.10826   0.12178   0.12286   0.13670
 Alpha virt. eigenvalues --    0.13795   0.15222   0.16526   0.16918   0.17453
 Alpha virt. eigenvalues --    0.18144   0.18610   0.18918   0.19937   0.20396
 Alpha virt. eigenvalues --    0.20533   0.21391   0.22240   0.24027   0.24301
 Alpha virt. eigenvalues --    0.25141   0.27146   0.29591   0.30011   0.30735
 Alpha virt. eigenvalues --    0.31364   0.32605   0.33349   0.34826   0.35257
 Alpha virt. eigenvalues --    0.36439   0.37491   0.38030   0.38877   0.38991
 Alpha virt. eigenvalues --    0.39899   0.40309   0.40602   0.41097   0.43008
 Alpha virt. eigenvalues --    0.44125   0.45324   0.45808   0.45964   0.46332
 Alpha virt. eigenvalues --    0.47495   0.48301   0.48782   0.48893   0.49507
 Alpha virt. eigenvalues --    0.51012   0.51221   0.51320   0.51625   0.52766
 Alpha virt. eigenvalues --    0.53251   0.53576   0.54976   0.55709   0.57148
 Alpha virt. eigenvalues --    0.57554   0.57973   0.60178   0.61118   0.61841
 Alpha virt. eigenvalues --    0.63917   0.64914   0.65737   0.66537   0.69071
 Alpha virt. eigenvalues --    0.70432   0.70980   0.71682   0.73393   0.74182
 Alpha virt. eigenvalues --    0.75262   0.79425   0.80386   0.82084   0.83494
 Alpha virt. eigenvalues --    0.85473   0.86330   0.86623   0.87658   0.88600
 Alpha virt. eigenvalues --    0.90607   0.91406   0.92611   0.95174   0.96433
 Alpha virt. eigenvalues --    0.97736   0.99173   0.99753   1.01273   1.02974
 Alpha virt. eigenvalues --    1.03665   1.04484   1.06144   1.06703   1.08286
 Alpha virt. eigenvalues --    1.10760   1.12710   1.14082   1.14633   1.16184
 Alpha virt. eigenvalues --    1.16607   1.17908   1.21757   1.23880   1.26617
 Alpha virt. eigenvalues --    1.28622   1.30726   1.32703   1.33207   1.34751
 Alpha virt. eigenvalues --    1.35926   1.37235   1.39705   1.44760   1.45641
 Alpha virt. eigenvalues --    1.47337   1.49316   1.50108   1.50936   1.52387
 Alpha virt. eigenvalues --    1.53904   1.54842   1.55940   1.58031   1.58752
 Alpha virt. eigenvalues --    1.59170   1.60779   1.61677   1.63425   1.63664
 Alpha virt. eigenvalues --    1.64198   1.65226   1.65621   1.66171   1.67471
 Alpha virt. eigenvalues --    1.68434   1.69343   1.69774   1.71207   1.72261
 Alpha virt. eigenvalues --    1.76009   1.77120   1.79386   1.80162   1.80920
 Alpha virt. eigenvalues --    1.84065   1.85020   1.87063   1.88010   1.88511
 Alpha virt. eigenvalues --    1.89630   1.91671   1.92885   1.94391   1.96213
 Alpha virt. eigenvalues --    1.97884   1.99927   2.01746   2.04146   2.04658
 Alpha virt. eigenvalues --    2.06271   2.07861   2.10321   2.11222   2.13930
 Alpha virt. eigenvalues --    2.14048   2.14705   2.15178   2.16780   2.17336
 Alpha virt. eigenvalues --    2.19641   2.20103   2.22878   2.24367   2.26196
 Alpha virt. eigenvalues --    2.27715   2.30013   2.30581   2.31151   2.31642
 Alpha virt. eigenvalues --    2.33481   2.33694   2.35020   2.37452   2.37999
 Alpha virt. eigenvalues --    2.38657   2.40670   2.41167   2.42079   2.42305
 Alpha virt. eigenvalues --    2.43567   2.45088   2.47095   2.49723   2.50611
 Alpha virt. eigenvalues --    2.52026   2.54559   2.55400   2.56212   2.57426
 Alpha virt. eigenvalues --    2.57610   2.60168   2.61633   2.62490   2.64151
 Alpha virt. eigenvalues --    2.66591   2.67586   2.68151   2.68704   2.71537
 Alpha virt. eigenvalues --    2.72631   2.75556   2.77714   2.80012   2.80433
 Alpha virt. eigenvalues --    2.80622   2.81327   2.83185   2.85303   2.87341
 Alpha virt. eigenvalues --    2.88104   2.88734   2.90215   2.94138   2.95257
 Alpha virt. eigenvalues --    2.96103   2.97913   2.98542   3.00235   3.03822
 Alpha virt. eigenvalues --    3.05547   3.07788   3.08650   3.09214   3.11057
 Alpha virt. eigenvalues --    3.12860   3.13658   3.14058   3.15086   3.17690
 Alpha virt. eigenvalues --    3.17926   3.19488   3.20571   3.20801   3.22599
 Alpha virt. eigenvalues --    3.23106   3.23965   3.25179   3.28124   3.28765
 Alpha virt. eigenvalues --    3.30319   3.31777   3.32473   3.32990   3.33613
 Alpha virt. eigenvalues --    3.34308   3.35527   3.36702   3.37618   3.38208
 Alpha virt. eigenvalues --    3.38825   3.39916   3.40575   3.40919   3.42292
 Alpha virt. eigenvalues --    3.46184   3.47208   3.47537   3.51424   3.51916
 Alpha virt. eigenvalues --    3.55251   3.57067   3.58002   3.59014   3.63491
 Alpha virt. eigenvalues --    3.64609   3.65518   3.66089   3.69713   3.71999
 Alpha virt. eigenvalues --    3.72898   3.76542   3.80334   3.81568   3.82680
 Alpha virt. eigenvalues --    3.84089   3.90771   3.93269   3.96513   4.00387
 Alpha virt. eigenvalues --    4.00862   4.01333   4.02778   4.03954   4.04593
 Alpha virt. eigenvalues --    4.08706   4.11508   4.11755   4.12251   4.18592
 Alpha virt. eigenvalues --    4.23170   4.28842   4.30499   4.33282   4.36250
 Alpha virt. eigenvalues --    4.36909   4.38872   4.40923   4.42559   4.43639
 Alpha virt. eigenvalues --    4.46465   4.48198   4.50479   4.54129   4.63919
 Alpha virt. eigenvalues --    4.68436   4.69313   4.73156   4.75344   4.82853
 Alpha virt. eigenvalues --    4.84423   4.87021   4.88809   4.90848   4.99819
 Alpha virt. eigenvalues --    5.02309   5.08541   5.14378   5.16028   5.17517
 Alpha virt. eigenvalues --    5.21027   5.22063   5.23335   5.26889   5.29688
 Alpha virt. eigenvalues --    5.35480   5.36558   5.38381   5.40476   5.41142
 Alpha virt. eigenvalues --    5.48462   5.52181   5.56466   5.59361   5.67969
 Alpha virt. eigenvalues --    5.71727   5.74708   5.77531   5.86764   5.87096
 Alpha virt. eigenvalues --    5.90605   6.03392   6.13689   6.15060   6.17715
 Alpha virt. eigenvalues --    6.19198   6.24569   6.32230   6.34810   6.40417
 Alpha virt. eigenvalues --    6.41282   6.43419   6.47169   6.54799   6.62963
 Alpha virt. eigenvalues --    6.67273   6.68151   6.70719   6.72885   6.80525
 Alpha virt. eigenvalues --    6.80704   6.87625   6.90864   6.95428   7.05981
 Alpha virt. eigenvalues --    7.07503   7.09122   7.15243   7.28948   7.38470
 Alpha virt. eigenvalues --    7.42797  22.48905  22.52596  22.54012  22.62667
 Alpha virt. eigenvalues --   22.71269  23.28497  23.53266  32.55487  43.91716
 Alpha virt. eigenvalues --   43.99424  44.09541  44.57375
          Condensed to atoms (all electrons):
               1          2          3          4          5          6
     1  O    7.933613   0.377025  -0.129315   0.008664  -0.000823  -0.000005
     2  C    0.377025   4.464585   0.274945  -0.042241   0.013567  -0.000958
     3  C   -0.129315   0.274945   5.252337   0.193177  -0.043754   0.007411
     4  N    0.008664  -0.042241   0.193177   6.649703   0.403697  -0.105286
     5  C   -0.000823   0.013567  -0.043754   0.403697   4.264128   0.370516
     6  O   -0.000005  -0.000958   0.007411  -0.105286   0.370516   8.050437
     7  C   -0.000001   0.000189  -0.001384   0.009630  -0.048879   0.172091
     8  C   -0.000000   0.000014  -0.000045   0.000341  -0.001413  -0.054819
     9  C   -0.000000  -0.000018   0.000050  -0.001738  -0.009548  -0.039809
    10  C   -0.000002  -0.000046   0.000770  -0.002468  -0.004336  -0.041351
    11  O   -0.000110   0.000602   0.005782  -0.096062   0.594541  -0.074538
    12  O   -0.086518   0.667739  -0.111206   0.011561   0.008402  -0.000473
    13  H    0.287905  -0.024616   0.018727  -0.001093   0.000006   0.000001
    14  H    0.004452  -0.033666   0.400911  -0.031051   0.006379  -0.000045
    15  H    0.009150  -0.032505   0.390476  -0.011277  -0.022479   0.000651
    16  H    0.000323  -0.006499  -0.031869   0.380964  -0.048165   0.006697
    17  H   -0.000000  -0.000000  -0.000008  -0.000066  -0.000880  -0.000598
    18  H   -0.000000   0.000000  -0.000002   0.000006   0.000356   0.005653
    19  H    0.000000  -0.000000   0.000004  -0.000014  -0.000569  -0.000440
    20  H    0.000000   0.000000  -0.000008   0.000044   0.002027   0.004921
    21  H    0.000000   0.000006  -0.000143   0.000524  -0.004454  -0.002473
    22  H   -0.000000   0.000001   0.000023   0.000071  -0.002186   0.001394
    23  H   -0.000000   0.000004  -0.000002  -0.000012   0.001512   0.005127
    24  H    0.000002   0.000014  -0.000134   0.000227  -0.001920   0.001310
    25  H   -0.000002   0.000068  -0.000024   0.000321  -0.004619  -0.002621
               7          8          9         10         11         12
     1  O   -0.000001  -0.000000  -0.000000  -0.000002  -0.000110  -0.086518
     2  C    0.000189   0.000014  -0.000018  -0.000046   0.000602   0.667739
     3  C   -0.001384  -0.000045   0.000050   0.000770   0.005782  -0.111206
     4  N    0.009630   0.000341  -0.001738  -0.002468  -0.096062   0.011561
     5  C   -0.048879  -0.001413  -0.009548  -0.004336   0.594541   0.008402
     6  O    0.172091  -0.054819  -0.039809  -0.041351  -0.074538  -0.000473
     7  C    5.053392   0.309499   0.301914   0.298691   0.040828  -0.000169
     8  C    0.309499   5.152503  -0.096170  -0.096359   0.001241  -0.000000
     9  C    0.301914  -0.096170   5.232627  -0.097491  -0.029340   0.000014
    10  C    0.298691  -0.096359  -0.097491   5.231665  -0.028717  -0.000089
    11  O    0.040828   0.001241  -0.029340  -0.028717   7.982229  -0.001043
    12  O   -0.000169  -0.000000   0.000014  -0.000089  -0.001043   7.824264
    13  H    0.000001  -0.000000   0.000000  -0.000000  -0.000014   0.005602
    14  H   -0.000005  -0.000004  -0.000001   0.000002   0.001159   0.001509
    15  H   -0.000250  -0.000001   0.000031   0.000053   0.011848   0.002322
    16  H   -0.000867  -0.000333   0.000259   0.000390   0.003539   0.004538
    17  H   -0.028959   0.405081   0.013490  -0.012225   0.000002  -0.000001
    18  H   -0.027426   0.407803  -0.009585  -0.009905   0.000079  -0.000000
    19  H   -0.028749   0.403589  -0.012742   0.013597   0.000008   0.000000
    20  H   -0.023902  -0.013051   0.397922  -0.006112   0.000779   0.000000
    21  H   -0.024791   0.011776   0.407773  -0.010325   0.007878   0.000000
    22  H   -0.030803  -0.010108   0.396513   0.013172  -0.000192  -0.000000
    23  H   -0.023106  -0.012695  -0.005991   0.395941   0.000662   0.000007
    24  H   -0.030052  -0.010401   0.012893   0.397914  -0.000376   0.000367
    25  H   -0.024068   0.011721  -0.010659   0.408256   0.007518   0.000021
              13         14         15         16         17         18
     1  O    0.287905   0.004452   0.009150   0.000323  -0.000000  -0.000000
     2  C   -0.024616  -0.033666  -0.032505  -0.006499  -0.000000   0.000000
     3  C    0.018727   0.400911   0.390476  -0.031869  -0.000008  -0.000002
     4  N   -0.001093  -0.031051  -0.011277   0.380964  -0.000066   0.000006
     5  C    0.000006   0.006379  -0.022479  -0.048165  -0.000880   0.000356
     6  O    0.000001  -0.000045   0.000651   0.006697  -0.000598   0.005653
     7  C    0.000001  -0.000005  -0.000250  -0.000867  -0.028959  -0.027426
     8  C   -0.000000  -0.000004  -0.000001  -0.000333   0.405081   0.407803
     9  C    0.000000  -0.000001   0.000031   0.000259   0.013490  -0.009585
    10  C   -0.000000   0.000002   0.000053   0.000390  -0.012225  -0.009905
    11  O   -0.000014   0.001159   0.011848   0.003539   0.000002   0.000079
    12  O    0.005602   0.001509   0.002322   0.004538  -0.000001  -0.000000
    13  H    0.374277  -0.000845  -0.001110  -0.000057   0.000000   0.000000
    14  H   -0.000845   0.484406  -0.010477  -0.003320  -0.000000   0.000000
    15  H   -0.001110  -0.010477   0.457650   0.005849   0.000000  -0.000000
    16  H   -0.000057  -0.003320   0.005849   0.437674   0.000053   0.000008
    17  H    0.000000  -0.000000   0.000000   0.000053   0.512462  -0.023240
    18  H    0.000000   0.000000  -0.000000   0.000008  -0.023240   0.534144
    19  H   -0.000000   0.000000  -0.000001   0.000002  -0.021232  -0.023534
    20  H   -0.000000   0.000000  -0.000000  -0.000006  -0.000069   0.001396
    21  H   -0.000000   0.000001   0.000066  -0.000043  -0.000353  -0.000065
    22  H   -0.000000   0.000000  -0.000009  -0.000004  -0.000333   0.000702
    23  H    0.000000  -0.000000  -0.000001  -0.000011   0.000563   0.001365
    24  H   -0.000000  -0.000000   0.000002   0.000062   0.002679   0.000734
    25  H    0.000000  -0.000000  -0.000019  -0.000115  -0.000143  -0.000057
              19         20         21         22         23         24
     1  O    0.000000   0.000000   0.000000  -0.000000  -0.000000   0.000002
     2  C   -0.000000   0.000000   0.000006   0.000001   0.000004   0.000014
     3  C    0.000004  -0.000008  -0.000143   0.000023  -0.000002  -0.000134
     4  N   -0.000014   0.000044   0.000524   0.000071  -0.000012   0.000227
     5  C   -0.000569   0.002027  -0.004454  -0.002186   0.001512  -0.001920
     6  O   -0.000440   0.004921  -0.002473   0.001394   0.005127   0.001310
     7  C   -0.028749  -0.023902  -0.024791  -0.030803  -0.023106  -0.030052
     8  C    0.403589  -0.013051   0.011776  -0.010108  -0.012695  -0.010401
     9  C   -0.012742   0.397922   0.407773   0.396513  -0.005991   0.012893
    10  C    0.013597  -0.006112  -0.010325   0.013172   0.395941   0.397914
    11  O    0.000008   0.000779   0.007878  -0.000192   0.000662  -0.000376
    12  O    0.000000   0.000000   0.000000  -0.000000   0.000007   0.000367
    13  H   -0.000000  -0.000000  -0.000000  -0.000000   0.000000  -0.000000
    14  H    0.000000   0.000000   0.000001   0.000000  -0.000000  -0.000000
    15  H   -0.000001  -0.000000   0.000066  -0.000009  -0.000001   0.000002
    16  H    0.000002  -0.000006  -0.000043  -0.000004  -0.000011   0.000062
    17  H   -0.021232  -0.000069  -0.000353  -0.000333   0.000563   0.002679
    18  H   -0.023534   0.001396  -0.000065   0.000702   0.001365   0.000734
    19  H    0.515702   0.000642  -0.000141   0.002783  -0.000063  -0.000327
    20  H    0.000642   0.529366  -0.019231  -0.021692  -0.000041  -0.000103
    21  H   -0.000141  -0.019231   0.467346  -0.020556   0.000289  -0.000105
    22  H    0.002783  -0.021692  -0.020556   0.521394  -0.000126  -0.000488
    23  H   -0.000063  -0.000041   0.000289  -0.000126   0.532892  -0.021696
    24  H   -0.000327  -0.000103  -0.000105  -0.000488  -0.021696   0.512086
    25  H   -0.000351   0.000400   0.002327  -0.000111  -0.019937  -0.019599
              25
     1  O   -0.000002
     2  C    0.000068
     3  C   -0.000024
     4  N    0.000321
     5  C   -0.004619
     6  O   -0.002621
     7  C   -0.024068
     8  C    0.011721
     9  C   -0.010659
    10  C    0.408256
    11  O    0.007518
    12  O    0.000021
    13  H    0.000000
    14  H   -0.000000
    15  H   -0.000019
    16  H   -0.000115
    17  H   -0.000143
    18  H   -0.000057
    19  H   -0.000351
    20  H    0.000400
    21  H    0.002327
    22  H   -0.000111
    23  H   -0.019937
    24  H   -0.019599
    25  H    0.467494
 Mulliken charges:
               1
     1  O   -0.404355
     2  C    0.341790
     3  C   -0.226716
     4  N   -0.367619
     5  C    0.528892
     6  O   -0.302792
     7  C    0.107178
     8  C   -0.408169
     9  C   -0.450394
    10  C   -0.451026
    11  O   -0.428303
    12  O   -0.326844
    13  H    0.341215
    14  H    0.180597
    15  H    0.200033
    16  H    0.250932
    17  H    0.153779
    18  H    0.141570
    19  H    0.151837
    20  H    0.146718
    21  H    0.184694
    22  H    0.150554
    23  H    0.145321
    24  H    0.156910
    25  H    0.184198
 Sum of Mulliken charges =  -0.00000
 Mulliken charges with hydrogens summed into heavy atoms:
               1
     1  O   -0.063140
     2  C    0.341790
     3  C    0.153915
     4  N   -0.116687
     5  C    0.528892
     6  O   -0.302792
     7  C    0.107178
     8  C    0.039017
     9  C    0.031573
    10  C    0.035403
    11  O   -0.428303
    12  O   -0.326844
 Electronic spatial extent (au):  <R**2>=           2731.5709
 Charge=             -0.0000 electrons
 Dipole moment (field-independent basis, Debye):
    X=              0.4759    Y=              0.0784    Z=             -1.4385  Tot=              1.5172
 Quadrupole moment (field-independent basis, Debye-Ang):
   XX=            -57.3848   YY=            -74.5337   ZZ=            -72.1875
   XY=             -0.5095   XZ=             -1.0622   YZ=              3.3086
 Traceless Quadrupole moment (field-independent basis, Debye-Ang):
   XX=             10.6505   YY=             -6.4983   ZZ=             -4.1522
   XY=             -0.5095   XZ=             -1.0622   YZ=              3.3086
 Octapole moment (field-independent basis, Debye-Ang**2):
  XXX=             47.9739  YYY=             -2.5152  ZZZ=             -8.3025  XYY=              9.2579
  XXY=             19.2797  XXZ=              8.5625  XZZ=             14.4126  YZZ=              4.0235
  YYZ=              1.7198  XYZ=              7.9438
 Hexadecapole moment (field-independent basis, Debye-Ang**3):
 XXXX=          -2487.3119 YYYY=           -452.7743 ZZZZ=           -341.4602 XXXY=            128.7856
 XXXZ=             32.2667 YYYX=              4.8669 YYYZ=             -0.9244 ZZZX=              1.0466
 ZZZY=              2.0634 XXYY=           -502.3399 XXZZ=           -495.3081 YYZZ=           -134.2675
 XXYZ=             41.4054 YYXZ=             14.6086 ZZXY=              8.9063
 N-N= 7.588986762879D+02 E-N=-2.992821544308D+03  KE= 6.271383669632D+02
 Unable to Open any file for archive entry.
 1\1\GINC-NOTCH214\SP\RM062X\def2TZVP\C7H13N1O4\U6032257\05-Feb-2022\0\
 \# M062X/def2tzvp int=(grid=ultrafine) nmr=giao guess=read geom=check\
 \Ac2.xyz\\0,1\O,0,4.2919063913,-1.244053799,1.2895304655\C,0,3.6126472
 822,-0.4174721893,0.4640492389\C,0,3.8345695165,-0.7968845662,-0.99380
 90068\N,0,3.0783296068,0.0275681637,-1.9003137018\C,0,1.7394364256,-0.
 2637283664,-2.0623400946\O,0,1.1216719575,0.7886087968,-2.633581899\C,
 0,-0.3201475886,0.7405492654,-2.9221939298\C,0,-0.5828365703,2.1188509
 842,-3.5263874119\C,0,-0.6104019737,-0.3651726303,-3.9380590989\C,0,-1
 .1030184443,0.5574107981,-1.6210770796\O,0,1.23864563,-1.3332555537,-1
 .7602133243\O,0,2.9336983885,0.5055433084,0.8497132861\H,0,4.103263305
 7,-0.9451388555,2.1950905506\H,0,4.9045801006,-0.733396656,-1.21563634
 44\H,0,3.5294682983,-1.8364879567,-1.1300427973\H,0,3.2920112712,1.015
 5049594,-1.9056697502\H,0,-0.3304384047,2.9063350422,-2.8110815888\H,0
 ,-1.6393206562,2.2149360093,-3.7917800502\H,0,0.0174892,2.2640077882,-
 4.4286981337\H,0,-1.6627498215,-0.3208993248,-4.2351782242\H,0,-0.4030
 308104,-1.3470425729,-3.5135237977\H,0,0.0033979132,-0.2263275707,-4.8
 330854839\H,0,-2.1743543639,0.6504061292,-1.8240665545\H,0,-0.82156714
 35,1.3303548626,-0.9000086816\H,0,-0.9090495101,-0.4214160661,-1.18353
 6588\\Version=ES64L-G16RevC.01\State=1-A\HF=-630.2694284\RMSD=1.937e-0
 9\Dipole=0.4420464,0.3946008,-0.0720738\Quadrupole=4.6574403,-5.529343
 3,0.871903,-1.672733,4.1897079,-2.7821345\PG=C01 [X(C7H13N1O4)]\\@
 The archive entry for this job was punched.


 NO SCIENCE HAS EVER MADE MORE RAPID PROGRESS IN A
 SHORTER TIME THAN CHEMISTRY.
   -- MARTIN HEINRICH KLOPROTH, 1791
 (FIRST PROFESSOR OF CHEMISTRY AT THE UNIVERSITY OF BERLIN)
 Job cpu time:       0 days  0 hours 33 minutes 49.6 seconds.
 Elapsed time:       0 days  0 hours  0 minutes 46.1 seconds.
 File lengths (MBytes):  RWF=    117 Int=      0 D2E=      0 Chk=     20 Scr=      1
 Normal termination of Gaussian 16 at Sat Feb  5 09:07:25 2022.
