 Entering Gaussian System, Link 0=/uufs/chpc.utah.edu/sys/installdir/gaussian16/C01/AVX2/g16/g16
 Input=Ac2_conf-7.com
 Output=Ac2_conf-7.log
 Initial command:
 /uufs/chpc.utah.edu/sys/installdir/gaussian16/C01/AVX2/g16/l1.exe "/scratch/general/lustre/u6032257/3867924/notchpeak.peaks/Gau-175429.inp" -scrdir="/scratch/general/lustre/u6032257/3867924/notchpeak.peaks/"
 Entering Link 1 = /uufs/chpc.utah.edu/sys/installdir/gaussian16/C01/AVX2/g16/l1.exe PID=    175431.
  
 Copyright (c) 1988-2019, Gaussian, Inc.  All Rights Reserved.
  
 This is part of the Gaussian(R) 16 program.  It is based on
 the Gaussian(R) 09 system (copyright 2009, Gaussian, Inc.),
 the Gaussian(R) 03 system (copyright 2003, Gaussian, Inc.),
 the Gaussian(R) 98 system (copyright 1998, Gaussian, Inc.),
 the Gaussian(R) 94 system (copyright 1995, Gaussian, Inc.),
 the Gaussian 92(TM) system (copyright 1992, Gaussian, Inc.),
 the Gaussian 90(TM) system (copyright 1990, Gaussian, Inc.),
 the Gaussian 88(TM) system (copyright 1988, Gaussian, Inc.),
 the Gaussian 86(TM) system (copyright 1986, Carnegie Mellon
 University), and the Gaussian 82(TM) system (copyright 1983,
 Carnegie Mellon University). Gaussian is a federally registered
 trademark of Gaussian, Inc.
  
 This software contains proprietary and confidential information,
 including trade secrets, belonging to Gaussian, Inc.
  
 This software is provided under written license and may be
 used, copied, transmitted, or stored only in accord with that
 written license.
  
 The following legend is applicable only to US Government
 contracts under FAR:
  
                    RESTRICTED RIGHTS LEGEND
  
 Use, reproduction and disclosure by the US Government is
 subject to restrictions as set forth in subparagraphs (a)
 and (c) of the Commercial Computer Software - Restricted
 Rights clause in FAR 52.227-19.
  
 Gaussian, Inc.
 340 Quinnipiac St., Bldg. 40, Wallingford CT 06492
  
  
 ---------------------------------------------------------------
 Warning -- This program may not be used in any manner that
 competes with the business of Gaussian, Inc. or will provide
 assistance to any competitor of Gaussian, Inc.  The licensee
 of this program is prohibited from giving any competitor of
 Gaussian, Inc. access to this program.  By using this program,
 the user acknowledges that Gaussian, Inc. is engaged in the
 business of creating and licensing software in the field of
 computational chemistry and represents and warrants to the
 licensee that it is not a competitor of Gaussian, Inc. and that
 it will not use this program in any manner prohibited above.
 ---------------------------------------------------------------
  

 Cite this work as:
 Gaussian 16, Revision C.01,
 M. J. Frisch, G. W. Trucks, H. B. Schlegel, G. E. Scuseria, 
 M. A. Robb, J. R. Cheeseman, G. Scalmani, V. Barone, 
 G. A. Petersson, H. Nakatsuji, X. Li, M. Caricato, A. V. Marenich, 
 J. Bloino, B. G. Janesko, R. Gomperts, B. Mennucci, H. P. Hratchian, 
 J. V. Ortiz, A. F. Izmaylov, J. L. Sonnenberg, D. Williams-Young, 
 F. Ding, F. Lipparini, F. Egidi, J. Goings, B. Peng, A. Petrone, 
 T. Henderson, D. Ranasinghe, V. G. Zakrzewski, J. Gao, N. Rega, 
 G. Zheng, W. Liang, M. Hada, M. Ehara, K. Toyota, R. Fukuda, 
 J. Hasegawa, M. Ishida, T. Nakajima, Y. Honda, O. Kitao, H. Nakai, 
 T. Vreven, K. Throssell, J. A. Montgomery, Jr., J. E. Peralta, 
 F. Ogliaro, M. J. Bearpark, J. J. Heyd, E. N. Brothers, K. N. Kudin, 
 V. N. Staroverov, T. A. Keith, R. Kobayashi, J. Normand, 
 K. Raghavachari, A. P. Rendell, J. C. Burant, S. S. Iyengar, 
 J. Tomasi, M. Cossi, J. M. Millam, M. Klene, C. Adamo, R. Cammi, 
 J. W. Ochterski, R. L. Martin, K. Morokuma, O. Farkas, 
 J. B. Foresman, and D. J. Fox, Gaussian, Inc., Wallingford CT, 2019.
 
 ******************************************
 Gaussian 16:  ES64L-G16RevC.01  3-Jul-2019
                 5-Feb-2022 
 ******************************************
 %NProcShared=40
 Will use up to   40 processors via shared memory.
 %mem=16GB
 %chk=Ac2_conf-7.chk
 ----------------------------------------------------------------------
 # B3LYP/6-31G(d,p) empiricaldispersion=GD3BJ int=(grid=ultrafine) opt 
 freq=noraman
 ----------------------------------------------------------------------
 1/18=20,19=15,26=4,38=1/1,3;
 2/9=110,12=2,17=6,18=5,40=1/2;
 3/5=1,6=6,7=101,11=2,25=1,30=1,71=1,74=-5,75=-5,124=41/1,2,3;
 4//1;
 5/5=2,38=5/2;
 6/7=2,8=2,9=2,10=2,28=1/1;
 7//1,2,3,16;
 1/18=20,19=15,26=4/3(2);
 2/9=110/2;
 99//99;
 2/9=110/2;
 3/5=1,6=6,7=101,11=2,25=1,30=1,71=1,74=-5,75=-5,124=41/1,2,3;
 4/5=5,16=3,69=1/1;
 5/5=2,38=5/2;
 7//1,2,3,16;
 1/18=20,19=15,26=4/3(-5);
 2/9=110/2;
 6/7=2,8=2,9=2,10=2,19=2,28=1/1;
 99/9=1/99;
 -------
 Ac2.xyz
 -------
 Symbolic Z-matrix:
 Charge =  0 Multiplicity = 1
 O                     4.3179   -0.9255    0.1448 
 C                     3.5503    0.1642    0.3854 
 C                     2.1287   -0.2072    0.8349 
 N                     1.552    -1.2706   -0.0214 
 C                     0.9734   -1.0832   -1.2657 
 O                     0.8893    0.232    -1.5872 
 C                     0.3893    0.7423   -2.8261 
 C                     0.5369    2.2642   -2.6772 
 C                     1.2401    0.2666   -4.0216 
 C                    -1.0993    0.3925   -3.0259 
 O                     0.5942   -2.0119   -1.9689 
 O                     3.9525    1.2987    0.3021 
 H                     5.1672   -0.5762   -0.1283 
 H                     2.1936   -0.5588    1.8636 
 H                     1.5096    0.6917    0.8483 
 H                     1.6949   -2.2349    0.2319 
 H                    -0.0382    2.6371   -1.8291 
 H                     0.1942    2.7913   -3.5676 
 H                     1.5766    2.5456   -2.5048 
 H                     0.9432    0.7625   -4.9454 
 H                     1.1436   -0.8069   -4.1847 
 H                     2.2977    0.4726   -3.8572 
 H                    -1.5135    0.8954   -3.8995 
 H                    -1.692     0.6862   -2.1597 
 H                    -1.2475   -0.678    -3.1681 
 

 GradGradGradGradGradGradGradGradGradGradGradGradGradGradGradGradGradGrad
 Berny optimization.
 Initialization pass.
                           ----------------------------
                           !    Initial Parameters    !
                           ! (Angstroms and Degrees)  !
 --------------------------                            --------------------------
 ! Name  Definition              Value          Derivative Info.                !
 --------------------------------------------------------------------------------
 ! R1    R(1,2)                  1.3545         estimate D2E/DX2                !
 ! R2    R(1,13)                 0.9581         estimate D2E/DX2                !
 ! R3    R(2,3)                  1.5365         estimate D2E/DX2                !
 ! R4    R(2,12)                 1.2066         estimate D2E/DX2                !
 ! R5    R(3,4)                  1.4821         estimate D2E/DX2                !
 ! R6    R(3,14)                 1.0891         estimate D2E/DX2                !
 ! R7    R(3,15)                 1.0916         estimate D2E/DX2                !
 ! R8    R(4,5)                  1.385          estimate D2E/DX2                !
 ! R9    R(4,16)                 1.0072         estimate D2E/DX2                !
 ! R10   R(5,6)                  1.3565         estimate D2E/DX2                !
 ! R11   R(5,11)                 1.2251         estimate D2E/DX2                !
 ! R12   R(6,7)                  1.4301         estimate D2E/DX2                !
 ! R13   R(7,8)                  1.5363         estimate D2E/DX2                !
 ! R14   R(7,9)                  1.5425         estimate D2E/DX2                !
 ! R15   R(7,10)                 1.5421         estimate D2E/DX2                !
 ! R16   R(8,17)                 1.0904         estimate D2E/DX2                !
 ! R17   R(8,18)                 1.09           estimate D2E/DX2                !
 ! R18   R(8,19)                 1.0908         estimate D2E/DX2                !
 ! R19   R(9,20)                 1.0897         estimate D2E/DX2                !
 ! R20   R(9,21)                 1.0901         estimate D2E/DX2                !
 ! R21   R(9,22)                 1.0899         estimate D2E/DX2                !
 ! R22   R(10,23)                1.0898         estimate D2E/DX2                !
 ! R23   R(10,24)                1.0899         estimate D2E/DX2                !
 ! R24   R(10,25)                1.09           estimate D2E/DX2                !
 ! A1    A(2,1,13)             105.052          estimate D2E/DX2                !
 ! A2    A(1,2,3)              112.4472         estimate D2E/DX2                !
 ! A3    A(1,2,12)             123.7316         estimate D2E/DX2                !
 ! A4    A(3,2,12)             123.7715         estimate D2E/DX2                !
 ! A5    A(2,3,4)              111.3713         estimate D2E/DX2                !
 ! A6    A(2,3,14)             107.4113         estimate D2E/DX2                !
 ! A7    A(2,3,15)             109.2256         estimate D2E/DX2                !
 ! A8    A(4,3,14)             109.7114         estimate D2E/DX2                !
 ! A9    A(4,3,15)             112.164          estimate D2E/DX2                !
 ! A10   A(14,3,15)            106.7424         estimate D2E/DX2                !
 ! A11   A(3,4,5)              125.7707         estimate D2E/DX2                !
 ! A12   A(3,4,16)             119.1058         estimate D2E/DX2                !
 ! A13   A(5,4,16)             114.5042         estimate D2E/DX2                !
 ! A14   A(4,5,6)              111.7164         estimate D2E/DX2                !
 ! A15   A(4,5,11)             122.8502         estimate D2E/DX2                !
 ! A16   A(6,5,11)             125.4333         estimate D2E/DX2                !
 ! A17   A(5,6,7)              124.955          estimate D2E/DX2                !
 ! A18   A(6,7,8)              103.6464         estimate D2E/DX2                !
 ! A19   A(6,7,9)              111.6243         estimate D2E/DX2                !
 ! A20   A(6,7,10)             111.6403         estimate D2E/DX2                !
 ! A21   A(8,7,9)              109.1251         estimate D2E/DX2                !
 ! A22   A(8,7,10)             109.2689         estimate D2E/DX2                !
 ! A23   A(9,7,10)             111.2261         estimate D2E/DX2                !
 ! A24   A(7,8,17)             111.3142         estimate D2E/DX2                !
 ! A25   A(7,8,18)             111.6955         estimate D2E/DX2                !
 ! A26   A(7,8,19)             111.2508         estimate D2E/DX2                !
 ! A27   A(17,8,18)            107.707          estimate D2E/DX2                !
 ! A28   A(17,8,19)            106.9504         estimate D2E/DX2                !
 ! A29   A(18,8,19)            107.6996         estimate D2E/DX2                !
 ! A30   A(7,9,20)             111.4944         estimate D2E/DX2                !
 ! A31   A(7,9,21)             111.7667         estimate D2E/DX2                !
 ! A32   A(7,9,22)             111.1008         estimate D2E/DX2                !
 ! A33   A(20,9,21)            107.2887         estimate D2E/DX2                !
 ! A34   A(20,9,22)            107.8322         estimate D2E/DX2                !
 ! A35   A(21,9,22)            107.1328         estimate D2E/DX2                !
 ! A36   A(7,10,23)            111.4729         estimate D2E/DX2                !
 ! A37   A(7,10,24)            111.1519         estimate D2E/DX2                !
 ! A38   A(7,10,25)            111.7715         estimate D2E/DX2                !
 ! A39   A(23,10,24)           107.8215         estimate D2E/DX2                !
 ! A40   A(23,10,25)           107.2744         estimate D2E/DX2                !
 ! A41   A(24,10,25)           107.1212         estimate D2E/DX2                !
 ! D1    D(13,1,2,3)           179.7432         estimate D2E/DX2                !
 ! D2    D(13,1,2,12)           -2.7381         estimate D2E/DX2                !
 ! D3    D(1,2,3,4)            -45.9423         estimate D2E/DX2                !
 ! D4    D(1,2,3,14)            74.2096         estimate D2E/DX2                !
 ! D5    D(1,2,3,15)          -170.3801         estimate D2E/DX2                !
 ! D6    D(12,2,3,4)           136.5401         estimate D2E/DX2                !
 ! D7    D(12,2,3,14)         -103.3079         estimate D2E/DX2                !
 ! D8    D(12,2,3,15)           12.1024         estimate D2E/DX2                !
 ! D9    D(2,3,4,5)            -80.7058         estimate D2E/DX2                !
 ! D10   D(2,3,4,16)            89.751          estimate D2E/DX2                !
 ! D11   D(14,3,4,5)           160.5093         estimate D2E/DX2                !
 ! D12   D(14,3,4,16)          -29.0339         estimate D2E/DX2                !
 ! D13   D(15,3,4,5)            42.0611         estimate D2E/DX2                !
 ! D14   D(15,3,4,16)         -147.482          estimate D2E/DX2                !
 ! D15   D(3,4,5,6)             -5.0392         estimate D2E/DX2                !
 ! D16   D(3,4,5,11)           174.9005         estimate D2E/DX2                !
 ! D17   D(16,4,5,6)          -175.8791         estimate D2E/DX2                !
 ! D18   D(16,4,5,11)            4.0605         estimate D2E/DX2                !
 ! D19   D(4,5,6,7)            177.378          estimate D2E/DX2                !
 ! D20   D(11,5,6,7)            -2.5598         estimate D2E/DX2                !
 ! D21   D(5,6,7,8)           -179.0663         estimate D2E/DX2                !
 ! D22   D(5,6,7,9)            -61.749          estimate D2E/DX2                !
 ! D23   D(5,6,7,10)            63.4393         estimate D2E/DX2                !
 ! D24   D(6,7,8,17)           -59.967          estimate D2E/DX2                !
 ! D25   D(6,7,8,18)           179.5952         estimate D2E/DX2                !
 ! D26   D(6,7,8,19)            59.2106         estimate D2E/DX2                !
 ! D27   D(9,7,8,17)          -179.0166         estimate D2E/DX2                !
 ! D28   D(9,7,8,18)            60.5455         estimate D2E/DX2                !
 ! D29   D(9,7,8,19)           -59.8391         estimate D2E/DX2                !
 ! D30   D(10,7,8,17)           59.1691         estimate D2E/DX2                !
 ! D31   D(10,7,8,18)          -61.2687         estimate D2E/DX2                !
 ! D32   D(10,7,8,19)          178.3466         estimate D2E/DX2                !
 ! D33   D(6,7,9,20)          -172.2145         estimate D2E/DX2                !
 ! D34   D(6,7,9,21)            67.7085         estimate D2E/DX2                !
 ! D35   D(6,7,9,22)           -51.9008         estimate D2E/DX2                !
 ! D36   D(8,7,9,20)           -58.2555         estimate D2E/DX2                !
 ! D37   D(8,7,9,21)          -178.3325         estimate D2E/DX2                !
 ! D38   D(8,7,9,22)            62.0582         estimate D2E/DX2                !
 ! D39   D(10,7,9,20)           62.3675         estimate D2E/DX2                !
 ! D40   D(10,7,9,21)          -57.7095         estimate D2E/DX2                !
 ! D41   D(10,7,9,22)         -177.3188         estimate D2E/DX2                !
 ! D42   D(6,7,10,23)          172.1892         estimate D2E/DX2                !
 ! D43   D(6,7,10,24)           51.8688         estimate D2E/DX2                !
 ! D44   D(6,7,10,25)          -67.7637         estimate D2E/DX2                !
 ! D45   D(8,7,10,23)           58.1365         estimate D2E/DX2                !
 ! D46   D(8,7,10,24)          -62.1839         estimate D2E/DX2                !
 ! D47   D(8,7,10,25)          178.1836         estimate D2E/DX2                !
 ! D48   D(9,7,10,23)          -62.4018         estimate D2E/DX2                !
 ! D49   D(9,7,10,24)          177.2779         estimate D2E/DX2                !
 ! D50   D(9,7,10,25)           57.6454         estimate D2E/DX2                !
 --------------------------------------------------------------------------------
 Trust Radius=3.00D-01 FncErr=1.00D-07 GrdErr=1.00D-06 EigMax=2.50D+02 EigMin=1.00D-04
 Number of steps in this run=    125 maximum allowed number of steps=    150.
 GradGradGradGradGradGradGradGradGradGradGradGradGradGradGradGradGradGrad

                          Input orientation:                          
 ---------------------------------------------------------------------
 Center     Atomic      Atomic             Coordinates (Angstroms)
 Number     Number       Type             X           Y           Z
 ---------------------------------------------------------------------
      1          8           0        4.317900   -0.925500    0.144800
      2          6           0        3.550300    0.164200    0.385400
      3          6           0        2.128700   -0.207200    0.834900
      4          7           0        1.552000   -1.270600   -0.021400
      5          6           0        0.973400   -1.083200   -1.265700
      6          8           0        0.889300    0.232000   -1.587200
      7          6           0        0.389300    0.742300   -2.826100
      8          6           0        0.536900    2.264200   -2.677200
      9          6           0        1.240100    0.266600   -4.021600
     10          6           0       -1.099300    0.392500   -3.025900
     11          8           0        0.594200   -2.011900   -1.968900
     12          8           0        3.952500    1.298700    0.302100
     13          1           0        5.167200   -0.576200   -0.128300
     14          1           0        2.193600   -0.558800    1.863600
     15          1           0        1.509600    0.691700    0.848300
     16          1           0        1.694900   -2.234900    0.231900
     17          1           0       -0.038200    2.637100   -1.829100
     18          1           0        0.194200    2.791300   -3.567600
     19          1           0        1.576600    2.545600   -2.504800
     20          1           0        0.943200    0.762500   -4.945400
     21          1           0        1.143600   -0.806900   -4.184700
     22          1           0        2.297700    0.472600   -3.857200
     23          1           0       -1.513500    0.895400   -3.899500
     24          1           0       -1.692000    0.686200   -2.159700
     25          1           0       -1.247500   -0.678000   -3.168100
 ---------------------------------------------------------------------
                    Distance matrix (angstroms):
                    1          2          3          4          5
     1  O    0.000000
     2  C    1.354453   0.000000
     3  C    2.405159   1.536533   0.000000
     4  N    2.792296   2.493459   1.482111   0.000000
     5  C    3.633189   3.304928   2.552374   1.384983   0.000000
     6  O    4.011848   3.313106   2.756008   2.269076   1.356535
     7  C    5.200164   4.543110   4.162930   3.642798   2.471532
     8  C    5.695071   4.782269   4.580010   4.536355   3.658955
     9  C    5.315340   4.976862   4.959807   4.296727   3.080272
    10  C    6.413776   5.771297   5.068077   4.338469   3.093878
    11  O    4.417458   4.360810   3.670549   2.293395   1.225058
    12  O    2.259497   1.206563   2.424429   3.531056   4.123892
    13  H    0.958073   1.851066   3.208800   3.682837   4.374778
    14  H    2.757062   2.132707   1.089063   2.114600   3.399471
    15  H    3.316142   2.158006   1.091552   2.146811   2.811899
    16  H    2.932958   3.036734   2.159481   1.007202   2.022321
    17  H    5.963557   4.888413   4.458968   4.589840   3.896330
    18  H    6.678429   5.813026   5.667036   5.560412   4.573581
    19  H    5.155933   4.233180   4.363063   4.553160   3.881676
    20  H    6.336251   5.964257   5.979766   5.361894   4.116760
    21  H    5.369806   5.255574   5.150383   4.208904   2.936983
    22  H    4.695945   4.434385   4.744101   4.278805   3.300024
    23  H    7.326477   6.673612   6.074199   5.397083   4.127521
    24  H    6.635299   5.850789   4.935944   4.350279   3.321802
    25  H    6.481531   6.029556   5.257793   4.253245   2.952238
                    6          7          8          9         10
     6  O    0.000000
     7  C    1.430133   0.000000
     8  C    2.332836   1.536274   0.000000
     9  C    2.459789   1.542521   2.508447   0.000000
    10  C    2.459705   1.542145   2.510379   2.545597   0.000000
    11  O    2.295183   2.891780   4.334744   3.134059   3.125113
    12  O    3.753731   4.774056   4.634085   5.207372   6.116982
    13  H    4.591514   5.643128   6.000370   5.593765   6.971620
    14  H    3.772875   5.190534   5.597575   6.018806   5.971212
    15  H    2.554947   3.841725   3.980961   4.895842   4.680310
    16  H    3.169182   4.463146   5.481398   4.955462   5.032300
    17  H    2.589069   2.183353   1.090444   3.472805   2.756174
    18  H    3.309859   2.187759   1.089995   2.770223   2.778637
    19  H    2.582076   2.182844   1.090818   2.758216   3.473878
    20  H    3.400271   2.190581   2.750439   1.089712   2.827222
    21  H    2.809090   2.194261   3.474521   1.090099   2.794992
    22  H    2.682234   2.185840   2.775364   1.089945   3.498154
    23  H    3.400041   2.190040   2.751685   2.827121   1.089792
    24  H    2.682753   2.186103   2.779548   3.498563   1.089888
    25  H    2.809494   2.193930   3.475861   2.794438   1.090025
                   11         12         13         14         15
    11  O    0.000000
    12  O    5.234089   0.000000
    13  H    5.134333   2.275080   0.000000
    14  H    4.399731   2.997052   3.579143   0.000000
    15  H    4.010489   2.575761   3.992412   1.749983   0.000000
    16  H    2.470787   4.193807   3.864958   2.391748   2.996543
    17  H    4.693898   4.717946   6.349347   5.369427   3.653592
    18  H    5.078048   5.597075   6.920952   6.687204   5.063474
    19  H    4.692878   3.883085   5.318439   5.394526   3.832064
    20  H    4.083950   6.072862   6.545131   7.047823   5.821751
    21  H    2.581402   5.696915   5.718126   6.143776   5.264109
    22  H    3.555324   4.551986   4.820654   5.813964   4.776069
    23  H    4.077010   6.906030   7.811486   7.005042   5.632249
    24  H    3.541590   6.188376   7.264218   5.730171   4.392987
    25  H    2.570842   6.556648   7.099234   6.096998   5.060548
                   16         17         18         19         20
    16  H    0.000000
    17  H    5.566663   0.000000
    18  H    6.476958   1.760730   0.000000
    19  H    5.509692   1.752861   1.760949   0.000000
    20  H    6.029419   3.766775   2.564247   3.088231   0.000000
    21  H    4.674342   4.336662   3.772163   3.774759   1.755517
    22  H    4.941120   3.775537   3.144034   2.578042   1.761503
    23  H    6.095988   3.081653   2.573098   3.770552   2.673377
    24  H    5.071850   2.578830   3.157749   3.776269   3.835391
    25  H    4.758325   3.774283   3.778114   4.336716   3.167491
                   21         22         23         24         25
    21  H    0.000000
    22  H    1.753945   0.000000
    23  H    3.168493   3.834813   0.000000
    24  H    3.790857   4.341064   1.761400   0.000000
    25  H    2.601432   3.790407   1.755360   1.753708   0.000000
 Stoichiometry    C7H13NO4
 Framework group  C1[X(C7H13NO4)]
 Deg. of freedom    69
 Full point group                 C1      NOp   1
 Largest Abelian subgroup         C1      NOp   1
 Largest concise Abelian subgroup C1      NOp   1
                         Standard orientation:                         
 ---------------------------------------------------------------------
 Center     Atomic      Atomic             Coordinates (Angstroms)
 Number     Number       Type             X           Y           Z
 ---------------------------------------------------------------------
      1          8           0       -3.109861   -0.144078    1.012005
      2          6           0       -2.580961    0.579717   -0.003343
      3          6           0       -1.970171   -0.306735   -1.099734
      4          7           0       -1.130024   -1.381235   -0.519860
      5          6           0        0.176521   -1.240332   -0.082520
      6          8           0        0.662833   -0.001459   -0.344967
      7          6           0        1.960592    0.466233    0.032345
      8          6           0        1.986504    1.914832   -0.478563
      9          6           0        2.141240    0.467326    1.564252
     10          6           0        3.078795   -0.338070   -0.661145
     11          8           0        0.792596   -2.142377    0.472036
     12          8           0       -2.627025    1.783939   -0.062680
     13          1           0       -3.452034    0.504824    1.628242
     14          1           0       -2.794119   -0.746577   -1.659829
     15          1           0       -1.413181    0.319255   -1.799294
     16          1           0       -1.555239   -2.264337   -0.287955
     17          1           0        1.844063    1.956718   -1.558852
     18          1           0        2.932233    2.406007   -0.249579
     19          1           0        1.188027    2.506858   -0.029314
     20          1           0        3.074015    0.949309    1.855960
     21          1           0        2.158625   -0.544312    1.969964
     22          1           0        1.324457    0.996209    2.055302
     23          1           0        4.058493    0.104135   -0.481437
     24          1           0        2.923654   -0.378303   -1.739184
     25          1           0        3.117712   -1.367160   -0.303915
 ---------------------------------------------------------------------
 Rotational constants (GHZ):           1.4221809           0.5733829           0.4911907
 Standard basis: 6-31G(d,p) (6D, 7F)
 There are   245 symmetry adapted cartesian basis functions of A   symmetry.
 There are   245 symmetry adapted basis functions of A   symmetry.
   245 basis functions,   427 primitive gaussians,   245 cartesian basis functions
    47 alpha electrons       47 beta electrons
       nuclear repulsion energy       764.6774542251 Hartrees.
 NAtoms=   25 NActive=   25 NUniq=   25 SFac= 1.00D+00 NAtFMM=   60 NAOKFM=F Big=F
 Integral buffers will be    131072 words long.
 Raffenetti 2 integral format.
 Two-electron integral symmetry is turned on.
 Nuclear repulsion after empirical dispersion term =      764.6385727581 Hartrees.
 One-electron integrals computed using PRISM.
 NBasis=   245 RedAO= T EigKep=  2.73D-03  NBF=   245
 NBsUse=   245 1.00D-06 EigRej= -1.00D+00 NBFU=   245
 ExpMin= 1.61D-01 ExpMax= 5.48D+03 ExpMxC= 8.25D+02 IAcc=3 IRadAn=         5 AccDes= 0.00D+00
 Harris functional with IExCor=  402 and IRadAn=       5 diagonalized for initial guess.
 HarFok:  IExCor=  402 AccDes= 0.00D+00 IRadAn=         5 IDoV= 1 UseB2=F ITyADJ=14
 ICtDFT=  3500011 ScaDFX=  1.000000  1.000000  1.000000  1.000000
 FoFCou: FMM=F IPFlag=           0 FMFlag=      100000 FMFlg1=           0
         NFxFlg=           0 DoJE=T BraDBF=F KetDBF=T FulRan=T
         wScrn=  0.000000 ICntrl=       500 IOpCl=  0 I1Cent=   200000004 NGrid=           0
         NMat0=    1 NMatS0=      1 NMatT0=    0 NMatD0=    1 NMtDS0=    0 NMtDT0=    0
 Petite list used in FoFCou.
 Requested convergence on RMS density matrix=1.00D-08 within 128 cycles.
 Requested convergence on MAX density matrix=1.00D-06.
 Requested convergence on             energy=1.00D-06.
 No special actions if energy rises.
 Integral accuracy reduced to 1.0D-05 until final iterations.
 Initial convergence to 1.0D-05 achieved.  Increase integral accuracy.
 SCF Done:  E(RB3LYP) =  -630.318424278     A.U. after   14 cycles
            NFock= 14  Conv=0.59D-08     -V/T= 2.0093

 **********************************************************************

            Population analysis using the SCF Density.

 **********************************************************************

 Orbital symmetries:
       Occupied  (A) (A) (A) (A) (A) (A) (A) (A) (A) (A) (A) (A)
                 (A) (A) (A) (A) (A) (A) (A) (A) (A) (A) (A) (A)
                 (A) (A) (A) (A) (A) (A) (A) (A) (A) (A) (A) (A)
                 (A) (A) (A) (A) (A) (A) (A) (A) (A) (A) (A)
       Virtual   (A) (A) (A) (A) (A) (A) (A) (A) (A) (A) (A) (A)
                 (A) (A) (A) (A) (A) (A) (A) (A) (A) (A) (A) (A)
                 (A) (A) (A) (A) (A) (A) (A) (A) (A) (A) (A) (A)
                 (A) (A) (A) (A) (A) (A) (A) (A) (A) (A) (A) (A)
                 (A) (A) (A) (A) (A) (A) (A) (A) (A) (A) (A) (A)
                 (A) (A) (A) (A) (A) (A) (A) (A) (A) (A) (A) (A)
                 (A) (A) (A) (A) (A) (A) (A) (A) (A) (A) (A) (A)
                 (A) (A) (A) (A) (A) (A) (A) (A) (A) (A) (A) (A)
                 (A) (A) (A) (A) (A) (A) (A) (A) (A) (A) (A) (A)
                 (A) (A) (A) (A) (A) (A) (A) (A) (A) (A) (A) (A)
                 (A) (A) (A) (A) (A) (A) (A) (A) (A) (A) (A) (A)
                 (A) (A) (A) (A) (A) (A) (A) (A) (A) (A) (A) (A)
                 (A) (A) (A) (A) (A) (A) (A) (A) (A) (A) (A) (A)
                 (A) (A) (A) (A) (A) (A) (A) (A) (A) (A) (A) (A)
                 (A) (A) (A) (A) (A) (A) (A) (A) (A) (A) (A) (A)
                 (A) (A) (A) (A) (A) (A) (A) (A) (A) (A) (A) (A)
                 (A) (A) (A) (A) (A) (A)
 The electronic state is 1-A.
 Alpha  occ. eigenvalues --  -19.20707 -19.18184 -19.14980 -19.11427 -14.36862
 Alpha  occ. eigenvalues --  -10.33583 -10.33049 -10.25730 -10.25158 -10.17424
 Alpha  occ. eigenvalues --  -10.17095 -10.17039  -1.11806  -1.09578  -1.02784
 Alpha  occ. eigenvalues --   -1.00482  -0.92438  -0.80334  -0.74935  -0.69024
 Alpha  occ. eigenvalues --   -0.68870  -0.64895  -0.62684  -0.55297  -0.51649
 Alpha  occ. eigenvalues --   -0.50663  -0.49494  -0.48869  -0.46532  -0.45721
 Alpha  occ. eigenvalues --   -0.44432  -0.43437  -0.42608  -0.41072  -0.40517
 Alpha  occ. eigenvalues --   -0.40198  -0.38936  -0.38221  -0.36122  -0.35507
 Alpha  occ. eigenvalues --   -0.34735  -0.33052  -0.32610  -0.29895  -0.28724
 Alpha  occ. eigenvalues --   -0.26261  -0.25226
 Alpha virt. eigenvalues --   -0.00275   0.04864   0.06888   0.08744   0.09304
 Alpha virt. eigenvalues --    0.11760   0.12561   0.14133   0.15518   0.15867
 Alpha virt. eigenvalues --    0.16563   0.17101   0.19024   0.19729   0.19799
 Alpha virt. eigenvalues --    0.20638   0.21108   0.22168   0.23062   0.23455
 Alpha virt. eigenvalues --    0.25767   0.27256   0.29033   0.33786   0.37403
 Alpha virt. eigenvalues --    0.37549   0.45811   0.48847   0.50007   0.50562
 Alpha virt. eigenvalues --    0.52031   0.53735   0.55552   0.56552   0.57648
 Alpha virt. eigenvalues --    0.59567   0.60140   0.61284   0.63820   0.66613
 Alpha virt. eigenvalues --    0.67221   0.68083   0.68531   0.70168   0.71148
 Alpha virt. eigenvalues --    0.73390   0.75470   0.78184   0.80422   0.82216
 Alpha virt. eigenvalues --    0.83327   0.83861   0.84020   0.84879   0.86297
 Alpha virt. eigenvalues --    0.86902   0.87614   0.88138   0.88875   0.90919
 Alpha virt. eigenvalues --    0.92130   0.92678   0.92856   0.93575   0.94326
 Alpha virt. eigenvalues --    0.96381   0.97455   0.99291   1.02083   1.04189
 Alpha virt. eigenvalues --    1.07822   1.08435   1.10089   1.13183   1.13889
 Alpha virt. eigenvalues --    1.16226   1.21796   1.24328   1.27891   1.30185
 Alpha virt. eigenvalues --    1.35736   1.37718   1.38112   1.40953   1.41825
 Alpha virt. eigenvalues --    1.44904   1.46159   1.50128   1.50980   1.52571
 Alpha virt. eigenvalues --    1.55523   1.57510   1.59102   1.63322   1.66614
 Alpha virt. eigenvalues --    1.67051   1.70467   1.73083   1.73986   1.77375
 Alpha virt. eigenvalues --    1.79501   1.79724   1.81386   1.82058   1.84416
 Alpha virt. eigenvalues --    1.85397   1.86666   1.87332   1.87624   1.90505
 Alpha virt. eigenvalues --    1.91467   1.94459   1.96850   2.01466   2.02180
 Alpha virt. eigenvalues --    2.04619   2.04785   2.05124   2.05622   2.07778
 Alpha virt. eigenvalues --    2.08980   2.09254   2.11306   2.12809   2.13649
 Alpha virt. eigenvalues --    2.14529   2.15718   2.16310   2.18731   2.19353
 Alpha virt. eigenvalues --    2.21889   2.24964   2.27145   2.29993   2.31894
 Alpha virt. eigenvalues --    2.33823   2.34871   2.37255   2.39705   2.41416
 Alpha virt. eigenvalues --    2.45311   2.48659   2.51511   2.52382   2.54283
 Alpha virt. eigenvalues --    2.55555   2.57828   2.59514   2.60912   2.63077
 Alpha virt. eigenvalues --    2.63449   2.67833   2.72280   2.73572   2.74154
 Alpha virt. eigenvalues --    2.75879   2.76609   2.77938   2.79935   2.82029
 Alpha virt. eigenvalues --    2.86392   2.87334   2.89166   2.90066   2.91965
 Alpha virt. eigenvalues --    2.94024   2.95735   2.96190   3.02856   3.04216
 Alpha virt. eigenvalues --    3.10885   3.17521   3.17984   3.22193   3.24193
 Alpha virt. eigenvalues --    3.24370   3.30202   3.43073   3.43574   3.43709
 Alpha virt. eigenvalues --    3.44574   3.45156   3.46299   3.49836   3.52948
 Alpha virt. eigenvalues --    3.53889   3.88200   4.01278   4.09877   4.18075
 Alpha virt. eigenvalues --    4.26078   4.40084   4.40874   4.50926   4.53684
 Alpha virt. eigenvalues --    4.56474   4.62890   4.73941
          Condensed to atoms (all electrons):
               1          2          3          4          5          6
     1  O    8.109909   0.257663  -0.098752   0.003774   0.001520  -0.000073
     2  C    0.257663   4.411637   0.319898  -0.057439   0.000662   0.003129
     3  C   -0.098752   0.319898   5.011646   0.245636  -0.033414   0.003979
     4  N    0.003774  -0.057439   0.245636   6.934454   0.314861  -0.102744
     5  C    0.001520   0.000662  -0.033414   0.314861   4.126340   0.279634
     6  O   -0.000073   0.003129   0.003979  -0.102744   0.279634   8.343244
     7  C   -0.000001  -0.000023  -0.000091   0.004128  -0.016352   0.182644
     8  C    0.000000  -0.000014  -0.000111  -0.000179   0.003919  -0.053641
     9  C    0.000000  -0.000026   0.000013  -0.000346  -0.003811  -0.043003
    10  C   -0.000000   0.000004   0.000026  -0.000364  -0.004007  -0.043491
    11  O   -0.000005  -0.000036   0.002749  -0.082557   0.555008  -0.074358
    12  O   -0.083087   0.573871  -0.068014   0.001732   0.000135  -0.000358
    13  H    0.273364  -0.010280   0.010425  -0.000697  -0.000089   0.000001
    14  H    0.001674  -0.034924   0.362848  -0.025220   0.002868   0.000270
    15  H    0.002835  -0.036806   0.378646  -0.026430  -0.004394   0.007635
    16  H    0.001602  -0.000270  -0.022693   0.340696  -0.017837   0.003585
    17  H    0.000000  -0.000002  -0.000039  -0.000009   0.000011   0.000384
    18  H   -0.000000   0.000000   0.000001   0.000002  -0.000035   0.003503
    19  H   -0.000001   0.000206  -0.000019  -0.000020   0.000035   0.000392
    20  H    0.000000   0.000000  -0.000000   0.000003   0.000174   0.002879
    21  H    0.000000   0.000001  -0.000011   0.000040   0.001993  -0.003121
    22  H   -0.000001   0.000087   0.000004  -0.000049   0.000436   0.000242
    23  H    0.000000  -0.000000  -0.000001   0.000004   0.000187   0.002884
    24  H    0.000000  -0.000000  -0.000004  -0.000030   0.000416   0.000208
    25  H    0.000000  -0.000000  -0.000010   0.000057   0.001880  -0.003000
               7          8          9         10         11         12
     1  O   -0.000001   0.000000   0.000000  -0.000000  -0.000005  -0.083087
     2  C   -0.000023  -0.000014  -0.000026   0.000004  -0.000036   0.573871
     3  C   -0.000091  -0.000111   0.000013   0.000026   0.002749  -0.068014
     4  N    0.004128  -0.000179  -0.000346  -0.000364  -0.082557   0.001732
     5  C   -0.016352   0.003919  -0.003811  -0.004007   0.555008   0.000135
     6  O    0.182644  -0.053641  -0.043003  -0.043491  -0.074358  -0.000358
     7  C    4.606082   0.406612   0.380323   0.380311   0.003143   0.000010
     8  C    0.406612   4.979798  -0.065487  -0.065661   0.000162  -0.000046
     9  C    0.380323  -0.065487   5.017132  -0.063456  -0.004948  -0.000001
    10  C    0.380311  -0.065661  -0.063456   5.016955  -0.004981  -0.000000
    11  O    0.003143   0.000162  -0.004948  -0.004981   8.101896  -0.000000
    12  O    0.000010  -0.000046  -0.000001  -0.000000  -0.000000   8.010105
    13  H   -0.000000   0.000000   0.000000  -0.000000   0.000001   0.009855
    14  H   -0.000003  -0.000001   0.000000   0.000001  -0.000055   0.001629
    15  H   -0.000261   0.000091   0.000035  -0.000003   0.000065   0.003832
    16  H   -0.000115   0.000004   0.000011   0.000007   0.005544  -0.000035
    17  H   -0.025182   0.371401   0.005755  -0.006431   0.000002  -0.000000
    18  H   -0.028510   0.370906  -0.001988  -0.001852   0.000008   0.000000
    19  H   -0.024610   0.372772  -0.006269   0.005634   0.000003   0.000218
    20  H   -0.024719  -0.003322   0.367650  -0.001682   0.000154  -0.000000
    21  H   -0.023041   0.004811   0.376467  -0.006014   0.009305   0.000000
    22  H   -0.026474  -0.006151   0.370111   0.005409  -0.000068  -0.000002
    23  H   -0.024975  -0.003361  -0.001690   0.366735   0.000172   0.000000
    24  H   -0.026345  -0.006163   0.005400   0.370067  -0.000073   0.000000
    25  H   -0.022823   0.004769  -0.005953   0.376632   0.009534   0.000000
              13         14         15         16         17         18
     1  O    0.273364   0.001674   0.002835   0.001602   0.000000  -0.000000
     2  C   -0.010280  -0.034924  -0.036806  -0.000270  -0.000002   0.000000
     3  C    0.010425   0.362848   0.378646  -0.022693  -0.000039   0.000001
     4  N   -0.000697  -0.025220  -0.026430   0.340696  -0.000009   0.000002
     5  C   -0.000089   0.002868  -0.004394  -0.017837   0.000011  -0.000035
     6  O    0.000001   0.000270   0.007635   0.003585   0.000384   0.003503
     7  C   -0.000000  -0.000003  -0.000261  -0.000115  -0.025182  -0.028510
     8  C    0.000000  -0.000001   0.000091   0.000004   0.371401   0.370906
     9  C    0.000000   0.000000   0.000035   0.000011   0.005755  -0.001988
    10  C   -0.000000   0.000001  -0.000003   0.000007  -0.006431  -0.001852
    11  O    0.000001  -0.000055   0.000065   0.005544   0.000002   0.000008
    12  O    0.009855   0.001629   0.003832  -0.000035  -0.000000   0.000000
    13  H    0.393434  -0.000396  -0.000271   0.000004  -0.000000  -0.000000
    14  H   -0.000396   0.576155  -0.023096  -0.005533   0.000000   0.000000
    15  H   -0.000271  -0.023096   0.529282   0.002915   0.000259  -0.000000
    16  H    0.000004  -0.005533   0.002915   0.409855   0.000000  -0.000000
    17  H   -0.000000   0.000000   0.000259   0.000000   0.603297  -0.029283
    18  H   -0.000000   0.000000  -0.000000  -0.000000  -0.029283   0.608144
    19  H   -0.000000   0.000001   0.000045  -0.000000  -0.030947  -0.028578
    20  H    0.000000  -0.000000  -0.000001  -0.000000  -0.000007   0.001699
    21  H    0.000000   0.000000  -0.000002   0.000000  -0.000199   0.000013
    22  H    0.000001   0.000000  -0.000002  -0.000000  -0.000070   0.000162
    23  H   -0.000000  -0.000000   0.000000  -0.000000   0.000132   0.001740
    24  H    0.000000   0.000000   0.000021  -0.000000   0.004156   0.000149
    25  H   -0.000000   0.000000  -0.000000   0.000000  -0.000042   0.000012
              19         20         21         22         23         24
     1  O   -0.000001   0.000000   0.000000  -0.000001   0.000000   0.000000
     2  C    0.000206   0.000000   0.000001   0.000087  -0.000000  -0.000000
     3  C   -0.000019  -0.000000  -0.000011   0.000004  -0.000001  -0.000004
     4  N   -0.000020   0.000003   0.000040  -0.000049   0.000004  -0.000030
     5  C    0.000035   0.000174   0.001993   0.000436   0.000187   0.000416
     6  O    0.000392   0.002879  -0.003121   0.000242   0.002884   0.000208
     7  C   -0.024610  -0.024719  -0.023041  -0.026474  -0.024975  -0.026345
     8  C    0.372772  -0.003322   0.004811  -0.006151  -0.003361  -0.006163
     9  C   -0.006269   0.367650   0.376467   0.370111  -0.001690   0.005400
    10  C    0.005634  -0.001682  -0.006014   0.005409   0.366735   0.370067
    11  O    0.000003   0.000154   0.009305  -0.000068   0.000172  -0.000073
    12  O    0.000218  -0.000000   0.000000  -0.000002   0.000000   0.000000
    13  H   -0.000000   0.000000   0.000000   0.000001  -0.000000   0.000000
    14  H    0.000001  -0.000000   0.000000   0.000000  -0.000000   0.000000
    15  H    0.000045  -0.000001  -0.000002  -0.000002   0.000000   0.000021
    16  H   -0.000000  -0.000000   0.000000  -0.000000  -0.000000  -0.000000
    17  H   -0.030947  -0.000007  -0.000199  -0.000070   0.000132   0.004156
    18  H   -0.028578   0.001699   0.000013   0.000162   0.001740   0.000149
    19  H    0.590322   0.000124  -0.000043   0.004053  -0.000005  -0.000068
    20  H    0.000124   0.610120  -0.027708  -0.029215   0.001139  -0.000054
    21  H   -0.000043  -0.027708   0.557047  -0.030273   0.000129  -0.000001
    22  H    0.004053  -0.029215  -0.030273   0.607644  -0.000053  -0.000207
    23  H   -0.000005   0.001139   0.000129  -0.000053   0.612562  -0.029488
    24  H   -0.000068  -0.000054  -0.000001  -0.000207  -0.029488   0.608790
    25  H   -0.000194   0.000129   0.003098  -0.000003  -0.027622  -0.030015
              25
     1  O    0.000000
     2  C   -0.000000
     3  C   -0.000010
     4  N    0.000057
     5  C    0.001880
     6  O   -0.003000
     7  C   -0.022823
     8  C    0.004769
     9  C   -0.005953
    10  C    0.376632
    11  O    0.009534
    12  O    0.000000
    13  H   -0.000000
    14  H    0.000000
    15  H   -0.000000
    16  H    0.000000
    17  H   -0.000042
    18  H    0.000012
    19  H   -0.000194
    20  H    0.000129
    21  H    0.003098
    22  H   -0.000003
    23  H   -0.027622
    24  H   -0.030015
    25  H    0.554987
 Mulliken charges:
               1
     1  O   -0.470423
     2  C    0.572663
     3  C   -0.112711
     4  N   -0.549302
     5  C    0.789859
     6  O   -0.510824
     7  C    0.280273
     8  C   -0.311109
     9  C   -0.325920
    10  C   -0.323841
    11  O   -0.520664
    12  O   -0.449844
    13  H    0.324648
    14  H    0.143784
    15  H    0.165604
    16  H    0.282259
    17  H    0.106813
    18  H    0.103907
    19  H    0.116949
    20  H    0.102638
    21  H    0.137508
    22  H    0.104418
    23  H    0.101510
    24  H    0.103243
    25  H    0.138564
 Sum of Mulliken charges =  -0.00000
 Mulliken charges with hydrogens summed into heavy atoms:
               1
     1  O   -0.145774
     2  C    0.572663
     3  C    0.196677
     4  N   -0.267043
     5  C    0.789859
     6  O   -0.510824
     7  C    0.280273
     8  C    0.016561
     9  C    0.018644
    10  C    0.019475
    11  O   -0.520664
    12  O   -0.449844
 Electronic spatial extent (au):  <R**2>=           2428.0447
 Charge=             -0.0000 electrons
 Dipole moment (field-independent basis, Debye):
    X=             -1.3313    Y=              0.4407    Z=             -0.4846  Tot=              1.4837
 Quadrupole moment (field-independent basis, Debye-Ang):
   XX=            -61.7292   YY=            -79.3005   ZZ=            -66.5877
   XY=              9.0202   XZ=             -1.5859   YZ=              4.6169
 Traceless Quadrupole moment (field-independent basis, Debye-Ang):
   XX=              7.4766   YY=            -10.0947   ZZ=              2.6181
   XY=              9.0202   XZ=             -1.5859   YZ=              4.6169
 Octapole moment (field-independent basis, Debye-Ang**2):
  XXX=            -32.3008  YYY=             -6.9804  ZZZ=              6.6062  XYY=             -5.7467
  XXY=             -5.9153  XXZ=             10.3772  XZZ=            -21.0074  YZZ=              3.6548
  YYZ=             -2.6878  XYZ=             -6.7447
 Hexadecapole moment (field-independent basis, Debye-Ang**3):
 XXXX=          -1894.3748 YYYY=           -714.4824 ZZZZ=           -341.8013 XXXY=              2.7834
 XXXZ=            -47.5049 YYYX=             49.2667 YYYZ=             11.2775 ZZZX=            -31.1684
 ZZZY=              0.4730 XXYY=           -471.4523 XXZZ=           -346.8588 YYZZ=           -175.7868
 XXYZ=             31.3725 YYXZ=             -8.6764 ZZXY=            -16.2501
 N-N= 7.646385727581D+02 E-N=-3.002143445874D+03  KE= 6.245142941012D+02
 Calling FoFJK, ICntrl=      2127 FMM=F ISym2X=0 I1Cent= 0 IOpClX= 0 NMat=1 NMatS=1 NMatT=0.
 ***** Axes restored to original set *****
 -------------------------------------------------------------------
 Center     Atomic                   Forces (Hartrees/Bohr)
 Number     Number              X              Y              Z
 -------------------------------------------------------------------
      1        8          -0.014654990   -0.001184649    0.002950341
      2        6          -0.010571282    0.001550009    0.006486385
      3        6           0.002413037   -0.013154749   -0.018459549
      4        7          -0.005362772    0.020660477    0.004551089
      5        6          -0.001923833   -0.008730724   -0.008752356
      6        8           0.011323231   -0.003947187    0.024626191
      7        6          -0.010555075    0.008604268   -0.025077143
      8        6           0.002615918    0.000582669    0.004604434
      9        6           0.000187024   -0.008025420    0.004150282
     10        6           0.001914470   -0.007971089    0.002850151
     11        8           0.003526705    0.008416521    0.007424061
     12        8           0.004089390    0.002488268   -0.001905066
     13        1           0.013713666    0.003375491   -0.004025641
     14        1          -0.000697401   -0.005459793    0.002213690
     15        1           0.001459996   -0.001811788   -0.005754512
     16        1           0.000502495   -0.000108578   -0.001554776
     17        1          -0.002536488   -0.001116005    0.002247978
     18        1          -0.001566208   -0.002111505   -0.003066082
     19        1           0.002955565   -0.001668691    0.000086150
     20        1          -0.002846256    0.003793779    0.000054466
     21        1          -0.002013886   -0.001707122    0.002490486
     22        1           0.002393971    0.002892202    0.002315545
     23        1           0.002291413    0.003619582   -0.002151993
     24        1           0.000273824    0.002944404    0.003233640
     25        1           0.003067484   -0.001930369    0.000462229
 -------------------------------------------------------------------
 Cartesian Forces:  Max     0.025077143 RMS     0.007203476

 GradGradGradGradGradGradGradGradGradGradGradGradGradGradGradGradGradGrad
 Berny optimization.
 FormGI is forming the generalized inverse of G from B-inverse, IUseBI=4.
 Internal  Forces:  Max     0.023023273 RMS     0.005061305
 Search for a local minimum.
 Step number   1 out of a maximum of  125
 All quantities printed in internal units (Hartrees-Bohrs-Radians)
 Mixed Optimization -- RFO/linear search
 Second derivative matrix not updated -- first step.
 ITU=  0
     Eigenvalues ---    0.00230   0.00230   0.00283   0.00286   0.00606
     Eigenvalues ---    0.00792   0.01134   0.01293   0.01890   0.02021
     Eigenvalues ---    0.02267   0.02294   0.04466   0.04856   0.05323
     Eigenvalues ---    0.05324   0.05349   0.05368   0.05374   0.05436
     Eigenvalues ---    0.05444   0.06359   0.06836   0.09729   0.13142
     Eigenvalues ---    0.15845   0.15881   0.16000   0.16000   0.16000
     Eigenvalues ---    0.16000   0.16000   0.16000   0.16000   0.16000
     Eigenvalues ---    0.16000   0.16000   0.16306   0.21949   0.22032
     Eigenvalues ---    0.24985   0.25000   0.25000   0.25000   0.25000
     Eigenvalues ---    0.28297   0.28330   0.28828   0.28852   0.34329
     Eigenvalues ---    0.34634   0.34718   0.34761   0.34801   0.34810
     Eigenvalues ---    0.34813   0.34819   0.34826   0.34837   0.34846
     Eigenvalues ---    0.34921   0.40970   0.46444   0.48202   0.53654
     Eigenvalues ---    0.54085   0.55890   0.93177   1.01593
 RFO step:  Lambda=-1.09794085D-02 EMin= 2.30000000D-03
 Linear search not attempted -- first point.
 Iteration  1 RMS(Cart)=  0.09861691 RMS(Int)=  0.00151028
 Iteration  2 RMS(Cart)=  0.00232600 RMS(Int)=  0.00024743
 Iteration  3 RMS(Cart)=  0.00000198 RMS(Int)=  0.00024743
 Iteration  4 RMS(Cart)=  0.00000000 RMS(Int)=  0.00024743
 Variable       Old X    -DE/DX   Delta X   Delta X   Delta X     New X
                                 (Linear)    (Quad)   (Total)
    R1        2.55955  -0.00211   0.00000  -0.00382  -0.00382   2.55573
    R2        1.81050   0.01454   0.00000   0.02551   0.02551   1.83600
    R3        2.90363  -0.00639   0.00000  -0.02134  -0.02134   2.88229
    R4        2.28007   0.00383   0.00000   0.00373   0.00373   2.28381
    R5        2.80078  -0.02252   0.00000  -0.06358  -0.06358   2.73721
    R6        2.05803   0.00381   0.00000   0.01058   0.01058   2.06861
    R7        2.06273  -0.00239   0.00000  -0.00669  -0.00669   2.05604
    R8        2.61724  -0.01859   0.00000  -0.03771  -0.03771   2.57953
    R9        1.90334  -0.00022   0.00000  -0.00045  -0.00045   1.90288
   R10        2.56348  -0.01031   0.00000  -0.01883  -0.01883   2.54465
   R11        2.31502  -0.01173   0.00000  -0.01245  -0.01245   2.30258
   R12        2.70256   0.00734   0.00000   0.01746   0.01746   2.72002
   R13        2.90314  -0.00376   0.00000  -0.01255  -0.01255   2.89059
   R14        2.91494  -0.00730   0.00000  -0.02484  -0.02484   2.89010
   R15        2.91423  -0.00710   0.00000  -0.02412  -0.02412   2.89012
   R16        2.06064   0.00270   0.00000   0.00754   0.00754   2.06818
   R17        2.05979   0.00198   0.00000   0.00550   0.00550   2.06529
   R18        2.06135   0.00240   0.00000   0.00670   0.00670   2.06805
   R19        2.05926   0.00246   0.00000   0.00683   0.00683   2.06609
   R20        2.05999   0.00149   0.00000   0.00414   0.00414   2.06413
   R21        2.05970   0.00322   0.00000   0.00896   0.00896   2.06866
   R22        2.05941   0.00252   0.00000   0.00702   0.00702   2.06643
   R23        2.05959   0.00321   0.00000   0.00895   0.00895   2.06854
   R24        2.05985   0.00142   0.00000   0.00395   0.00395   2.06380
    A1        1.83350   0.00374   0.00000   0.02189   0.02189   1.85539
    A2        1.96257  -0.00361   0.00000  -0.01321  -0.01362   1.94896
    A3        2.15952  -0.00200   0.00000  -0.00700  -0.00741   2.15211
    A4        2.16022   0.00566   0.00000   0.02228   0.02187   2.18209
    A5        1.94380   0.00982   0.00000   0.03857   0.03864   1.98243
    A6        1.87468   0.00034   0.00000   0.02121   0.02137   1.89605
    A7        1.90635  -0.00466   0.00000  -0.02932  -0.02895   1.87739
    A8        1.91483  -0.00544   0.00000  -0.02720  -0.02779   1.88704
    A9        1.95763  -0.00427   0.00000  -0.03416  -0.03409   1.92354
   A10        1.86301   0.00412   0.00000   0.03289   0.03270   1.89571
   A11        2.19511  -0.00592   0.00000  -0.02688  -0.02719   2.16792
   A12        2.07879   0.00396   0.00000   0.01697   0.01663   2.09541
   A13        1.99848   0.00177   0.00000   0.00370   0.00341   2.00188
   A14        1.94982  -0.01215   0.00000  -0.04655  -0.04655   1.90327
   A15        2.14414   0.00519   0.00000   0.01990   0.01990   2.16404
   A16        2.18922   0.00696   0.00000   0.02665   0.02665   2.21588
   A17        2.18088  -0.02302   0.00000  -0.08822  -0.08822   2.09266
   A18        1.80897  -0.00013   0.00000  -0.00133  -0.00068   1.80829
   A19        1.94821  -0.00181   0.00000  -0.03150  -0.03171   1.91650
   A20        1.94849  -0.00132   0.00000  -0.02708  -0.02735   1.92114
   A21        1.90459   0.00186   0.00000   0.02982   0.02942   1.93401
   A22        1.90710   0.00166   0.00000   0.02973   0.02933   1.93643
   A23        1.94126  -0.00007   0.00000   0.00324   0.00178   1.94304
   A24        1.94280  -0.00182   0.00000  -0.00998  -0.01008   1.93272
   A25        1.94945  -0.00408   0.00000  -0.02593  -0.02612   1.92334
   A26        1.94169  -0.00195   0.00000  -0.01004  -0.01013   1.93156
   A27        1.87984   0.00283   0.00000   0.01401   0.01382   1.89366
   A28        1.86664   0.00251   0.00000   0.01864   0.01863   1.88527
   A29        1.87971   0.00307   0.00000   0.01665   0.01649   1.89620
   A30        1.94594  -0.00443   0.00000  -0.02830  -0.02857   1.91737
   A31        1.95070  -0.00285   0.00000  -0.01360  -0.01370   1.93700
   A32        1.93907  -0.00228   0.00000  -0.01402  -0.01422   1.92486
   A33        1.87254   0.00409   0.00000   0.02519   0.02503   1.89757
   A34        1.88203   0.00283   0.00000   0.01081   0.01044   1.89247
   A35        1.86982   0.00332   0.00000   0.02389   0.02387   1.89369
   A36        1.94557  -0.00439   0.00000  -0.02782  -0.02808   1.91748
   A37        1.93997  -0.00228   0.00000  -0.01423  -0.01443   1.92554
   A38        1.95078  -0.00291   0.00000  -0.01400  -0.01410   1.93668
   A39        1.88184   0.00280   0.00000   0.01069   0.01033   1.89217
   A40        1.87229   0.00416   0.00000   0.02608   0.02592   1.89821
   A41        1.86962   0.00330   0.00000   0.02328   0.02325   1.89287
    D1        3.13711  -0.00026   0.00000  -0.01691  -0.01653   3.12058
    D2       -0.04779   0.00088   0.00000   0.03525   0.03487  -0.01292
    D3       -0.80184   0.00034   0.00000   0.03557   0.03538  -0.76646
    D4        1.29520  -0.00031   0.00000   0.03846   0.03892   1.33412
    D5       -2.97369   0.00233   0.00000   0.07347   0.07356  -2.90013
    D6        2.38307  -0.00058   0.00000  -0.01577  -0.01620   2.36687
    D7       -1.80306  -0.00123   0.00000  -0.01288  -0.01267  -1.81573
    D8        0.21123   0.00141   0.00000   0.02213   0.02198   0.23320
    D9       -1.40858   0.00259   0.00000   0.06618   0.06615  -1.34243
   D10        1.56645   0.00143   0.00000   0.01935   0.01919   1.58564
   D11        2.80142  -0.00046   0.00000   0.03328   0.03367   2.83509
   D12       -0.50674  -0.00162   0.00000  -0.01355  -0.01329  -0.52003
   D13        0.73411   0.00065   0.00000   0.03154   0.03137   0.76548
   D14       -2.57405  -0.00051   0.00000  -0.01529  -0.01559  -2.58964
   D15       -0.08795  -0.00003   0.00000  -0.00795  -0.00782  -0.09577
   D16        3.05259  -0.00003   0.00000  -0.00786  -0.00772   3.04487
   D17       -3.06967   0.00086   0.00000   0.03571   0.03558  -3.03409
   D18        0.07087   0.00086   0.00000   0.03581   0.03568   0.10655
   D19        3.09583   0.00013   0.00000   0.00381   0.00381   3.09964
   D20       -0.04468   0.00013   0.00000   0.00371   0.00371  -0.04096
   D21       -3.12530   0.00010   0.00000   0.00500   0.00498  -3.12032
   D22       -1.07772   0.00135   0.00000   0.02427   0.02397  -1.05375
   D23        1.10723  -0.00114   0.00000  -0.01626  -0.01594   1.09128
   D24       -1.04662  -0.00056   0.00000  -0.00999  -0.00994  -1.05656
   D25        3.13453  -0.00012   0.00000  -0.00319  -0.00319   3.13133
   D26        1.03342   0.00010   0.00000   0.00023   0.00019   1.03361
   D27       -3.12443   0.00073   0.00000   0.01318   0.01347  -3.11096
   D28        1.05672   0.00117   0.00000   0.01998   0.02021   1.07693
   D29       -1.04439   0.00140   0.00000   0.02340   0.02359  -1.02080
   D30        1.03270  -0.00138   0.00000  -0.02807  -0.02825   1.00445
   D31       -1.06934  -0.00094   0.00000  -0.02126  -0.02151  -1.09085
   D32        3.11274  -0.00072   0.00000  -0.01784  -0.01812   3.09461
   D33       -3.00571  -0.00078   0.00000  -0.02344  -0.02335  -3.02906
   D34        1.18174  -0.00100   0.00000  -0.02676  -0.02666   1.15507
   D35       -0.90584  -0.00175   0.00000  -0.03843  -0.03820  -0.94404
   D36       -1.01675  -0.00086   0.00000  -0.02503  -0.02519  -1.04194
   D37       -3.11249  -0.00107   0.00000  -0.02835  -0.02850  -3.14099
   D38        1.08312  -0.00183   0.00000  -0.04002  -0.04003   1.04309
   D39        1.08852   0.00238   0.00000   0.03363   0.03354   1.12206
   D40       -1.00722   0.00217   0.00000   0.03031   0.03024  -0.97698
   D41       -3.09480   0.00141   0.00000   0.01864   0.01870  -3.07609
   D42        3.00527   0.00089   0.00000   0.02386   0.02382   3.02908
   D43        0.90528   0.00186   0.00000   0.03884   0.03865   0.94393
   D44       -1.18270   0.00118   0.00000   0.02838   0.02831  -1.15439
   D45        1.01467   0.00081   0.00000   0.02308   0.02322   1.03790
   D46       -1.08531   0.00178   0.00000   0.03806   0.03806  -1.04725
   D47        3.10989   0.00110   0.00000   0.02760   0.02772   3.13761
   D48       -1.08912  -0.00255   0.00000  -0.03569  -0.03561  -1.12473
   D49        3.09408  -0.00158   0.00000  -0.02070  -0.02078   3.07330
   D50        1.00610  -0.00226   0.00000  -0.03116  -0.03112   0.97499
         Item               Value     Threshold  Converged?
 Maximum Force            0.023023     0.000450     NO 
 RMS     Force            0.005061     0.000300     NO 
 Maximum Displacement     0.325169     0.001800     NO 
 RMS     Displacement     0.099300     0.001200     NO 
 Predicted change in Energy=-5.925328D-03
 GradGradGradGradGradGradGradGradGradGradGradGradGradGradGradGradGradGrad

                          Input orientation:                          
 ---------------------------------------------------------------------
 Center     Atomic      Atomic             Coordinates (Angstroms)
 Number     Number       Type             X           Y           Z
 ---------------------------------------------------------------------
      1          8           0        4.246591   -0.843291   -0.008737
      2          6           0        3.460646    0.207097    0.319980
      3          6           0        2.075742   -0.245326    0.771328
      4          7           0        1.503413   -1.280818   -0.064287
      5          6           0        0.950149   -1.057838   -1.292084
      6          8           0        0.919723    0.267868   -1.526234
      7          6           0        0.426122    0.763137   -2.784349
      8          6           0        0.586287    2.279436   -2.661999
      9          6           0        1.281980    0.216885   -3.928073
     10          6           0       -1.044455    0.380884   -2.958418
     11          8           0        0.557690   -1.941877   -2.033113
     12          8           0        3.825934    1.356950    0.249488
     13          1           0        5.094374   -0.468907   -0.300372
     14          1           0        2.150071   -0.633867    1.792014
     15          1           0        1.430508    0.630674    0.779287
     16          1           0        1.657411   -2.250800    0.157956
     17          1           0       -0.002426    2.664900   -1.823773
     18          1           0        0.247604    2.769811   -3.578117
     19          1           0        1.634026    2.544585   -2.490041
     20          1           0        0.981314    0.680897   -4.871290
     21          1           0        1.169225   -0.865814   -4.018347
     22          1           0        2.338677    0.442649   -3.752679
     23          1           0       -1.447434    0.854259   -3.858021
     24          1           0       -1.629799    0.719597   -2.097694
     25          1           0       -1.158674   -0.701390   -3.049824
 ---------------------------------------------------------------------
                    Distance matrix (angstroms):
                    1          2          3          4          5
     1  O    0.000000
     2  C    1.352435   0.000000
     3  C    2.382992   1.525241   0.000000
     4  N    2.778406   2.488436   1.448467   0.000000
     5  C    3.543944   3.240587   2.486927   1.365030   0.000000
     6  O    3.821717   3.141415   2.622697   2.208260   1.346569
     7  C    4.988047   4.376571   4.047356   3.568900   2.411930
     8  C    5.494456   4.631277   4.514492   4.501626   3.625805
     9  C    5.027333   4.774163   4.788327   4.149818   2.946772
    10  C    6.180161   5.574408   4.902936   4.198676   2.970696
    11  O    4.348905   4.310718   3.612154   2.282031   1.218472
    12  O    2.254926   1.208539   2.429563   3.528509   4.059284
    13  H    0.971571   1.873735   3.211023   3.689165   4.301736
    14  H    2.771635   2.142828   1.094663   2.069436   3.336349
    15  H    3.274734   2.124110   1.088011   2.090631   2.715216
    16  H    2.951732   3.052731   2.138493   1.006962   2.006488
    17  H    5.801371   4.757031   4.418456   4.575154   3.879287
    18  H    6.464277   5.664477   5.599180   5.507419   4.513359
    19  H    4.945712   4.086149   4.314539   4.531562   3.857491
    20  H    6.052239   5.772422   5.821925   5.218064   3.979307
    21  H    5.054470   5.022234   4.914038   3.989800   2.741784
    22  H    4.394414   4.230939   4.583567   4.155988   3.199062
    23  H    7.079589   6.477944   5.920535   5.259133   3.998569
    24  H    6.429488   5.658660   4.784705   4.237148   3.234875
    25  H    6.203647   5.789563   5.026992   4.041767   2.768364
                    6          7          8          9         10
     6  O    0.000000
     7  C    1.439371   0.000000
     8  C    2.333998   1.529635   0.000000
     9  C    2.429540   1.529376   2.518144   0.000000
    10  C    2.433499   1.529384   2.520254   2.525753   0.000000
    11  O    2.295859   2.810475   4.267997   2.962385   2.969558
    12  O    3.575660   4.595160   4.452308   5.022296   5.913041
    13  H    4.412854   5.429609   5.783902   5.307058   6.743335
    14  H    3.652075   5.085934   5.547161   5.847799   5.813890
    15  H    2.389133   3.704840   3.908142   4.727845   4.489797
    16  H    3.118392   4.388285   5.442655   4.788115   4.892609
    17  H    2.585470   2.173261   1.094436   3.474271   2.754991
    18  H    3.304798   2.165335   1.092907   2.776660   2.785753
    19  H    2.573440   2.172373   1.094363   2.758633   3.474944
    20  H    3.371022   2.161093   2.755420   1.093328   2.802289
    21  H    2.749203   2.174496   3.474491   1.092291   2.752831
    22  H    2.645947   2.167543   2.763013   1.094688   3.475665
    23  H    3.374095   2.161316   2.756377   2.803721   1.093509
    24  H    2.651544   2.167994   2.768135   3.475840   1.094623
    25  H    2.753275   2.174142   3.475718   2.751607   1.092116
                   11         12         13         14         15
    11  O    0.000000
    12  O    5.174354   0.000000
    13  H    5.074794   2.290205   0.000000
    14  H    4.344901   3.025104   3.615828   0.000000
    15  H    3.910170   2.558560   3.974752   1.772696   0.000000
    16  H    2.470952   4.210313   3.898451   2.351028   2.956423
    17  H    4.645423   4.545930   6.174048   5.346871   3.601013
    18  H    4.968219   5.426894   6.687607   6.636469   4.996212
    19  H    4.636337   3.704046   5.084269   5.357691   3.793808
    20  H    3.887628   5.896717   6.255606   6.891605   5.668626
    21  H    2.339454   5.496653   5.421040   5.897131   5.032399
    22  H    3.437264   4.366373   4.510346   5.651378   4.625888
    23  H    3.894765   6.703188   7.563259   6.861448   5.462341
    24  H    3.445682   5.973315   7.060978   5.590091   4.201238
    25  H    2.349131   6.322067   6.834775   5.864789   4.810442
                   16         17         18         19         20
    16  H    0.000000
    17  H    5.553955   0.000000
    18  H    6.415009   1.775174   0.000000
    19  H    5.477970   1.770979   1.776739   0.000000
    20  H    5.860484   3.767144   2.564018   3.093494   0.000000
    21  H    4.426965   4.319128   3.776368   3.765976   1.776270
    22  H    4.797067   3.760299   3.133488   2.551259   1.774962
    23  H    5.950591   3.082959   2.573099   3.771467   2.637344
    24  H    4.971616   2.550995   3.149550   3.759929   3.809493
    25  H    4.541020   3.764574   3.782320   4.318435   3.131773
                   21         22         23         24         25
    21  H    0.000000
    22  H    1.774901   0.000000
    23  H    3.135483   3.809876   0.000000
    24  H    3.746594   4.308651   1.774864   0.000000
    25  H    2.526694   3.746237   1.776685   1.774180   0.000000
 Stoichiometry    C7H13NO4
 Framework group  C1[X(C7H13NO4)]
 Deg. of freedom    69
 Full point group                 C1      NOp   1
 Largest Abelian subgroup         C1      NOp   1
 Largest concise Abelian subgroup C1      NOp   1
                         Standard orientation:                         
 ---------------------------------------------------------------------
 Center     Atomic      Atomic             Coordinates (Angstroms)
 Number     Number       Type             X           Y           Z
 ---------------------------------------------------------------------
      1          8           0       -2.964690   -0.116473    1.050946
      2          6           0       -2.497159    0.560610   -0.022391
      3          6           0       -1.915551   -0.380536   -1.072313
      4          7           0       -1.078811   -1.423646   -0.515675
      5          6           0        0.201905   -1.231778   -0.084094
      6          8           0        0.578908    0.028253   -0.372953
      7          6           0        1.878668    0.498282    0.028899
      8          6           0        1.899777    1.951007   -0.449566
      9          6           0        2.008251    0.425604    1.551041
     10          6           0        2.969821   -0.320900   -0.661997
     11          8           0        0.868741   -2.086818    0.471701
     12          8           0       -2.536106    1.764900   -0.115865
     13          1           0       -3.295893    0.552747    1.672556
     14          1           0       -2.741051   -0.857183   -1.610500
     15          1           0       -1.345587    0.223569   -1.775140
     16          1           0       -1.482181   -2.308964   -0.255911
     17          1           0        1.775829    2.003101   -1.535711
     18          1           0        2.850487    2.421306   -0.186097
     19          1           0        1.087618    2.521434    0.011565
     20          1           0        2.947745    0.887503    1.866263
     21          1           0        1.994105   -0.610775    1.895742
     22          1           0        1.181759    0.961734    2.028343
     23          1           0        3.951232    0.110047   -0.445481
     24          1           0        2.820966   -0.314411   -1.746433
     25          1           0        2.957552   -1.357212   -0.317578
 ---------------------------------------------------------------------
 Rotational constants (GHZ):           1.4286063           0.6152489           0.5220236
 Standard basis: 6-31G(d,p) (6D, 7F)
 There are   245 symmetry adapted cartesian basis functions of A   symmetry.
 There are   245 symmetry adapted basis functions of A   symmetry.
   245 basis functions,   427 primitive gaussians,   245 cartesian basis functions
    47 alpha electrons       47 beta electrons
       nuclear repulsion energy       777.2767347948 Hartrees.
 NAtoms=   25 NActive=   25 NUniq=   25 SFac= 1.00D+00 NAtFMM=   60 NAOKFM=F Big=F
 Integral buffers will be    131072 words long.
 Raffenetti 2 integral format.
 Two-electron integral symmetry is turned on.
 Nuclear repulsion after empirical dispersion term =      777.2366641556 Hartrees.
 One-electron integrals computed using PRISM.
 NBasis=   245 RedAO= T EigKep=  2.46D-03  NBF=   245
 NBsUse=   245 1.00D-06 EigRej= -1.00D+00 NBFU=   245
 Initial guess from the checkpoint file:  "Ac2_conf-7.chk"
 B after Tr=     0.000000    0.000000    0.000000
         Rot=    0.999987    0.001876   -0.000219   -0.004816 Ang=   0.59 deg.
 ExpMin= 1.61D-01 ExpMax= 5.48D+03 ExpMxC= 8.25D+02 IAcc=3 IRadAn=         5 AccDes= 0.00D+00
 Harris functional with IExCor=  402 and IRadAn=       5 diagonalized for initial guess.
 HarFok:  IExCor=  402 AccDes= 0.00D+00 IRadAn=         5 IDoV= 1 UseB2=F ITyADJ=14
 ICtDFT=  3500011 ScaDFX=  1.000000  1.000000  1.000000  1.000000
 FoFCou: FMM=F IPFlag=           0 FMFlag=      100000 FMFlg1=           0
         NFxFlg=           0 DoJE=T BraDBF=F KetDBF=T FulRan=T
         wScrn=  0.000000 ICntrl=       500 IOpCl=  0 I1Cent=   200000004 NGrid=           0
         NMat0=    1 NMatS0=      1 NMatT0=    0 NMatD0=    1 NMtDS0=    0 NMtDT0=    0
 Petite list used in FoFCou.
 Requested convergence on RMS density matrix=1.00D-08 within 128 cycles.
 Requested convergence on MAX density matrix=1.00D-06.
 Requested convergence on             energy=1.00D-06.
 No special actions if energy rises.
 Integral accuracy reduced to 1.0D-05 until final iterations.
 Initial convergence to 1.0D-05 achieved.  Increase integral accuracy.
 SCF Done:  E(RB3LYP) =  -630.323274663     A.U. after   12 cycles
            NFock= 12  Conv=0.96D-08     -V/T= 2.0089
 Calling FoFJK, ICntrl=      2127 FMM=F ISym2X=0 I1Cent= 0 IOpClX= 0 NMat=1 NMatS=1 NMatT=0.
 ***** Axes restored to original set *****
 -------------------------------------------------------------------
 Center     Atomic                   Forces (Hartrees/Bohr)
 Number     Number              X              Y              Z
 -------------------------------------------------------------------
      1        8          -0.000059121   -0.000797839    0.000489744
      2        6          -0.001489863    0.001594810   -0.003274344
      3        6           0.000054687   -0.003553748   -0.000462833
      4        7          -0.001594500   -0.002165734    0.006518669
      5        6           0.002264774   -0.002442457    0.000148015
      6        8           0.002913670    0.000377351    0.006492682
      7        6          -0.005308859    0.004670972   -0.013199517
      8        6           0.000962458    0.000235363    0.001584296
      9        6           0.002158956   -0.002093966   -0.002013951
     10        6          -0.003012192   -0.001727515    0.000398488
     11        8           0.000146475   -0.001541966    0.002152339
     12        8           0.000591581    0.000270910    0.001905593
     13        1           0.000265764    0.000297634    0.000010670
     14        1           0.000810633    0.000548428    0.000339276
     15        1           0.000494999    0.000697386    0.000291716
     16        1           0.001056008   -0.000310881   -0.000163986
     17        1          -0.000160417   -0.000518370   -0.000344524
     18        1          -0.000163600   -0.000213465   -0.000247784
     19        1          -0.000269769   -0.000635524   -0.000080178
     20        1           0.000123622    0.000732474   -0.000156353
     21        1          -0.000252183    0.002086707    0.000166369
     22        1          -0.000142703    0.000949990   -0.000163270
     23        1          -0.000056309    0.000758799   -0.000019199
     24        1           0.000060121    0.000898487   -0.000265172
     25        1           0.000605768    0.001882157   -0.000106747
 -------------------------------------------------------------------
 Cartesian Forces:  Max     0.013199517 RMS     0.002368222

 GradGradGradGradGradGradGradGradGradGradGradGradGradGradGradGradGradGrad
 Berny optimization.
 Using GEDIIS/GDIIS optimizer.
 FormGI is forming the generalized inverse of G from B-inverse, IUseBI=4.
 Internal  Forces:  Max     0.016915695 RMS     0.002505723
 Search for a local minimum.
 Step number   2 out of a maximum of  125
 All quantities printed in internal units (Hartrees-Bohrs-Radians)
 Mixed Optimization -- RFO/linear search
 Update second derivatives using D2CorX and points    1    2
 DE= -4.85D-03 DEPred=-5.93D-03 R= 8.19D-01
 TightC=F SS=  1.41D+00  RLast= 2.82D-01 DXNew= 5.0454D-01 8.4484D-01
 Trust test= 8.19D-01 RLast= 2.82D-01 DXMaxT set to 5.05D-01
 ITU=  1  0
 Use linear search instead of GDIIS.
     Eigenvalues ---    0.00230   0.00231   0.00282   0.00286   0.00600
     Eigenvalues ---    0.00791   0.01142   0.01294   0.01884   0.02022
     Eigenvalues ---    0.02267   0.02294   0.04295   0.04714   0.05477
     Eigenvalues ---    0.05489   0.05535   0.05569   0.05575   0.05604
     Eigenvalues ---    0.05999   0.06392   0.06772   0.10063   0.13198
     Eigenvalues ---    0.15231   0.15797   0.16000   0.16000   0.16000
     Eigenvalues ---    0.16000   0.16000   0.16000   0.16000   0.16000
     Eigenvalues ---    0.16012   0.16041   0.16591   0.21277   0.22079
     Eigenvalues ---    0.24557   0.25000   0.25000   0.25000   0.27873
     Eigenvalues ---    0.28314   0.28637   0.28825   0.30423   0.32395
     Eigenvalues ---    0.34633   0.34716   0.34756   0.34798   0.34806
     Eigenvalues ---    0.34815   0.34823   0.34833   0.34843   0.34912
     Eigenvalues ---    0.34990   0.42386   0.46445   0.50143   0.54072
     Eigenvalues ---    0.55173   0.59140   0.92977   1.01556
 RFO step:  Lambda=-2.59281927D-03 EMin= 2.29999936D-03
 Quartic linear search produced a step of -0.12937.
 Iteration  1 RMS(Cart)=  0.09107515 RMS(Int)=  0.00254128
 Iteration  2 RMS(Cart)=  0.00470298 RMS(Int)=  0.00022368
 Iteration  3 RMS(Cart)=  0.00001764 RMS(Int)=  0.00022320
 Iteration  4 RMS(Cart)=  0.00000000 RMS(Int)=  0.00022320
 Variable       Old X    -DE/DX   Delta X   Delta X   Delta X     New X
                                 (Linear)    (Quad)   (Total)
    R1        2.55573   0.00039   0.00049  -0.00068  -0.00018   2.55555
    R2        1.83600   0.00034  -0.00330   0.00917   0.00587   1.84187
    R3        2.88229   0.00003   0.00276  -0.00724  -0.00448   2.87781
    R4        2.28381   0.00033  -0.00048   0.00153   0.00105   2.28486
    R5        2.73721  -0.00082   0.00823  -0.02380  -0.01558   2.72163
    R6        2.06861   0.00018  -0.00137   0.00406   0.00269   2.07130
    R7        2.05604   0.00027   0.00087  -0.00162  -0.00076   2.05529
    R8        2.57953   0.00570   0.00488  -0.00266   0.00222   2.58175
    R9        1.90288   0.00043   0.00006   0.00063   0.00069   1.90357
   R10        2.54465   0.00873   0.00244   0.00760   0.01004   2.55468
   R11        2.30258  -0.00024   0.00161  -0.00441  -0.00280   2.29978
   R12        2.72002   0.01692  -0.00226   0.04138   0.03913   2.75914
   R13        2.89059  -0.00101   0.00162  -0.00731  -0.00569   2.88490
   R14        2.89010   0.00208   0.00321  -0.00227   0.00094   2.89105
   R15        2.89012   0.00186   0.00312  -0.00269   0.00043   2.89054
   R16        2.06818  -0.00036  -0.00098   0.00170   0.00072   2.06890
   R17        2.06529   0.00016  -0.00071   0.00228   0.00157   2.06687
   R18        2.06805  -0.00042  -0.00087   0.00124   0.00038   2.06842
   R19        2.06609   0.00041  -0.00088   0.00335   0.00247   2.06856
   R20        2.06413  -0.00206  -0.00054  -0.00365  -0.00418   2.05995
   R21        2.06866   0.00003  -0.00116   0.00315   0.00199   2.07065
   R22        2.06643   0.00036  -0.00091   0.00330   0.00239   2.06883
   R23        2.06854   0.00004  -0.00116   0.00316   0.00200   2.07054
   R24        2.06380  -0.00192  -0.00051  -0.00338  -0.00389   2.05991
    A1        1.85539  -0.00034  -0.00283   0.00594   0.00310   1.85850
    A2        1.94896  -0.00011   0.00176  -0.00500  -0.00422   1.94473
    A3        2.15211   0.00025   0.00096  -0.00162  -0.00164   2.15047
    A4        2.18209  -0.00013  -0.00283   0.00719   0.00337   2.18546
    A5        1.98243   0.00124  -0.00500   0.01843   0.01341   1.99584
    A6        1.89605  -0.00052  -0.00277   0.00570   0.00288   1.89893
    A7        1.87739  -0.00151   0.00375  -0.02148  -0.01776   1.85963
    A8        1.88704   0.00003   0.00360  -0.00564  -0.00203   1.88501
    A9        1.92354   0.00065   0.00441  -0.00722  -0.00277   1.92077
   A10        1.89571   0.00006  -0.00423   0.01054   0.00634   1.90205
   A11        2.16792   0.00116   0.00352  -0.00785  -0.00524   2.16268
   A12        2.09541  -0.00079  -0.00215  -0.00173  -0.00482   2.09060
   A13        2.00188  -0.00054  -0.00044  -0.00582  -0.00720   1.99468
   A14        1.90327   0.00392   0.00602  -0.00270   0.00332   1.90659
   A15        2.16404  -0.00489  -0.00257  -0.00985  -0.01243   2.15161
   A16        2.21588   0.00098  -0.00345   0.01256   0.00911   2.22499
   A17        2.09266   0.01470   0.01141   0.01975   0.03116   2.12382
   A18        1.80829  -0.00158   0.00009  -0.02266  -0.02264   1.78565
   A19        1.91650   0.00102   0.00410   0.00200   0.00593   1.92243
   A20        1.92114   0.00076   0.00354   0.00190   0.00529   1.92643
   A21        1.93401  -0.00084  -0.00381  -0.00024  -0.00400   1.93001
   A22        1.93643  -0.00054  -0.00379   0.00109  -0.00265   1.93379
   A23        1.94304   0.00104  -0.00023   0.01533   0.01523   1.95827
   A24        1.93272  -0.00048   0.00130  -0.00618  -0.00488   1.92784
   A25        1.92334  -0.00026   0.00338  -0.01095  -0.00757   1.91576
   A26        1.93156  -0.00059   0.00131  -0.00639  -0.00508   1.92648
   A27        1.89366   0.00032  -0.00179   0.00585   0.00406   1.89772
   A28        1.88527   0.00060  -0.00241   0.01028   0.00786   1.89313
   A29        1.89620   0.00046  -0.00213   0.00831   0.00618   1.90238
   A30        1.91737  -0.00037   0.00370  -0.01384  -0.01015   1.90722
   A31        1.93700  -0.00009   0.00177  -0.00325  -0.00147   1.93553
   A32        1.92486  -0.00039   0.00184  -0.00751  -0.00568   1.91917
   A33        1.89757   0.00033  -0.00324   0.01125   0.00803   1.90560
   A34        1.89247  -0.00013  -0.00135  -0.00129  -0.00268   1.88979
   A35        1.89369   0.00067  -0.00309   0.01528   0.01220   1.90589
   A36        1.91748  -0.00041   0.00363  -0.01380  -0.01018   1.90730
   A37        1.92554  -0.00030   0.00187  -0.00710  -0.00525   1.92029
   A38        1.93668  -0.00022   0.00182  -0.00418  -0.00234   1.93434
   A39        1.89217  -0.00013  -0.00134  -0.00115  -0.00252   1.88965
   A40        1.89821   0.00042  -0.00335   0.01206   0.00872   1.90693
   A41        1.89287   0.00067  -0.00301   0.01485   0.01185   1.90472
    D1        3.12058   0.00072   0.00214   0.04414   0.04610  -3.11650
    D2       -0.01292  -0.00056  -0.00451  -0.03048  -0.03482  -0.04773
    D3       -0.76646  -0.00023  -0.00458   0.03970   0.03509  -0.73137
    D4        1.33412   0.00024  -0.00503   0.04847   0.04337   1.37749
    D5       -2.90013  -0.00078  -0.00952   0.05227   0.04274  -2.85739
    D6        2.36687   0.00108   0.00210   0.11580   0.11793   2.48481
    D7       -1.81573   0.00155   0.00164   0.12457   0.12622  -1.68952
    D8        0.23320   0.00053  -0.00284   0.12837   0.12559   0.35879
    D9       -1.34243   0.00143  -0.00856   0.13580   0.12722  -1.21521
   D10        1.58564   0.00038  -0.00248   0.04471   0.04228   1.62792
   D11        2.83509   0.00127  -0.00436   0.12077   0.11632   2.95141
   D12       -0.52003   0.00022   0.00172   0.02968   0.03139  -0.48864
   D13        0.76548   0.00080  -0.00406   0.11552   0.11145   0.87693
   D14       -2.58964  -0.00024   0.00202   0.02443   0.02652  -2.56312
   D15       -0.09577  -0.00008   0.00101  -0.01868  -0.01760  -0.11337
   D16        3.04487   0.00000   0.00100  -0.01566  -0.01462   3.03025
   D17       -3.03409   0.00096  -0.00460   0.06756   0.06291  -2.97118
   D18        0.10655   0.00104  -0.00462   0.07058   0.06589   0.17244
   D19        3.09964  -0.00018  -0.00049  -0.00431  -0.00479   3.09485
   D20       -0.04096  -0.00026  -0.00048  -0.00743  -0.00792  -0.04889
   D21       -3.12032  -0.00005  -0.00064  -0.00426  -0.00489  -3.12521
   D22       -1.05375  -0.00141  -0.00310  -0.01584  -0.01891  -1.07266
   D23        1.09128   0.00108   0.00206   0.00601   0.00803   1.09931
   D24       -1.05656  -0.00004   0.00129  -0.01298  -0.01169  -1.06824
   D25        3.13133   0.00005   0.00041  -0.00918  -0.00876   3.12258
   D26        1.03361   0.00002  -0.00002  -0.00831  -0.00832   1.02529
[...]
 Alpha  occ. eigenvalues --   -0.35307  -0.33084
 Alpha virt. eigenvalues --    0.03289   0.04187   0.06886   0.07334   0.07993
 Alpha virt. eigenvalues --    0.09820   0.10983   0.11775   0.12479   0.13061
 Alpha virt. eigenvalues --    0.14140   0.15104   0.15950   0.17132   0.17646
 Alpha virt. eigenvalues --    0.18305   0.18674   0.19155   0.19232   0.19851
 Alpha virt. eigenvalues --    0.20068   0.21153   0.22612   0.23518   0.24280
 Alpha virt. eigenvalues --    0.25750   0.27887   0.28531   0.29245   0.30707
 Alpha virt. eigenvalues --    0.31055   0.33276   0.33777   0.34827   0.35677
 Alpha virt. eigenvalues --    0.35740   0.36666   0.37160   0.38087   0.38980
 Alpha virt. eigenvalues --    0.39433   0.39865   0.40807   0.40933   0.42758
 Alpha virt. eigenvalues --    0.44592   0.45510   0.45971   0.46505   0.46991
 Alpha virt. eigenvalues --    0.47386   0.48302   0.49399   0.49593   0.50078
 Alpha virt. eigenvalues --    0.50848   0.51186   0.51711   0.52406   0.52933
 Alpha virt. eigenvalues --    0.53849   0.54337   0.55842   0.55930   0.57818
 Alpha virt. eigenvalues --    0.58985   0.59738   0.60461   0.61901   0.62371
 Alpha virt. eigenvalues --    0.63978   0.64653   0.67057   0.68270   0.68475
 Alpha virt. eigenvalues --    0.69680   0.72185   0.72695   0.74089   0.75187
 Alpha virt. eigenvalues --    0.75325   0.76378   0.79251   0.82397   0.82968
 Alpha virt. eigenvalues --    0.84912   0.86788   0.88012   0.88810   0.91448
 Alpha virt. eigenvalues --    0.92900   0.93872   0.94748   0.96719   0.97392
 Alpha virt. eigenvalues --    0.98391   0.98760   0.99639   1.01883   1.02613
 Alpha virt. eigenvalues --    1.03894   1.05056   1.06944   1.09008   1.09333
 Alpha virt. eigenvalues --    1.13051   1.13364   1.13673   1.15430   1.16330
 Alpha virt. eigenvalues --    1.17487   1.18295   1.22602   1.24483   1.27306
 Alpha virt. eigenvalues --    1.28216   1.30831   1.32973   1.34608   1.36624
 Alpha virt. eigenvalues --    1.38530   1.38581   1.39926   1.41694   1.46102
 Alpha virt. eigenvalues --    1.47809   1.49926   1.50899   1.51495   1.53171
 Alpha virt. eigenvalues --    1.54399   1.54535   1.57641   1.57992   1.59393
 Alpha virt. eigenvalues --    1.59863   1.60688   1.62018   1.63034   1.64080
 Alpha virt. eigenvalues --    1.64916   1.65499   1.65804   1.66229   1.67039
 Alpha virt. eigenvalues --    1.68786   1.69612   1.70948   1.71638   1.73909
 Alpha virt. eigenvalues --    1.76245   1.77021   1.77722   1.79409   1.80606
 Alpha virt. eigenvalues --    1.83963   1.84106   1.85687   1.88148   1.88467
 Alpha virt. eigenvalues --    1.91989   1.94319   1.95416   1.96888   1.98029
 Alpha virt. eigenvalues --    1.99852   2.00065   2.01876   2.03546   2.05390
 Alpha virt. eigenvalues --    2.06102   2.07494   2.09097   2.10058   2.12083
 Alpha virt. eigenvalues --    2.13026   2.15024   2.15657   2.17165   2.18364
 Alpha virt. eigenvalues --    2.19401   2.20931   2.23529   2.23828   2.26627
 Alpha virt. eigenvalues --    2.28540   2.29886   2.30742   2.31306   2.31774
 Alpha virt. eigenvalues --    2.33594   2.34573   2.35148   2.36965   2.38429
 Alpha virt. eigenvalues --    2.40183   2.40717   2.41999   2.42527   2.43406
 Alpha virt. eigenvalues --    2.43804   2.44846   2.49294   2.50276   2.51207
 Alpha virt. eigenvalues --    2.52220   2.55225   2.55832   2.56532   2.59326
 Alpha virt. eigenvalues --    2.60402   2.61976   2.62301   2.62715   2.65216
 Alpha virt. eigenvalues --    2.66885   2.67359   2.68170   2.69532   2.73689
 Alpha virt. eigenvalues --    2.75159   2.75873   2.77757   2.80074   2.80743
 Alpha virt. eigenvalues --    2.81309   2.82789   2.83721   2.86206   2.86544
 Alpha virt. eigenvalues --    2.87641   2.92047   2.94045   2.95492   2.96033
 Alpha virt. eigenvalues --    2.97325   2.98474   3.00694   3.01103   3.03024
 Alpha virt. eigenvalues --    3.04312   3.06169   3.08828   3.09641   3.10176
 Alpha virt. eigenvalues --    3.12061   3.13644   3.15518   3.16245   3.16868
 Alpha virt. eigenvalues --    3.18516   3.19644   3.21270   3.21840   3.22367
 Alpha virt. eigenvalues --    3.24049   3.26326   3.26640   3.29329   3.30189
 Alpha virt. eigenvalues --    3.30442   3.31228   3.32635   3.33511   3.34160
 Alpha virt. eigenvalues --    3.34524   3.35578   3.36165   3.36803   3.38040
 Alpha virt. eigenvalues --    3.38698   3.38935   3.41002   3.41943   3.43577
 Alpha virt. eigenvalues --    3.45107   3.48134   3.48374   3.50501   3.51070
 Alpha virt. eigenvalues --    3.54201   3.55296   3.57394   3.59536   3.64333
 Alpha virt. eigenvalues --    3.64925   3.66127   3.68994   3.69754   3.69941
 Alpha virt. eigenvalues --    3.74695   3.75030   3.78921   3.82989   3.84852
 Alpha virt. eigenvalues --    3.86386   3.89106   3.94470   3.96643   3.99157
 Alpha virt. eigenvalues --    4.00360   4.01586   4.03660   4.03922   4.04745
 Alpha virt. eigenvalues --    4.08472   4.10528   4.11737   4.12324   4.14336
 Alpha virt. eigenvalues --    4.18789   4.28967   4.31932   4.35971   4.37132
 Alpha virt. eigenvalues --    4.37894   4.40387   4.41654   4.44485   4.46221
 Alpha virt. eigenvalues --    4.48072   4.49885   4.51967   4.56159   4.60463
 Alpha virt. eigenvalues --    4.65222   4.69020   4.72306   4.73702   4.82603
 Alpha virt. eigenvalues --    4.84487   4.85341   4.87697   4.90978   4.97943
 Alpha virt. eigenvalues --    5.05207   5.08975   5.13134   5.16221   5.17044
 Alpha virt. eigenvalues --    5.19339   5.21820   5.22979   5.24572   5.26393
 Alpha virt. eigenvalues --    5.36121   5.36803   5.38163   5.40519   5.43522
 Alpha virt. eigenvalues --    5.49293   5.51404   5.55528   5.59448   5.70276
 Alpha virt. eigenvalues --    5.72442   5.74311   5.77071   5.85964   5.87458
 Alpha virt. eigenvalues --    5.91004   6.02746   6.13880   6.16750   6.19161
 Alpha virt. eigenvalues --    6.20563   6.25932   6.32102   6.34554   6.39981
 Alpha virt. eigenvalues --    6.41470   6.45064   6.46406   6.54265   6.62815
 Alpha virt. eigenvalues --    6.68048   6.69091   6.74485   6.75003   6.80631
 Alpha virt. eigenvalues --    6.82230   6.88279   6.92599   6.96248   7.05808
 Alpha virt. eigenvalues --    7.07210   7.07770   7.14919   7.28590   7.39585
 Alpha virt. eigenvalues --    7.43545  22.49404  22.52695  22.53631  22.60131
 Alpha virt. eigenvalues --   22.72353  23.29321  23.56449  32.57630  43.95982
 Alpha virt. eigenvalues --   44.02359  44.10783  44.57602
          Condensed to atoms (all electrons):
               1          2          3          4          5          6
     1  O    7.941836   0.351680  -0.107251   0.007872  -0.000673  -0.003229
     2  C    0.351680   4.595908   0.219200  -0.051412   0.001395   0.020822
     3  C   -0.107251   0.219200   5.201487   0.194485  -0.039138  -0.006297
     4  N    0.007872  -0.051412   0.194485   6.688985   0.401034  -0.113116
     5  C   -0.000673   0.001395  -0.039138   0.401034   4.278730   0.331458
     6  O   -0.003229   0.020822  -0.006297  -0.113116   0.331458   8.115765
     7  C    0.002179   0.000283  -0.002232   0.007372  -0.044370   0.151259
     8  C   -0.000374  -0.000654  -0.002506   0.001000   0.002387  -0.058141
     9  C   -0.003099  -0.003110   0.001807  -0.001244  -0.006140  -0.030114
    10  C   -0.000047   0.000211   0.000256  -0.002387  -0.011194  -0.034961
    11  O   -0.000052   0.000452   0.003111  -0.097671   0.643218  -0.082342
    12  O   -0.090193   0.662147  -0.088232   0.007324   0.000407  -0.001661
    13  H    0.289824  -0.023702   0.016642  -0.002444  -0.000551   0.000057
    14  H    0.002027  -0.028747   0.393661  -0.028818   0.006720   0.001242
    15  H    0.004265  -0.068494   0.432111  -0.019415  -0.012787   0.002042
    16  H    0.001077  -0.003893  -0.025671   0.380738  -0.042423   0.004917
    17  H    0.000022  -0.000444   0.000346  -0.000057  -0.000379  -0.000771
    18  H   -0.000014   0.000110  -0.000018   0.000006   0.000182   0.006058
    19  H   -0.000744   0.001169   0.000626  -0.000247  -0.000565  -0.004450
    20  H    0.000132   0.000103  -0.000083   0.000003   0.001391   0.004697
    21  H   -0.000040   0.000079  -0.000084   0.000068  -0.002288  -0.003901
    22  H    0.004947   0.000188  -0.000292  -0.000274  -0.001730  -0.002695
    23  H    0.000001  -0.000012  -0.000004   0.000062   0.001816   0.005200
    24  H    0.000002  -0.000052   0.000133  -0.000016  -0.001843   0.000811
    25  H    0.000001  -0.000013  -0.000163   0.000545  -0.004587  -0.003475
               7          8          9         10         11         12
     1  O    0.002179  -0.000374  -0.003099  -0.000047  -0.000052  -0.090193
     2  C    0.000283  -0.000654  -0.003110   0.000211   0.000452   0.662147
     3  C   -0.002232  -0.002506   0.001807   0.000256   0.003111  -0.088232
     4  N    0.007372   0.001000  -0.001244  -0.002387  -0.097671   0.007324
     5  C   -0.044370   0.002387  -0.006140  -0.011194   0.643218   0.000407
     6  O    0.151259  -0.058141  -0.030114  -0.034961  -0.082342  -0.001661
     7  C    5.091836   0.316899   0.294773   0.295198   0.043474  -0.000756
     8  C    0.316899   5.158486  -0.099424  -0.104992   0.001296  -0.000048
     9  C    0.294773  -0.099424   5.222466  -0.093528  -0.032831   0.000193
    10  C    0.295198  -0.104992  -0.093528   5.232845  -0.032239  -0.000007
    11  O    0.043474   0.001296  -0.032831  -0.032239   7.930399  -0.000004
    12  O   -0.000756  -0.000048   0.000193  -0.000007  -0.000004   7.812874
    13  H    0.000111  -0.000133  -0.000233  -0.000003   0.000082   0.006365
    14  H    0.000006   0.000024  -0.000015   0.000003  -0.000145   0.001816
    15  H   -0.000560   0.000340   0.000240  -0.000018   0.000035   0.011622
    16  H   -0.000414   0.000003   0.000254   0.000066   0.003993  -0.000037
    17  H   -0.028552   0.403839   0.013214  -0.013027   0.000008  -0.000043
    18  H   -0.031670   0.413075  -0.007104  -0.010845   0.000068   0.000023
    19  H   -0.019695   0.398388  -0.014018   0.013700  -0.000017   0.001546
    20  H   -0.025460  -0.009968   0.403381  -0.007493   0.000648  -0.000007
    21  H   -0.024576   0.011760   0.409653  -0.011812   0.009418   0.000007
    22  H   -0.023402  -0.013208   0.387659   0.013761   0.000506  -0.000395
    23  H   -0.025449  -0.012254  -0.007160   0.398701   0.000763   0.000000
    24  H   -0.030497  -0.010641   0.012870   0.397538   0.000057   0.000000
    25  H   -0.021012   0.011727  -0.011062   0.405442   0.009406   0.000000
              13         14         15         16         17         18
     1  O    0.289824   0.002027   0.004265   0.001077   0.000022  -0.000014
     2  C   -0.023702  -0.028747  -0.068494  -0.003893  -0.000444   0.000110
     3  C    0.016642   0.393661   0.432111  -0.025671   0.000346  -0.000018
     4  N   -0.002444  -0.028818  -0.019415   0.380738  -0.000057   0.000006
     5  C   -0.000551   0.006720  -0.012787  -0.042423  -0.000379   0.000182
     6  O    0.000057   0.001242   0.002042   0.004917  -0.000771   0.006058
     7  C    0.000111   0.000006  -0.000560  -0.000414  -0.028552  -0.031670
     8  C   -0.000133   0.000024   0.000340   0.000003   0.403839   0.413075
     9  C   -0.000233  -0.000015   0.000240   0.000254   0.013214  -0.007104
    10  C   -0.000003   0.000003  -0.000018   0.000066  -0.013027  -0.010845
    11  O    0.000082  -0.000145   0.000035   0.003993   0.000008   0.000068
    12  O    0.006365   0.001816   0.011622  -0.000037  -0.000043   0.000023
    13  H    0.374568  -0.000631  -0.000803  -0.000042   0.000001  -0.000003
    14  H   -0.000631   0.502329  -0.013585  -0.009039   0.000000   0.000001
    15  H   -0.000803  -0.013585   0.480728   0.004014   0.000076   0.000011
    16  H   -0.000042  -0.009039   0.004014   0.429307   0.000001  -0.000002
    17  H    0.000001   0.000000   0.000076   0.000001   0.512823  -0.023183
    18  H   -0.000003   0.000001   0.000011  -0.000002  -0.023183   0.528326
    19  H    0.000133   0.000003  -0.000276   0.000001  -0.019678  -0.024011
    20  H    0.000003  -0.000000  -0.000006  -0.000005  -0.000055   0.000935
    21  H    0.000056   0.000001  -0.000027  -0.000029  -0.000332  -0.000072
    22  H    0.000468   0.000012  -0.000054  -0.000019  -0.000237   0.000460
    23  H   -0.000000  -0.000000   0.000005  -0.000002   0.000620   0.001911
    24  H   -0.000000   0.000002   0.000023  -0.000003   0.002815   0.000667
    25  H   -0.000001   0.000001   0.000019   0.000004  -0.000126  -0.000036
              19         20         21         22         23         24
     1  O   -0.000744   0.000132  -0.000040   0.004947   0.000001   0.000002
     2  C    0.001169   0.000103   0.000079   0.000188  -0.000012  -0.000052
     3  C    0.000626  -0.000083  -0.000084  -0.000292  -0.000004   0.000133
     4  N   -0.000247   0.000003   0.000068  -0.000274   0.000062  -0.000016
     5  C   -0.000565   0.001391  -0.002288  -0.001730   0.001816  -0.001843
     6  O   -0.004450   0.004697  -0.003901  -0.002695   0.005200   0.000811
     7  C   -0.019695  -0.025460  -0.024576  -0.023402  -0.025449  -0.030497
     8  C    0.398388  -0.009968   0.011760  -0.013208  -0.012254  -0.010641
     9  C   -0.014018   0.403381   0.409653   0.387659  -0.007160   0.012870
    10  C    0.013700  -0.007493  -0.011812   0.013761   0.398701   0.397538
    11  O   -0.000017   0.000648   0.009418   0.000506   0.000763   0.000057
    12  O    0.001546  -0.000007   0.000007  -0.000395   0.000000   0.000000
    13  H    0.000133   0.000003   0.000056   0.000468  -0.000000  -0.000000
    14  H    0.000003  -0.000000   0.000001   0.000012  -0.000000   0.000002
    15  H   -0.000276  -0.000006  -0.000027  -0.000054   0.000005   0.000023
    16  H    0.000001  -0.000005  -0.000029  -0.000019  -0.000002  -0.000003
    17  H   -0.019678  -0.000055  -0.000332  -0.000237   0.000620   0.002815
    18  H   -0.024011   0.000935  -0.000072   0.000460   0.001911   0.000667
    19  H    0.504668   0.000333  -0.000093   0.002990  -0.000069  -0.000265
    20  H    0.000333   0.521500  -0.019037  -0.022166   0.000220  -0.000102
    21  H   -0.000093  -0.019037   0.462655  -0.022073   0.000376  -0.000044
    22  H    0.002990  -0.022166  -0.022073   0.540534  -0.000036  -0.000481
    23  H   -0.000069   0.000220   0.000376  -0.000036   0.531438  -0.022143
    24  H   -0.000265  -0.000102  -0.000044  -0.000481  -0.022143   0.521524
    25  H   -0.000353   0.000374   0.002355  -0.000159  -0.019391  -0.020199
              25
     1  O    0.000001
     2  C   -0.000013
     3  C   -0.000163
     4  N    0.000545
     5  C   -0.004587
     6  O   -0.003475
     7  C   -0.021012
     8  C    0.011727
     9  C   -0.011062
    10  C    0.405442
    11  O    0.009406
    12  O    0.000000
    13  H   -0.000001
    14  H    0.000001
    15  H    0.000019
    16  H    0.000004
    17  H   -0.000126
    18  H   -0.000036
    19  H   -0.000353
    20  H    0.000374
    21  H    0.002355
    22  H   -0.000159
    23  H   -0.019391
    24  H   -0.020199
    25  H    0.464839
 Mulliken charges:
               1
     1  O   -0.400152
     2  C    0.326786
     3  C   -0.191894
     4  N   -0.372393
     5  C    0.499931
     6  O   -0.299173
     7  C    0.075257
     8  C   -0.406880
     9  C   -0.437430
    10  C   -0.435169
    11  O   -0.401632
    12  O   -0.322940
    13  H    0.340237
    14  H    0.173130
    15  H    0.180493
    16  H    0.257205
    17  H    0.153118
    18  H    0.145127
    19  H    0.160925
    20  H    0.150661
    21  H    0.187981
    22  H    0.135698
    23  H    0.145408
    24  H    0.149845
    25  H    0.185863
 Sum of Mulliken charges =   0.00000
 Mulliken charges with hydrogens summed into heavy atoms:
               1
     1  O   -0.059915
     2  C    0.326786
     3  C    0.161729
     4  N   -0.115188
     5  C    0.499931
     6  O   -0.299173
     7  C    0.075257
     8  C    0.052289
     9  C    0.036909
    10  C    0.045947
    11  O   -0.401632
    12  O   -0.322940
 Electronic spatial extent (au):  <R**2>=           2135.1550
 Charge=             -0.0000 electrons
 Dipole moment (field-independent basis, Debye):
    X=             -0.6999    Y=              0.5837    Z=              0.2235  Tot=              0.9384
 Quadrupole moment (field-independent basis, Debye-Ang):
   XX=            -67.2758   YY=            -78.6520   ZZ=            -69.5615
   XY=             11.6587   XZ=             -2.6778   YZ=              5.9718
 Traceless Quadrupole moment (field-independent basis, Debye-Ang):
   XX=              4.5540   YY=             -6.8222   ZZ=              2.2682
   XY=             11.6587   XZ=             -2.6778   YZ=              5.9718
 Octapole moment (field-independent basis, Debye-Ang**2):
  XXX=            -11.3323  YYY=             -4.1738  ZZZ=              7.4174  XYY=             -8.3981
  XXY=            -16.4756  XXZ=              6.1495  XZZ=            -13.0301  YZZ=              7.3810
  YYZ=              3.8871  XYZ=             -8.2177
 Hexadecapole moment (field-independent basis, Debye-Ang**3):
 XXXX=          -1609.1165 YYYY=           -769.9965 ZZZZ=           -362.4490 XXXY=             57.5715
 XXXZ=            -11.9576 YYYX=             47.8210 YYYZ=             12.4088 ZZZX=            -26.0323
 ZZZY=              9.8580 XXYY=           -408.5549 XXZZ=           -318.7614 YYZZ=           -188.7708
 XXYZ=             31.6821 YYXZ=            -21.1187 ZZXY=            -19.2262
 N-N= 7.896683630763D+02 E-N=-3.054078735670D+03  KE= 6.271334765455D+02
 Unable to Open any file for archive entry.
 1\1\GINC-NOTCH144\SP\RM062X\def2TZVP\C7H13N1O4\U6032257\05-Feb-2022\0\
 \# M062X/def2tzvp int=(grid=ultrafine) nmr=giao guess=read geom=check\
 \Ac2.xyz\\0,1\O,0,3.8132411568,-0.5564058483,-0.7948932497\C,0,3.27322
 58335,0.2984440833,0.1033077099\C,0,2.0725329017,-0.295992435,0.833467
 5978\N,0,1.3501360087,-1.3234555186,0.1171739459\C,0,0.8387746939,-1.1
 079230334,-1.1423885029\O,0,0.8210547368,0.2193338381,-1.3955916764\C,
 0,0.4783557717,0.7306825329,-2.7301593355\C,0,0.6822039402,2.235592737
 2,-2.5651729923\C,0,1.4519356289,0.1557871842,-3.7600271904\C,0,-0.978
 1350152,0.4007340577,-3.0553926183\O,0,0.4553247244,-1.9991271697,-1.8
 768910125\O,0,3.7214705977,1.3989744166,0.3255451123\H,0,4.5666081801,
 -0.0877010271,-1.1914361578\H,0,2.4334199446,-0.7176954285,1.776922613
 5\H,0,1.4192047064,0.542667745,1.07942051\H,0,1.5908973793,-2.28903453
 15,0.2817498794\H,0,0.009533492,2.6322645423,-1.7999119375\H,0,0.47617
 65353,2.7477168264,-3.5091431322\H,0,1.7108400582,2.45222735,-2.264084
 3718\H,0,1.2861458204,0.6353321126,-4.7292786597\H,0,1.3145516099,-0.9
 199589031,-3.8680587518\H,0,2.4825992735,0.351481538,-3.4497448248\H,0
 ,-1.2590672114,0.877625037,-3.9995486315\H,0,-1.6359852829,0.784145205
 7,-2.2698867013\H,0,-1.1203454845,-0.676015312,-3.1433776225\\Version=
 ES64L-G16RevC.01\State=1-A\HF=-630.2661326\RMSD=1.489e-09\Dipole=0.329
 4908,0.1390986,0.0915782\Quadrupole=0.8489244,-5.2505093,4.4015849,-6.
 290043,-1.3705908,-7.3179658\PG=C01 [X(C7H13N1O4)]\\@
 The archive entry for this job was punched.


 THESE ARE THE TIMES THAT TRY MENS SOULS.
 THE SUMMER SOLDIER AND THE SUNSHINE PATRIOT WILL IN THIS CRISIS,
 SHRINK FROM THE SERVICE OF HIS COUNTRY.  BUT HE THAT STANDS NOW,
 DESERVES THE LOVE AND THANKS OF MAN AND WOMAN.
 TYRANNY, LIKE HELL, IS NOT EASILY CONQUERED,
 YET WE HAVE THIS CONSOLATION WITH US,
 THAT THE HARDER THE CONFLICT, THE MORE GLORIOUS THE TRIUMPH.
 WHAT WE OBTAIN TOO CHEAP, WE ESTEEM TOO LIGHTLY, 
 'TIS DEARNESS ONLY THAT GIVES EVERYTHING ITS VALUE.

                                              -- TOM PAINE
 Job cpu time:       0 days  0 hours 37 minutes 29.2 seconds.
 Elapsed time:       0 days  0 hours  1 minutes  4.1 seconds.
 File lengths (MBytes):  RWF=    117 Int=      0 D2E=      0 Chk=     20 Scr=      1
 Normal termination of Gaussian 16 at Sat Feb  5 09:19:38 2022.
