 Entering Gaussian System, Link 0=/uufs/chpc.utah.edu/sys/installdir/gaussian16/C01/AVX2/g16/g16
 Input=Ac2_conf-4.com
 Output=Ac2_conf-4.log
 Initial command:
 /uufs/chpc.utah.edu/sys/installdir/gaussian16/C01/AVX2/g16/l1.exe "/scratch/general/lustre/u6032257/3867921/notchpeak.peaks/Gau-50894.inp" -scrdir="/scratch/general/lustre/u6032257/3867921/notchpeak.peaks/"
 Entering Link 1 = /uufs/chpc.utah.edu/sys/installdir/gaussian16/C01/AVX2/g16/l1.exe PID=     50896.
  
 Copyright (c) 1988-2019, Gaussian, Inc.  All Rights Reserved.
  
 This is part of the Gaussian(R) 16 program.  It is based on
 the Gaussian(R) 09 system (copyright 2009, Gaussian, Inc.),
 the Gaussian(R) 03 system (copyright 2003, Gaussian, Inc.),
 the Gaussian(R) 98 system (copyright 1998, Gaussian, Inc.),
 the Gaussian(R) 94 system (copyright 1995, Gaussian, Inc.),
 the Gaussian 92(TM) system (copyright 1992, Gaussian, Inc.),
 the Gaussian 90(TM) system (copyright 1990, Gaussian, Inc.),
 the Gaussian 88(TM) system (copyright 1988, Gaussian, Inc.),
 the Gaussian 86(TM) system (copyright 1986, Carnegie Mellon
 University), and the Gaussian 82(TM) system (copyright 1983,
 Carnegie Mellon University). Gaussian is a federally registered
 trademark of Gaussian, Inc.
  
 This software contains proprietary and confidential information,
 including trade secrets, belonging to Gaussian, Inc.
  
 This software is provided under written license and may be
 used, copied, transmitted, or stored only in accord with that
 written license.
  
 The following legend is applicable only to US Government
 contracts under FAR:
  
                    RESTRICTED RIGHTS LEGEND
  
 Use, reproduction and disclosure by the US Government is
 subject to restrictions as set forth in subparagraphs (a)
 and (c) of the Commercial Computer Software - Restricted
 Rights clause in FAR 52.227-19.
  
 Gaussian, Inc.
 340 Quinnipiac St., Bldg. 40, Wallingford CT 06492
  
  
 ---------------------------------------------------------------
 Warning -- This program may not be used in any manner that
 competes with the business of Gaussian, Inc. or will provide
 assistance to any competitor of Gaussian, Inc.  The licensee
 of this program is prohibited from giving any competitor of
 Gaussian, Inc. access to this program.  By using this program,
 the user acknowledges that Gaussian, Inc. is engaged in the
 business of creating and licensing software in the field of
 computational chemistry and represents and warrants to the
 licensee that it is not a competitor of Gaussian, Inc. and that
 it will not use this program in any manner prohibited above.
 ---------------------------------------------------------------
  

 Cite this work as:
 Gaussian 16, Revision C.01,
 M. J. Frisch, G. W. Trucks, H. B. Schlegel, G. E. Scuseria, 
 M. A. Robb, J. R. Cheeseman, G. Scalmani, V. Barone, 
 G. A. Petersson, H. Nakatsuji, X. Li, M. Caricato, A. V. Marenich, 
 J. Bloino, B. G. Janesko, R. Gomperts, B. Mennucci, H. P. Hratchian, 
 J. V. Ortiz, A. F. Izmaylov, J. L. Sonnenberg, D. Williams-Young, 
 F. Ding, F. Lipparini, F. Egidi, J. Goings, B. Peng, A. Petrone, 
 T. Henderson, D. Ranasinghe, V. G. Zakrzewski, J. Gao, N. Rega, 
 G. Zheng, W. Liang, M. Hada, M. Ehara, K. Toyota, R. Fukuda, 
 J. Hasegawa, M. Ishida, T. Nakajima, Y. Honda, O. Kitao, H. Nakai, 
 T. Vreven, K. Throssell, J. A. Montgomery, Jr., J. E. Peralta, 
 F. Ogliaro, M. J. Bearpark, J. J. Heyd, E. N. Brothers, K. N. Kudin, 
 V. N. Staroverov, T. A. Keith, R. Kobayashi, J. Normand, 
 K. Raghavachari, A. P. Rendell, J. C. Burant, S. S. Iyengar, 
 J. Tomasi, M. Cossi, J. M. Millam, M. Klene, C. Adamo, R. Cammi, 
 J. W. Ochterski, R. L. Martin, K. Morokuma, O. Farkas, 
 J. B. Foresman, and D. J. Fox, Gaussian, Inc., Wallingford CT, 2019.
 
 ******************************************
 Gaussian 16:  ES64L-G16RevC.01  3-Jul-2019
                 5-Feb-2022 
 ******************************************
 %NProcShared=32
 Will use up to   32 processors via shared memory.
 %mem=16GB
 %chk=Ac2_conf-4.chk
 ----------------------------------------------------------------------
 # B3LYP/6-31G(d,p) empiricaldispersion=GD3BJ int=(grid=ultrafine) opt 
 freq=noraman
 ----------------------------------------------------------------------
 1/18=20,19=15,26=4,38=1/1,3;
 2/9=110,12=2,17=6,18=5,40=1/2;
 3/5=1,6=6,7=101,11=2,25=1,30=1,71=1,74=-5,75=-5,124=41/1,2,3;
 4//1;
 5/5=2,38=5/2;
 6/7=2,8=2,9=2,10=2,28=1/1;
 7//1,2,3,16;
 1/18=20,19=15,26=4/3(2);
 2/9=110/2;
 99//99;
 2/9=110/2;
 3/5=1,6=6,7=101,11=2,25=1,30=1,71=1,74=-5,75=-5,124=41/1,2,3;
 4/5=5,16=3,69=1/1;
 5/5=2,38=5/2;
 7//1,2,3,16;
 1/18=20,19=15,26=4/3(-5);
 2/9=110/2;
 6/7=2,8=2,9=2,10=2,19=2,28=1/1;
 99/9=1/99;
 -------
 Ac2.xyz
 -------
 Symbolic Z-matrix:
 Charge =  0 Multiplicity = 1
 O                     4.1456    0.4996    1.1151 
 C                     3.6614   -0.3485    0.1814 
 C                     2.2678   -0.8527    0.5909 
 N                     1.6579   -1.6884   -0.4693 
 C                     0.9939   -1.2191   -1.5908 
 O                     0.8894    0.1348   -1.5851 
 C                     0.3252    0.9142   -2.6434 
 C                     0.4832    2.3617   -2.1536 
 C                     1.1107    0.738    -3.9593 
 C                    -1.1728    0.6055   -2.8414 
 O                     0.5587   -1.9609   -2.4635 
 O                     4.2661   -0.6602   -0.8173 
 H                     5.0052    0.7617    0.7813 
 H                     2.3838   -1.4429    1.4991 
 H                     1.6373    0.0005    0.8471 
 H                     1.822    -2.682    -0.4703 
 H                    -0.0422    2.5209   -1.2115 
 H                     0.0903    3.076    -2.8772 
 H                     1.5316    2.6078   -1.981 
 H                     0.772     1.4357   -4.7247 
 H                     0.9989   -0.2677   -4.3649 
 H                     2.1773    0.9026   -3.8046 
 H                    -1.6318    1.2941   -3.5504 
 H                    -1.718     0.6819   -1.9008 
 H                    -1.3307   -0.4034   -3.2226 
 

 GradGradGradGradGradGradGradGradGradGradGradGradGradGradGradGradGradGrad
 Berny optimization.
 Initialization pass.
                           ----------------------------
                           !    Initial Parameters    !
                           ! (Angstroms and Degrees)  !
 --------------------------                            --------------------------
 ! Name  Definition              Value          Derivative Info.                !
 --------------------------------------------------------------------------------
 ! R1    R(1,2)                  1.3511         estimate D2E/DX2                !
 ! R2    R(1,13)                 0.9587         estimate D2E/DX2                !
 ! R3    R(2,3)                  1.5375         estimate D2E/DX2                !
 ! R4    R(2,12)                 1.2084         estimate D2E/DX2                !
 ! R5    R(3,4)                  1.4813         estimate D2E/DX2                !
 ! R6    R(3,14)                 1.0893         estimate D2E/DX2                !
 ! R7    R(3,15)                 1.0914         estimate D2E/DX2                !
 ! R8    R(4,5)                  1.3852         estimate D2E/DX2                !
 ! R9    R(4,16)                 1.0071         estimate D2E/DX2                !
 ! R10   R(5,6)                  1.3579         estimate D2E/DX2                !
 ! R11   R(5,11)                 1.2253         estimate D2E/DX2                !
 ! R12   R(6,7)                  1.4303         estimate D2E/DX2                !
 ! R13   R(7,8)                  1.5363         estimate D2E/DX2                !
 ! R14   R(7,9)                  1.5426         estimate D2E/DX2                !
 ! R15   R(7,10)                 1.5422         estimate D2E/DX2                !
 ! R16   R(8,17)                 1.0904         estimate D2E/DX2                !
 ! R17   R(8,18)                 1.09           estimate D2E/DX2                !
 ! R18   R(8,19)                 1.0906         estimate D2E/DX2                !
 ! R19   R(9,20)                 1.0897         estimate D2E/DX2                !
 ! R20   R(9,21)                 1.0902         estimate D2E/DX2                !
 ! R21   R(9,22)                 1.0903         estimate D2E/DX2                !
 ! R22   R(10,23)                1.0897         estimate D2E/DX2                !
 ! R23   R(10,24)                1.0899         estimate D2E/DX2                !
 ! R24   R(10,25)                1.09           estimate D2E/DX2                !
 ! A1    A(2,1,13)             104.6155         estimate D2E/DX2                !
 ! A2    A(1,2,3)              110.28           estimate D2E/DX2                !
 ! A3    A(1,2,12)             123.6223         estimate D2E/DX2                !
 ! A4    A(3,2,12)             126.093          estimate D2E/DX2                !
 ! A5    A(2,3,4)              111.5651         estimate D2E/DX2                !
 ! A6    A(2,3,14)             107.6502         estimate D2E/DX2                !
 ! A7    A(2,3,15)             109.2558         estimate D2E/DX2                !
 ! A8    A(4,3,14)             109.5655         estimate D2E/DX2                !
 ! A9    A(4,3,15)             111.7886         estimate D2E/DX2                !
 ! A10   A(14,3,15)            106.8199         estimate D2E/DX2                !
 ! A11   A(3,4,5)              125.8497         estimate D2E/DX2                !
 ! A12   A(3,4,16)             119.3556         estimate D2E/DX2                !
 ! A13   A(5,4,16)             114.3029         estimate D2E/DX2                !
 ! A14   A(4,5,6)              111.7937         estimate D2E/DX2                !
 ! A15   A(4,5,11)             122.8058         estimate D2E/DX2                !
 ! A16   A(6,5,11)             125.3996         estimate D2E/DX2                !
 ! A17   A(5,6,7)              124.7883         estimate D2E/DX2                !
 ! A18   A(6,7,8)              103.7072         estimate D2E/DX2                !
 ! A19   A(6,7,9)              111.5965         estimate D2E/DX2                !
 ! A20   A(6,7,10)             111.658          estimate D2E/DX2                !
 ! A21   A(8,7,9)              109.1001         estimate D2E/DX2                !
 ! A22   A(8,7,10)             109.2339         estimate D2E/DX2                !
 ! A23   A(9,7,10)             111.2363         estimate D2E/DX2                !
 ! A24   A(7,8,17)             111.3139         estimate D2E/DX2                !
 ! A25   A(7,8,18)             111.6365         estimate D2E/DX2                !
 ! A26   A(7,8,19)             111.2186         estimate D2E/DX2                !
 ! A27   A(17,8,18)            107.7098         estimate D2E/DX2                !
 ! A28   A(17,8,19)            107.068          estimate D2E/DX2                !
 ! A29   A(18,8,19)            107.6784         estimate D2E/DX2                !
 ! A30   A(7,9,20)             111.5788         estimate D2E/DX2                !
 ! A31   A(7,9,21)             111.7482         estimate D2E/DX2                !
 ! A32   A(7,9,22)             111.0921         estimate D2E/DX2                !
 ! A33   A(20,9,21)            107.3058         estimate D2E/DX2                !
 ! A34   A(20,9,22)            107.884          estimate D2E/DX2                !
 ! A35   A(21,9,22)            107.0016         estimate D2E/DX2                !
 ! A36   A(7,10,23)            111.4794         estimate D2E/DX2                !
 ! A37   A(7,10,24)            111.1654         estimate D2E/DX2                !
 ! A38   A(7,10,25)            111.7695         estimate D2E/DX2                !
 ! A39   A(23,10,24)           107.8489         estimate D2E/DX2                !
 ! A40   A(23,10,25)           107.2369         estimate D2E/DX2                !
 ! A41   A(24,10,25)           107.1121         estimate D2E/DX2                !
 ! D1    D(13,1,2,3)          -179.9102         estimate D2E/DX2                !
 ! D2    D(13,1,2,12)            0.8354         estimate D2E/DX2                !
 ! D3    D(1,2,3,4)            174.8697         estimate D2E/DX2                !
 ! D4    D(1,2,3,14)           -64.8896         estimate D2E/DX2                !
 ! D5    D(1,2,3,15)            50.756          estimate D2E/DX2                !
 ! D6    D(12,2,3,4)            -5.8987         estimate D2E/DX2                !
 ! D7    D(12,2,3,14)          114.342          estimate D2E/DX2                !
 ! D8    D(12,2,3,15)         -130.0124         estimate D2E/DX2                !
 ! D9    D(2,3,4,5)            -81.7994         estimate D2E/DX2                !
 ! D10   D(2,3,4,16)            89.6746         estimate D2E/DX2                !
 ! D11   D(14,3,4,5)           159.0917         estimate D2E/DX2                !
 ! D12   D(14,3,4,16)          -29.4342         estimate D2E/DX2                !
 ! D13   D(15,3,4,5)            40.8759         estimate D2E/DX2                !
 ! D14   D(15,3,4,16)         -147.6501         estimate D2E/DX2                !
 ! D15   D(3,4,5,6)             -3.4907         estimate D2E/DX2                !
 ! D16   D(3,4,5,11)           176.8267         estimate D2E/DX2                !
 ! D17   D(16,4,5,6)          -175.3396         estimate D2E/DX2                !
 ! D18   D(16,4,5,11)            4.9779         estimate D2E/DX2                !
 ! D19   D(4,5,6,7)            176.2104         estimate D2E/DX2                !
 ! D20   D(11,5,6,7)            -4.1169         estimate D2E/DX2                !
 ! D21   D(5,6,7,8)           -178.6142         estimate D2E/DX2                !
 ! D22   D(5,6,7,9)            -61.3049         estimate D2E/DX2                !
 ! D23   D(5,6,7,10)            63.8892         estimate D2E/DX2                !
 ! D24   D(6,7,8,17)           -59.7621         estimate D2E/DX2                !
 ! D25   D(6,7,8,18)           179.8373         estimate D2E/DX2                !
 ! D26   D(6,7,8,19)            59.5422         estimate D2E/DX2                !
 ! D27   D(9,7,8,17)          -178.8001         estimate D2E/DX2                !
 ! D28   D(9,7,8,18)            60.7993         estimate D2E/DX2                !
 ! D29   D(9,7,8,19)           -59.4959         estimate D2E/DX2                !
 ! D30   D(10,7,8,17)           59.4106         estimate D2E/DX2                !
 ! D31   D(10,7,8,18)          -60.9901         estimate D2E/DX2                !
 ! D32   D(10,7,8,19)          178.7148         estimate D2E/DX2                !
 ! D33   D(6,7,9,20)          -171.8429         estimate D2E/DX2                !
 ! D34   D(6,7,9,21)            68.0127         estimate D2E/DX2                !
 ! D35   D(6,7,9,22)           -51.412          estimate D2E/DX2                !
 ! D36   D(8,7,9,20)           -57.8403         estimate D2E/DX2                !
 ! D37   D(8,7,9,21)          -177.9847         estimate D2E/DX2                !
 ! D38   D(8,7,9,22)            62.5905         estimate D2E/DX2                !
 ! D39   D(10,7,9,20)           62.7292         estimate D2E/DX2                !
 ! D40   D(10,7,9,21)          -57.4153         estimate D2E/DX2                !
 ! D41   D(10,7,9,22)         -176.84           estimate D2E/DX2                !
 ! D42   D(6,7,10,23)          172.1415         estimate D2E/DX2                !
 ! D43   D(6,7,10,24)           51.7727         estimate D2E/DX2                !
 ! D44   D(6,7,10,25)          -67.8561         estimate D2E/DX2                !
 ! D45   D(8,7,10,23)           58.0258         estimate D2E/DX2                !
 ! D46   D(8,7,10,24)          -62.343          estimate D2E/DX2                !
 ! D47   D(8,7,10,25)          178.0282         estimate D2E/DX2                !
 ! D48   D(9,7,10,23)          -62.4648         estimate D2E/DX2                !
 ! D49   D(9,7,10,24)          177.1664         estimate D2E/DX2                !
 ! D50   D(9,7,10,25)           57.5376         estimate D2E/DX2                !
 --------------------------------------------------------------------------------
 Trust Radius=3.00D-01 FncErr=1.00D-07 GrdErr=1.00D-06 EigMax=2.50D+02 EigMin=1.00D-04
 Number of steps in this run=    125 maximum allowed number of steps=    150.
 GradGradGradGradGradGradGradGradGradGradGradGradGradGradGradGradGradGrad

                          Input orientation:                          
 ---------------------------------------------------------------------
 Center     Atomic      Atomic             Coordinates (Angstroms)
 Number     Number       Type             X           Y           Z
 ---------------------------------------------------------------------
      1          8           0        4.145600    0.499600    1.115100
      2          6           0        3.661400   -0.348500    0.181400
      3          6           0        2.267800   -0.852700    0.590900
      4          7           0        1.657900   -1.688400   -0.469300
      5          6           0        0.993900   -1.219100   -1.590800
      6          8           0        0.889400    0.134800   -1.585100
      7          6           0        0.325200    0.914200   -2.643400
      8          6           0        0.483200    2.361700   -2.153600
      9          6           0        1.110700    0.738000   -3.959300
     10          6           0       -1.172800    0.605500   -2.841400
     11          8           0        0.558700   -1.960900   -2.463500
     12          8           0        4.266100   -0.660200   -0.817300
     13          1           0        5.005200    0.761700    0.781300
     14          1           0        2.383800   -1.442900    1.499100
     15          1           0        1.637300    0.000500    0.847100
     16          1           0        1.822000   -2.682000   -0.470300
     17          1           0       -0.042200    2.520900   -1.211500
     18          1           0        0.090300    3.076000   -2.877200
     19          1           0        1.531600    2.607800   -1.981000
     20          1           0        0.772000    1.435700   -4.724700
     21          1           0        0.998900   -0.267700   -4.364900
     22          1           0        2.177300    0.902600   -3.804600
     23          1           0       -1.631800    1.294100   -3.550400
     24          1           0       -1.718000    0.681900   -1.900800
     25          1           0       -1.330700   -0.403400   -3.222600
 ---------------------------------------------------------------------
                    Distance matrix (angstroms):
                    1          2          3          4          5
     1  O    0.000000
     2  C    1.351118   0.000000
     3  C    2.372685   1.537540   0.000000
     4  N    3.672372   2.496549   1.481350   0.000000
     5  C    4.495446   3.318764   2.552819   1.385244   0.000000
     6  O    4.245821   3.322361   2.758644   2.271489   1.357939
     7  C    5.375283   4.550180   4.166093   3.643669   2.471051
     8  C    5.250237   4.785224   4.587967   4.540936   3.660558
     9  C    5.917515   4.983167   4.957169   4.285667   3.074683
    10  C    6.629516   5.780737   5.073929   4.347608   3.096410
    11  O    5.632610   4.384299   3.671306   2.293323   1.225264
    12  O    2.256951   1.208396   2.452200   2.825068   3.408514
    13  H    0.958661   1.843427   3.183693   4.332598   5.063690
    14  H    2.650415   2.136892   1.089321   2.112297   3.395496
    15  H    2.571477   2.159152   1.091384   2.141429   2.800847
    16  H    4.246786   3.041928   2.161301   1.007060   2.020234
    17  H    5.199653   4.887768   4.468324   4.599936   3.899355
    18  H    6.246739   5.816785   5.674849   5.563709   4.573751
    19  H    4.567640   4.236948   4.373982   4.556152   3.884140
    20  H    6.808871   5.966726   5.977441   5.352873   4.113214
    21  H    6.365601   5.269182   5.149008   4.198615   2.932715
    22  H    5.314138   4.433509   4.733887   4.255265   3.286785
    23  H    7.468365   6.681499   6.079967   5.404684   4.129226
    24  H    6.596263   5.859627   4.944711   4.366259   3.326305
    25  H    7.044211   6.042457   5.262495   4.261879   2.954979
                    6          7          8          9         10
     6  O    0.000000
     7  C    1.430309   0.000000
     8  C    2.333940   1.536270   0.000000
     9  C    2.459604   1.542611   2.508129   0.000000
    10  C    2.460186   1.542240   2.509909   2.545904   0.000000
    11  O    2.296281   2.890171   4.334352   3.134674   3.118864
    12  O    3.552977   4.619964   5.022739   4.667299   5.939748
    13  H    4.788806   5.801226   5.623355   6.135225   7.163521
    14  H    3.772885   5.191730   5.606200   6.014253   5.973716
    15  H    2.548134   3.839277   3.988911   4.891083   4.676293
    16  H    3.169682   4.460429   5.483137   4.937152   5.039702
    17  H    2.588615   2.183301   1.090386   3.472509   2.757460
    18  H    3.310399   2.187057   1.090042   2.770993   2.774901
    19  H    2.585515   2.182305   1.090641   2.754447   3.473222
    20  H    3.400472   2.191667   2.747988   1.089651   2.831660
    21  H    2.810922   2.194156   3.474124   1.090157   2.792814
    22  H    2.678504   2.186045   2.779343   1.090257   3.498456
    23  H    3.400416   2.190165   2.750281   2.828030   1.089739
    24  H    2.682819   2.186340   2.780453   3.498873   1.089866
    25  H    2.810678   2.193980   3.475453   2.793914   1.090011
                   11         12         13         14         15
    11  O    0.000000
    12  O    4.259884   0.000000
    13  H    6.141062   2.263535   0.000000
    14  H    4.393349   3.085674   3.499605   0.000000
    15  H    3.996316   3.180777   3.453477   1.750934   0.000000
    16  H    2.467541   3.190879   4.853693   2.393642   2.994238
    17  H    4.692027   5.369939   5.704584   5.380013   3.662099
    18  H    5.075520   5.969898   6.549569   6.695715   5.071718
    19  H    4.695994   4.417184   4.806692   5.407912   3.848030
    20  H    4.086002   5.645291   6.977843   7.044141   5.818376
    21  H    2.583800   4.838814   6.602536   6.138855   5.257797
    22  H    3.552189   3.966030   5.389559   5.802865   4.769035
    23  H    4.071200   6.787809   7.943352   7.008114   5.630135
    24  H    3.533325   6.227733   7.238884   5.735753   4.390136
    25  H    2.563566   6.097178   7.585005   6.096927   5.053179
                   16         17         18         19         20
    16  H    0.000000
    17  H    5.576270   0.000000
    18  H    6.476613   1.760752   0.000000
    19  H    5.508950   1.754004   1.760605   0.000000
    20  H    6.013142   3.766053   2.562919   3.078750   0.000000
    21  H    4.655561   4.336371   3.770827   3.772963   1.755708
    22  H    4.908478   3.777465   3.152667   2.578789   1.762285
    23  H    6.101239   3.082583   2.567877   3.767748   2.679046
    24  H    5.088591   2.581736   3.155158   3.778283   3.839626
    25  H    4.765154   3.775750   3.774224   4.336088   3.171741
                   21         22         23         24         25
    21  H    0.000000
    22  H    1.752759   0.000000
    23  H    3.165946   3.837595   0.000000
    24  H    3.788809   4.341258   1.761647   0.000000
    25  H    2.598134   3.788195   1.754885   1.753577   0.000000
 Stoichiometry    C7H13NO4
 Framework group  C1[X(C7H13NO4)]
 Deg. of freedom    69
 Full point group                 C1      NOp   1
 Largest Abelian subgroup         C1      NOp   1
 Largest concise Abelian subgroup C1      NOp   1
                         Standard orientation:                         
 ---------------------------------------------------------------------
 Center     Atomic      Atomic             Coordinates (Angstroms)
 Number     Number       Type             X           Y           Z
 ---------------------------------------------------------------------
      1          8           0        3.383654   -1.316368   -0.352659
      2          6           0        2.611625   -0.341266    0.175230
      3          6           0        1.990356    0.510969   -0.943586
      4          7           0        1.041954    1.512106   -0.402610
      5          6           0       -0.277947    1.274673   -0.055643
      6          8           0       -0.652665    0.000813   -0.340012
      7          6           0       -1.928656   -0.563904   -0.025803
      8          6           0       -1.817330   -2.013561   -0.522012
      9          6           0       -2.188232   -0.569400    1.494802
     10          6           0       -3.067977    0.146684   -0.784431
     11          8           0       -0.998435    2.132396    0.440826
     12          8           0        2.460634   -0.176594    1.362793
     13          1           0        3.724464   -1.792612    0.406335
     14          1           0        2.802709    1.020180   -1.460698
     15          1           0        1.513694   -0.145531   -1.673600
     16          1           0        1.381968    2.423075   -0.140507
     17          1           0       -1.612280   -2.051480   -1.592273
     18          1           0       -2.735537   -2.572198   -0.340316
     19          1           0       -1.004334   -2.540786   -0.021443
     20          1           0       -3.091165   -1.125591    1.745209
     21          1           0       -2.309934    0.440281    1.887457
     22          1           0       -1.355640   -1.022666    2.033319
     23          1           0       -4.018420   -0.369670   -0.651887
     24          1           0       -2.859622    0.193836   -1.853156
     25          1           0       -3.206118    1.171272   -0.439087
 ---------------------------------------------------------------------
 Rotational constants (GHZ):           1.4238300           0.5605573           0.4877126
 Standard basis: 6-31G(d,p) (6D, 7F)
 There are   245 symmetry adapted cartesian basis functions of A   symmetry.
 There are   245 symmetry adapted basis functions of A   symmetry.
   245 basis functions,   427 primitive gaussians,   245 cartesian basis functions
    47 alpha electrons       47 beta electrons
       nuclear repulsion energy       763.5105688393 Hartrees.
 NAtoms=   25 NActive=   25 NUniq=   25 SFac= 1.00D+00 NAtFMM=   60 NAOKFM=F Big=F
 Integral buffers will be    131072 words long.
 Raffenetti 2 integral format.
 Two-electron integral symmetry is turned on.
 Nuclear repulsion after empirical dispersion term =      763.4717256993 Hartrees.
 One-electron integrals computed using PRISM.
 NBasis=   245 RedAO= T EigKep=  2.77D-03  NBF=   245
 NBsUse=   245 1.00D-06 EigRej= -1.00D+00 NBFU=   245
 ExpMin= 1.61D-01 ExpMax= 5.48D+03 ExpMxC= 8.25D+02 IAcc=3 IRadAn=         5 AccDes= 0.00D+00
 Harris functional with IExCor=  402 and IRadAn=       5 diagonalized for initial guess.
 HarFok:  IExCor=  402 AccDes= 0.00D+00 IRadAn=         5 IDoV= 1 UseB2=F ITyADJ=14
 ICtDFT=  3500011 ScaDFX=  1.000000  1.000000  1.000000  1.000000
 FoFCou: FMM=F IPFlag=           0 FMFlag=      100000 FMFlg1=           0
         NFxFlg=           0 DoJE=T BraDBF=F KetDBF=T FulRan=T
         wScrn=  0.000000 ICntrl=       500 IOpCl=  0 I1Cent=   200000004 NGrid=           0
         NMat0=    1 NMatS0=      1 NMatT0=    0 NMatD0=    1 NMtDS0=    0 NMtDT0=    0
 Petite list used in FoFCou.
 Requested convergence on RMS density matrix=1.00D-08 within 128 cycles.
 Requested convergence on MAX density matrix=1.00D-06.
 Requested convergence on             energy=1.00D-06.
 No special actions if energy rises.
 Integral accuracy reduced to 1.0D-05 until final iterations.
 Initial convergence to 1.0D-05 achieved.  Increase integral accuracy.
 SCF Done:  E(RB3LYP) =  -630.320508935     A.U. after   14 cycles
            NFock= 14  Conv=0.60D-08     -V/T= 2.0093

 **********************************************************************

            Population analysis using the SCF Density.

 **********************************************************************

 Orbital symmetries:
       Occupied  (A) (A) (A) (A) (A) (A) (A) (A) (A) (A) (A) (A)
                 (A) (A) (A) (A) (A) (A) (A) (A) (A) (A) (A) (A)
                 (A) (A) (A) (A) (A) (A) (A) (A) (A) (A) (A) (A)
                 (A) (A) (A) (A) (A) (A) (A) (A) (A) (A) (A)
       Virtual   (A) (A) (A) (A) (A) (A) (A) (A) (A) (A) (A) (A)
                 (A) (A) (A) (A) (A) (A) (A) (A) (A) (A) (A) (A)
                 (A) (A) (A) (A) (A) (A) (A) (A) (A) (A) (A) (A)
                 (A) (A) (A) (A) (A) (A) (A) (A) (A) (A) (A) (A)
                 (A) (A) (A) (A) (A) (A) (A) (A) (A) (A) (A) (A)
                 (A) (A) (A) (A) (A) (A) (A) (A) (A) (A) (A) (A)
                 (A) (A) (A) (A) (A) (A) (A) (A) (A) (A) (A) (A)
                 (A) (A) (A) (A) (A) (A) (A) (A) (A) (A) (A) (A)
                 (A) (A) (A) (A) (A) (A) (A) (A) (A) (A) (A) (A)
                 (A) (A) (A) (A) (A) (A) (A) (A) (A) (A) (A) (A)
                 (A) (A) (A) (A) (A) (A) (A) (A) (A) (A) (A) (A)
                 (A) (A) (A) (A) (A) (A) (A) (A) (A) (A) (A) (A)
                 (A) (A) (A) (A) (A) (A) (A) (A) (A) (A) (A) (A)
                 (A) (A) (A) (A) (A) (A) (A) (A) (A) (A) (A) (A)
                 (A) (A) (A) (A) (A) (A) (A) (A) (A) (A) (A) (A)
                 (A) (A) (A) (A) (A) (A) (A) (A) (A) (A) (A) (A)
                 (A) (A) (A) (A) (A) (A)
 The electronic state is 1-A.
 Alpha  occ. eigenvalues --  -19.20772 -19.17964 -19.15020 -19.11118 -14.36534
 Alpha  occ. eigenvalues --  -10.33301 -10.33062 -10.25619 -10.25303 -10.17599
 Alpha  occ. eigenvalues --  -10.16925 -10.16810  -1.11948  -1.09275  -1.02734
 Alpha  occ. eigenvalues --   -1.00179  -0.92040  -0.80208  -0.75247  -0.69019
 Alpha  occ. eigenvalues --   -0.68671  -0.64998  -0.62219  -0.54678  -0.50948
 Alpha  occ. eigenvalues --   -0.50546  -0.50153  -0.48457  -0.46446  -0.46308
 Alpha  occ. eigenvalues --   -0.45442  -0.42982  -0.42517  -0.40701  -0.40381
 Alpha  occ. eigenvalues --   -0.40094  -0.39024  -0.38003  -0.36048  -0.35357
 Alpha  occ. eigenvalues --   -0.34529  -0.32988  -0.32550  -0.28957  -0.28548
 Alpha  occ. eigenvalues --   -0.25995  -0.25689
 Alpha virt. eigenvalues --    0.00147   0.05106   0.07319   0.07823   0.09359
 Alpha virt. eigenvalues --    0.11672   0.12762   0.14705   0.15257   0.15818
 Alpha virt. eigenvalues --    0.16750   0.16989   0.18532   0.19619   0.19990
 Alpha virt. eigenvalues --    0.21034   0.21297   0.22526   0.23161   0.23521
 Alpha virt. eigenvalues --    0.25942   0.27631   0.28901   0.34519   0.37399
 Alpha virt. eigenvalues --    0.37939   0.47131   0.49385   0.50098   0.50570
 Alpha virt. eigenvalues --    0.51370   0.53033   0.55684   0.56578   0.59120
 Alpha virt. eigenvalues --    0.59943   0.60090   0.61165   0.64301   0.65940
 Alpha virt. eigenvalues --    0.67325   0.67925   0.68804   0.70200   0.71186
 Alpha virt. eigenvalues --    0.73178   0.75596   0.78181   0.80526   0.82673
 Alpha virt. eigenvalues --    0.83485   0.84165   0.84316   0.86053   0.86389
 Alpha virt. eigenvalues --    0.87399   0.88129   0.88792   0.89151   0.90161
 Alpha virt. eigenvalues --    0.91602   0.92145   0.92600   0.93697   0.93876
 Alpha virt. eigenvalues --    0.95048   0.96898   0.97514   1.02673   1.04946
 Alpha virt. eigenvalues --    1.06446   1.08942   1.11030   1.12774   1.14803
 Alpha virt. eigenvalues --    1.17129   1.22880   1.23693   1.27875   1.31128
 Alpha virt. eigenvalues --    1.35192   1.37401   1.40057   1.40623   1.42108
 Alpha virt. eigenvalues --    1.46256   1.47780   1.49264   1.50285   1.52590
 Alpha virt. eigenvalues --    1.54423   1.57162   1.60181   1.63113   1.66231
 Alpha virt. eigenvalues --    1.68476   1.70054   1.72655   1.75433   1.77336
 Alpha virt. eigenvalues --    1.79451   1.80519   1.81558   1.82257   1.85436
 Alpha virt. eigenvalues --    1.86231   1.86531   1.87519   1.89286   1.90925
 Alpha virt. eigenvalues --    1.91492   1.92077   1.95900   2.01376   2.01846
 Alpha virt. eigenvalues --    2.04257   2.04537   2.05101   2.05785   2.06628
 Alpha virt. eigenvalues --    2.08990   2.10211   2.11385   2.13034   2.13870
 Alpha virt. eigenvalues --    2.14366   2.15700   2.16126   2.18852   2.19573
 Alpha virt. eigenvalues --    2.21280   2.23769   2.27296   2.29198   2.31992
 Alpha virt. eigenvalues --    2.32929   2.34105   2.37450   2.39671   2.41181
 Alpha virt. eigenvalues --    2.46998   2.49515   2.51561   2.53019   2.55274
 Alpha virt. eigenvalues --    2.55731   2.57789   2.60226   2.60917   2.63227
 Alpha virt. eigenvalues --    2.63597   2.68605   2.72256   2.72724   2.74116
 Alpha virt. eigenvalues --    2.75971   2.77522   2.79688   2.80296   2.82639
 Alpha virt. eigenvalues --    2.85583   2.87367   2.89693   2.90231   2.90985
 Alpha virt. eigenvalues --    2.94575   2.95780   2.96259   3.01548   3.03650
 Alpha virt. eigenvalues --    3.16521   3.17556   3.17677   3.22164   3.24075
 Alpha virt. eigenvalues --    3.24562   3.29629   3.42378   3.43522   3.43848
 Alpha virt. eigenvalues --    3.44723   3.44808   3.45497   3.49873   3.53016
 Alpha virt. eigenvalues --    3.53904   3.85794   4.04788   4.16018   4.20605
 Alpha virt. eigenvalues --    4.21488   4.31151   4.41164   4.50349   4.53841
 Alpha virt. eigenvalues --    4.56192   4.61474   4.74013
          Condensed to atoms (all electrons):
               1          2          3          4          5          6
     1  O    8.124388   0.243552  -0.092917   0.002116   0.000068  -0.000029
     2  C    0.243552   4.439250   0.281195  -0.060353   0.002111   0.002263
     3  C   -0.092917   0.281195   5.043402   0.268671  -0.032113   0.005039
     4  N    0.002116  -0.060353   0.268671   6.907678   0.315055  -0.101319
     5  C    0.000068   0.002111  -0.032113   0.315055   4.113718   0.277695
     6  O   -0.000029   0.002263   0.005039  -0.101319   0.277695   8.346644
     7  C    0.000001  -0.000005  -0.000129   0.004198  -0.016488   0.183796
     8  C   -0.000001  -0.000004  -0.000112  -0.000183   0.003906  -0.053452
     9  C   -0.000000  -0.000040   0.000019  -0.000340  -0.003675  -0.043159
    10  C   -0.000000   0.000003   0.000025  -0.000371  -0.004096  -0.043691
    11  O   -0.000000  -0.000085   0.002635  -0.082317   0.556028  -0.073781
    12  O   -0.082059   0.598882  -0.079866  -0.001161   0.004903  -0.000712
    13  H    0.269034  -0.008205   0.010329  -0.000283  -0.000014   0.000000
    14  H    0.003841  -0.034764   0.369279  -0.026662   0.002837   0.000280
    15  H    0.005036  -0.034520   0.373985  -0.027079  -0.004202   0.007828
    16  H   -0.000010   0.000667  -0.026503   0.342618  -0.015896   0.003578
    17  H   -0.000000  -0.000003  -0.000039  -0.000010   0.000031   0.000517
    18  H    0.000000  -0.000000   0.000001   0.000002  -0.000033   0.003478
    19  H   -0.000001   0.000148   0.000017  -0.000020   0.000013   0.000659
    20  H   -0.000000   0.000000  -0.000000   0.000003   0.000172   0.002908
    21  H   -0.000000   0.000000  -0.000011   0.000037   0.001916  -0.003118
    22  H   -0.000000   0.000106  -0.000003  -0.000058   0.000447   0.000057
    23  H    0.000000  -0.000000  -0.000001   0.000004   0.000203   0.002885
    24  H   -0.000000  -0.000000  -0.000004  -0.000029   0.000425   0.000247
    25  H    0.000000  -0.000000  -0.000010   0.000064   0.001841  -0.002998
               7          8          9         10         11         12
     1  O    0.000001  -0.000001  -0.000000  -0.000000  -0.000000  -0.082059
     2  C   -0.000005  -0.000004  -0.000040   0.000003  -0.000085   0.598882
     3  C   -0.000129  -0.000112   0.000019   0.000025   0.002635  -0.079866
     4  N    0.004198  -0.000183  -0.000340  -0.000371  -0.082317  -0.001161
     5  C   -0.016488   0.003906  -0.003675  -0.004096   0.556028   0.004903
     6  O    0.183796  -0.053452  -0.043159  -0.043691  -0.073781  -0.000712
     7  C    4.604031   0.405050   0.381258   0.380282   0.003277   0.000005
     8  C    0.405050   4.981659  -0.065316  -0.065480   0.000171  -0.000004
     9  C    0.381258  -0.065316   5.015981  -0.063789  -0.004984  -0.000031
    10  C    0.380282  -0.065480  -0.063789   5.017640  -0.005044  -0.000000
    11  O    0.003277   0.000171  -0.004984  -0.005044   8.100925  -0.000016
    12  O    0.000005  -0.000004  -0.000031  -0.000000  -0.000016   7.993360
    13  H    0.000000  -0.000000   0.000000  -0.000000   0.000000   0.010854
    14  H   -0.000004  -0.000001   0.000000   0.000001  -0.000054   0.000391
    15  H   -0.000268   0.000109   0.000041  -0.000009   0.000042   0.001051
    16  H   -0.000117   0.000004   0.000012   0.000007   0.005615   0.000723
    17  H   -0.025351   0.370548   0.005795  -0.006436   0.000002   0.000000
    18  H   -0.028204   0.371827  -0.001921  -0.001692   0.000008  -0.000000
    19  H   -0.025360   0.371307  -0.006321   0.005790   0.000003   0.000000
    20  H   -0.024964  -0.003437   0.366472  -0.001719   0.000151   0.000000
    21  H   -0.022967   0.004820   0.377141  -0.006060   0.009249   0.000001
    22  H   -0.025792  -0.006172   0.371333   0.005310  -0.000076   0.000145
    23  H   -0.025065  -0.003466  -0.001617   0.366034   0.000181   0.000000
    24  H   -0.026309  -0.006237   0.005398   0.369444  -0.000079   0.000000
    25  H   -0.022727   0.004767  -0.005905   0.377072   0.009751   0.000000
              13         14         15         16         17         18
     1  O    0.269034   0.003841   0.005036  -0.000010  -0.000000   0.000000
     2  C   -0.008205  -0.034764  -0.034520   0.000667  -0.000003  -0.000000
     3  C    0.010329   0.369279   0.373985  -0.026503  -0.000039   0.000001
     4  N   -0.000283  -0.026662  -0.027079   0.342618  -0.000010   0.000002
     5  C   -0.000014   0.002837  -0.004202  -0.015896   0.000031  -0.000033
     6  O    0.000000   0.000280   0.007828   0.003578   0.000517   0.003478
     7  C    0.000000  -0.000004  -0.000268  -0.000117  -0.025351  -0.028204
     8  C   -0.000000  -0.000001   0.000109   0.000004   0.370548   0.371827
     9  C    0.000000   0.000000   0.000041   0.000012   0.005795  -0.001921
    10  C   -0.000000   0.000001  -0.000009   0.000007  -0.006436  -0.001692
    11  O    0.000000  -0.000054   0.000042   0.005615   0.000002   0.000008
    12  O    0.010854   0.000391   0.001051   0.000723   0.000000  -0.000000
    13  H    0.395579  -0.000486  -0.000495   0.000002  -0.000000   0.000000
    14  H   -0.000486   0.563573  -0.022595  -0.004563   0.000000   0.000000
    15  H   -0.000495  -0.022595   0.529373   0.002996   0.000265  -0.000000
    16  H    0.000002  -0.004563   0.002996   0.409273   0.000000  -0.000000
    17  H   -0.000000   0.000000   0.000265   0.000000   0.606958  -0.029096
    18  H    0.000000   0.000000  -0.000000  -0.000000  -0.029096   0.605080
    19  H    0.000001   0.000001   0.000008   0.000000  -0.032036  -0.028817
    20  H    0.000000  -0.000000  -0.000001  -0.000000  -0.000002   0.001696
    21  H    0.000000   0.000000  -0.000001  -0.000000  -0.000199   0.000008
    22  H   -0.000000   0.000000  -0.000005  -0.000001  -0.000071   0.000168
    23  H   -0.000000  -0.000000   0.000000  -0.000000   0.000146   0.001729
    24  H   -0.000000   0.000000   0.000024  -0.000000   0.004162   0.000155
    25  H   -0.000000   0.000000  -0.000000   0.000000  -0.000046   0.000013
              19         20         21         22         23         24
     1  O   -0.000001  -0.000000  -0.000000  -0.000000   0.000000  -0.000000
     2  C    0.000148   0.000000   0.000000   0.000106  -0.000000  -0.000000
     3  C    0.000017  -0.000000  -0.000011  -0.000003  -0.000001  -0.000004
     4  N   -0.000020   0.000003   0.000037  -0.000058   0.000004  -0.000029
     5  C    0.000013   0.000172   0.001916   0.000447   0.000203   0.000425
     6  O    0.000659   0.002908  -0.003118   0.000057   0.002885   0.000247
     7  C   -0.025360  -0.024964  -0.022967  -0.025792  -0.025065  -0.026309
     8  C    0.371307  -0.003437   0.004820  -0.006172  -0.003466  -0.006237
     9  C   -0.006321   0.366472   0.377141   0.371333  -0.001617   0.005398
    10  C    0.005790  -0.001719  -0.006060   0.005310   0.366034   0.369444
    11  O    0.000003   0.000151   0.009249  -0.000076   0.000181  -0.000079
    12  O    0.000000   0.000000   0.000001   0.000145   0.000000   0.000000
    13  H    0.000001   0.000000   0.000000  -0.000000  -0.000000  -0.000000
    14  H    0.000001  -0.000000   0.000000   0.000000  -0.000000   0.000000
    15  H    0.000008  -0.000001  -0.000001  -0.000005   0.000000   0.000024
    16  H    0.000000  -0.000000  -0.000000  -0.000001  -0.000000  -0.000000
    17  H   -0.032036  -0.000002  -0.000199  -0.000071   0.000146   0.004162
    18  H   -0.028817   0.001696   0.000008   0.000168   0.001729   0.000155
    19  H    0.603143   0.000133  -0.000046   0.004075  -0.000006  -0.000076
    20  H    0.000133   0.614699  -0.027955  -0.029345   0.001141  -0.000057
    21  H   -0.000046  -0.027955   0.554407  -0.029383   0.000126   0.000004
    22  H    0.004075  -0.029345  -0.029383   0.598085  -0.000053  -0.000205
    23  H   -0.000006   0.001141   0.000126  -0.000053   0.614615  -0.029723
    24  H   -0.000076  -0.000057   0.000004  -0.000205  -0.029723   0.611164
    25  H   -0.000198   0.000125   0.003116   0.000002  -0.027551  -0.029923
              25
     1  O    0.000000
     2  C   -0.000000
     3  C   -0.000010
     4  N    0.000064
     5  C    0.001841
     6  O   -0.002998
     7  C   -0.022727
     8  C    0.004767
     9  C   -0.005905
    10  C    0.377072
    11  O    0.009751
    12  O    0.000000
    13  H   -0.000000
    14  H    0.000000
    15  H   -0.000000
    16  H    0.000000
    17  H   -0.000046
    18  H    0.000013
    19  H   -0.000198
    20  H    0.000125
    21  H    0.003116
    22  H    0.000002
    23  H   -0.027551
    24  H   -0.029923
    25  H    0.552708
 Mulliken charges:
               1
     1  O   -0.473017
     2  C    0.569801
     3  C   -0.122889
     4  N   -0.540262
     5  C    0.795146
     6  O   -0.515613
     7  C    0.281853
     8  C   -0.310303
     9  C   -0.326351
    10  C   -0.323222
    11  O   -0.521602
    12  O   -0.446467
    13  H    0.323682
    14  H    0.148925
    15  H    0.168417
    16  H    0.281596
    17  H    0.104865
    18  H    0.105597
    19  H    0.107584
    20  H    0.099978
    21  H    0.138914
    22  H    0.111434
    23  H    0.100415
    24  H    0.101618
    25  H    0.139900
 Sum of Mulliken charges =  -0.00000
 Mulliken charges with hydrogens summed into heavy atoms:
               1
     1  O   -0.149335
     2  C    0.569801
     3  C    0.194453
     4  N   -0.258666
     5  C    0.795146
     6  O   -0.515613
     7  C    0.281853
     8  C    0.007744
     9  C    0.023975
    10  C    0.018711
    11  O   -0.521602
    12  O   -0.446467
 Electronic spatial extent (au):  <R**2>=           2454.0259
 Charge=             -0.0000 electrons
 Dipole moment (field-independent basis, Debye):
    X=              1.8321    Y=             -2.1041    Z=             -1.9568  Tot=              3.4077
 Quadrupole moment (field-independent basis, Debye-Ang):
   XX=            -61.2823   YY=            -70.4447   ZZ=            -73.4867
   XY=              4.6356   XZ=             -1.7758   YZ=             -4.2533
 Traceless Quadrupole moment (field-independent basis, Debye-Ang):
   XX=              7.1223   YY=             -2.0401   ZZ=             -5.0822
   XY=              4.6356   XZ=             -1.7758   YZ=             -4.2533
 Octapole moment (field-independent basis, Debye-Ang**2):
  XXX=             39.9356  YYY=             -7.5400  ZZZ=             -4.2764  XYY=             32.6817
  XXY=            -12.4131  XXZ=              2.2367  XZZ=              0.0850  YZZ=              0.4252
  YYZ=              1.5093  XYZ=             -7.3530
 Hexadecapole moment (field-independent basis, Debye-Ang**3):
 XXXX=          -1892.3001 YYYY=           -669.5946 ZZZZ=           -369.5996 XXXY=            -58.4286
 XXXZ=             29.1956 YYYX=             -6.8425 YYYZ=            -15.1334 ZZZX=             -9.9083
 ZZZY=              4.4336 XXYY=           -396.7815 XXZZ=           -418.4833 YYZZ=           -177.6288
 XXYZ=            -38.9684 YYXZ=             20.4172 ZZXY=             -6.6355
 N-N= 7.634717256993D+02 E-N=-2.999889450214D+03  KE= 6.244883220372D+02
 Calling FoFJK, ICntrl=      2127 FMM=F ISym2X=0 I1Cent= 0 IOpClX= 0 NMat=1 NMatS=1 NMatT=0.
 ***** Axes restored to original set *****
 -------------------------------------------------------------------
 Center     Atomic                   Forces (Hartrees/Bohr)
 Number     Number              X              Y              Z
 -------------------------------------------------------------------
      1        8          -0.009950297   -0.003234260    0.002763637
      2        6          -0.008339655   -0.003478382   -0.001687012
      3        6          -0.000285964   -0.010955346   -0.024401889
      4        7          -0.003500775    0.023181696    0.011535971
      5        6          -0.001399159   -0.007032647   -0.010725196
      6        8           0.012401954   -0.009300541    0.022423929
      7        6          -0.011674776    0.013229030   -0.021821583
      8        6           0.002394790   -0.000791147    0.004342228
      9        6           0.000975828   -0.008740268    0.002210839
     10        6           0.001972592   -0.008278343    0.000740768
     11        8           0.004702487    0.007479992    0.009522336
     12        8          -0.002005973    0.001428327    0.003043828
     13        1           0.013602108    0.005630991   -0.002042674
     14        1          -0.000526520   -0.003134040    0.001776002
     15        1          -0.001143637   -0.000277104   -0.003427088
     16        1           0.000686558    0.000467171   -0.001192213
     17        1          -0.002483442   -0.001526881    0.002210158
     18        1          -0.001592107   -0.001284133   -0.003225672
     19        1           0.003156656   -0.001346599   -0.000660548
     20        1          -0.003032363    0.003726778    0.001061255
     21        1          -0.001902427   -0.002156664    0.002211471
     22        1           0.002235417    0.002037291    0.002915510
     23        1           0.002107105    0.004140882   -0.001384261
     24        1           0.000373469    0.002116376    0.003863191
     25        1           0.003228131   -0.001902180   -0.000052987
 -------------------------------------------------------------------
 Cartesian Forces:  Max     0.024401889 RMS     0.007360370

 GradGradGradGradGradGradGradGradGradGradGradGradGradGradGradGradGradGrad
 Berny optimization.
 FormGI is forming the generalized inverse of G from B-inverse, IUseBI=4.
 Internal  Forces:  Max     0.028629185 RMS     0.005285450
 Search for a local minimum.
 Step number   1 out of a maximum of  125
 All quantities printed in internal units (Hartrees-Bohrs-Radians)
 Mixed Optimization -- RFO/linear search
 Second derivative matrix not updated -- first step.
 ITU=  0
     Eigenvalues ---    0.00230   0.00230   0.00269   0.00286   0.00616
     Eigenvalues ---    0.00764   0.01128   0.01291   0.01887   0.02012
     Eigenvalues ---    0.02248   0.02338   0.04470   0.04843   0.05313
     Eigenvalues ---    0.05325   0.05360   0.05365   0.05376   0.05436
     Eigenvalues ---    0.05444   0.06356   0.06831   0.09752   0.13158
     Eigenvalues ---    0.15848   0.15905   0.16000   0.16000   0.16000
     Eigenvalues ---    0.16000   0.16000   0.16000   0.16000   0.16000
     Eigenvalues ---    0.16000   0.16000   0.16296   0.21957   0.22026
     Eigenvalues ---    0.24999   0.25000   0.25000   0.25000   0.25000
     Eigenvalues ---    0.28289   0.28321   0.28738   0.28852   0.34416
     Eigenvalues ---    0.34653   0.34739   0.34768   0.34783   0.34794
     Eigenvalues ---    0.34808   0.34811   0.34828   0.34843   0.34853
     Eigenvalues ---    0.34891   0.40945   0.46468   0.48156   0.53366
     Eigenvalues ---    0.54784   0.55762   0.93089   1.00715
 RFO step:  Lambda=-1.13328617D-02 EMin= 2.30000000D-03
 Linear search not attempted -- first point.
 Iteration  1 RMS(Cart)=  0.09347368 RMS(Int)=  0.00133286
 Iteration  2 RMS(Cart)=  0.00191675 RMS(Int)=  0.00022231
 Iteration  3 RMS(Cart)=  0.00000139 RMS(Int)=  0.00022231
 Iteration  4 RMS(Cart)=  0.00000000 RMS(Int)=  0.00022231
 Variable       Old X    -DE/DX   Delta X   Delta X   Delta X     New X
                                 (Linear)    (Quad)   (Total)
    R1        2.55324   0.00331   0.00000   0.00592   0.00592   2.55916
    R2        1.81161   0.01445   0.00000   0.02539   0.02539   1.83700
    R3        2.90553  -0.00651   0.00000  -0.02178  -0.02178   2.88375
    R4        2.28354  -0.00389   0.00000  -0.00382  -0.00382   2.27972
    R5        2.79934  -0.02863   0.00000  -0.08053  -0.08053   2.71881
    R6        2.05852   0.00312   0.00000   0.00867   0.00867   2.06719
    R7        2.06242  -0.00036   0.00000  -0.00101  -0.00101   2.06141
    R8        2.61773  -0.01979   0.00000  -0.04016  -0.04016   2.57757
    R9        1.90307  -0.00035   0.00000  -0.00073  -0.00073   1.90234
   R10        2.56613  -0.01061   0.00000  -0.01947  -0.01947   2.54666
   R11        2.31541  -0.01298   0.00000  -0.01378  -0.01378   2.30164
   R12        2.70289   0.00687   0.00000   0.01632   0.01632   2.71921
   R13        2.90313  -0.00366   0.00000  -0.01221  -0.01221   2.89092
   R14        2.91511  -0.00746   0.00000  -0.02534  -0.02534   2.88977
   R15        2.91441  -0.00708   0.00000  -0.02404  -0.02404   2.89037
   R16        2.06053   0.00288   0.00000   0.00803   0.00803   2.06856
   R17        2.05988   0.00187   0.00000   0.00521   0.00521   2.06509
   R18        2.06101   0.00263   0.00000   0.00732   0.00732   2.06833
   R19        2.05914   0.00258   0.00000   0.00718   0.00718   2.06632
   R20        2.06010   0.00136   0.00000   0.00379   0.00379   2.06389
   R21        2.06029   0.00291   0.00000   0.00810   0.00810   2.06838
   R22        2.05931   0.00263   0.00000   0.00731   0.00731   2.06662
   R23        2.05955   0.00330   0.00000   0.00916   0.00916   2.06871
   R24        2.05982   0.00131   0.00000   0.00365   0.00365   2.06347
    A1        1.82589   0.00628   0.00000   0.03663   0.03663   1.86251
    A2        1.92475   0.00070   0.00000   0.00267   0.00267   1.92742
    A3        2.15762  -0.00053   0.00000  -0.00202  -0.00202   2.15560
    A4        2.20074  -0.00017   0.00000  -0.00064  -0.00064   2.20010
    A5        1.94718   0.00409   0.00000   0.01579   0.01569   1.96287
    A6        1.87885   0.00076   0.00000   0.01916   0.01908   1.89793
    A7        1.90687  -0.00119   0.00000  -0.01023  -0.01022   1.89665
    A8        1.91228  -0.00193   0.00000  -0.00568  -0.00597   1.90631
    A9        1.95108  -0.00348   0.00000  -0.03216  -0.03221   1.91887
   A10        1.86436   0.00181   0.00000   0.01500   0.01491   1.87927
   A11        2.19649  -0.00650   0.00000  -0.02972  -0.03035   2.16615
   A12        2.08315   0.00376   0.00000   0.01477   0.01412   2.09727
   A13        1.99496   0.00253   0.00000   0.00714   0.00653   2.00150
   A14        1.95117  -0.01197   0.00000  -0.04583  -0.04584   1.90533
   A15        2.14336   0.00544   0.00000   0.02080   0.02078   2.16415
   A16        2.18864   0.00653   0.00000   0.02498   0.02496   2.21360
   A17        2.17797  -0.02411   0.00000  -0.09224  -0.09224   2.08573
   A18        1.81003   0.00000   0.00000  -0.00042   0.00022   1.81025
   A19        1.94773  -0.00201   0.00000  -0.03249  -0.03268   1.91504
   A20        1.94880  -0.00126   0.00000  -0.02637  -0.02663   1.92217
   A21        1.90416   0.00192   0.00000   0.02991   0.02953   1.93369
   A22        1.90649   0.00142   0.00000   0.02813   0.02772   1.93421
   A23        1.94144   0.00010   0.00000   0.00408   0.00266   1.94410
   A24        1.94279  -0.00174   0.00000  -0.00907  -0.00916   1.93364
   A25        1.94842  -0.00390   0.00000  -0.02513  -0.02531   1.92311
   A26        1.94113  -0.00183   0.00000  -0.00942  -0.00950   1.93163
   A27        1.87989   0.00271   0.00000   0.01339   0.01321   1.89311
   A28        1.86869   0.00249   0.00000   0.01900   0.01901   1.88770
   A29        1.87934   0.00280   0.00000   0.01435   0.01418   1.89352
   A30        1.94742  -0.00458   0.00000  -0.02886  -0.02914   1.91828
   A31        1.95037  -0.00290   0.00000  -0.01425  -0.01436   1.93602
   A32        1.93892  -0.00238   0.00000  -0.01443  -0.01463   1.92429
   A33        1.87284   0.00417   0.00000   0.02538   0.02520   1.89804
   A34        1.88293   0.00306   0.00000   0.01284   0.01248   1.89541
   A35        1.86753   0.00334   0.00000   0.02348   0.02345   1.89098
   A36        1.94568  -0.00433   0.00000  -0.02724  -0.02750   1.91818
   A37        1.94020  -0.00220   0.00000  -0.01386  -0.01406   1.92615
   A38        1.95075  -0.00312   0.00000  -0.01525  -0.01535   1.93539
   A39        1.88232   0.00275   0.00000   0.01048   0.01013   1.89245
   A40        1.87164   0.00426   0.00000   0.02677   0.02661   1.89825
   A41        1.86946   0.00333   0.00000   0.02312   0.02309   1.89255
    D1       -3.14003  -0.00035   0.00000  -0.00990  -0.00990   3.13326
    D2        0.01458  -0.00038   0.00000  -0.01103  -0.01103   0.00355
    D3        3.05205  -0.00089   0.00000  -0.00827  -0.00838   3.04367
    D4       -1.13254  -0.00033   0.00000   0.00651   0.00663  -1.12591
    D5        0.88586   0.00160   0.00000   0.02923   0.02923   0.91509
    D6       -0.10295  -0.00087   0.00000  -0.00712  -0.00723  -0.11018
    D7        1.99564  -0.00031   0.00000   0.00766   0.00778   2.00342
    D8       -2.26914   0.00162   0.00000   0.03039   0.03038  -2.23876
    D9       -1.42767   0.00233   0.00000   0.07551   0.07553  -1.35214
   D10        1.56512   0.00074   0.00000   0.00905   0.00897   1.57409
   D11        2.77667   0.00008   0.00000   0.04546   0.04558   2.82225
   D12       -0.51372  -0.00151   0.00000  -0.02100  -0.02098  -0.53471
   D13        0.71342   0.00123   0.00000   0.05037   0.05037   0.76379
   D14       -2.57698  -0.00036   0.00000  -0.01609  -0.01619  -2.59317
   D15       -0.06092  -0.00083   0.00000  -0.03597  -0.03583  -0.09676
   D16        3.08621  -0.00054   0.00000  -0.02648  -0.02635   3.05986
   D17       -3.06025   0.00055   0.00000   0.02679   0.02667  -3.03359
   D18        0.08688   0.00084   0.00000   0.03629   0.03615   0.12303
   D19        3.07545   0.00043   0.00000   0.01288   0.01289   3.08834
   D20       -0.07185   0.00011   0.00000   0.00306   0.00305  -0.06881
   D21       -3.11741   0.00006   0.00000   0.00590   0.00588  -3.11153
   D22       -1.06997   0.00136   0.00000   0.02532   0.02501  -1.04497
   D23        1.11508  -0.00101   0.00000  -0.01432  -0.01397   1.10110
   D24       -1.04304  -0.00060   0.00000  -0.00792  -0.00787  -1.05091
   D25        3.13875  -0.00019   0.00000  -0.00154  -0.00153   3.13722
   D26        1.03921   0.00016   0.00000   0.00377   0.00374   1.04294
   D27       -3.12065   0.00082   0.00000   0.01584   0.01610  -3.10455
   D28        1.06115   0.00123   0.00000   0.02223   0.02244   1.08358
   D29       -1.03840   0.00158   0.00000   0.02754   0.02770  -1.01070
   D30        1.03691  -0.00139   0.00000  -0.02541  -0.02558   1.01133
   D31       -1.06448  -0.00097   0.00000  -0.01903  -0.01925  -1.08373
   D32        3.11916  -0.00062   0.00000  -0.01371  -0.01398   3.10518
   D33       -2.99922  -0.00083   0.00000  -0.02258  -0.02248  -3.02170
   D34        1.18705  -0.00100   0.00000  -0.02526  -0.02515   1.16189
   D35       -0.89731  -0.00168   0.00000  -0.03574  -0.03551  -0.93282
   D36       -1.00950  -0.00081   0.00000  -0.02355  -0.02372  -1.03323
   D37       -3.10642  -0.00098   0.00000  -0.02624  -0.02640  -3.13282
   D38        1.09241  -0.00166   0.00000  -0.03672  -0.03675   1.05566
   D39        1.09483   0.00228   0.00000   0.03367   0.03359   1.12842
   D40       -1.00209   0.00211   0.00000   0.03098   0.03092  -0.97117
   D41       -3.08644   0.00142   0.00000   0.02050   0.02056  -3.06588
   D42        3.00444   0.00094   0.00000   0.02430   0.02426   3.02870
   D43        0.90360   0.00189   0.00000   0.03895   0.03878   0.94239
   D44       -1.18431   0.00126   0.00000   0.02927   0.02922  -1.15509
   D45        1.01274   0.00080   0.00000   0.02294   0.02307   1.03581
   D46       -1.08809   0.00175   0.00000   0.03759   0.03759  -1.05050
   D47        3.10718   0.00112   0.00000   0.02791   0.02802   3.13520
   D48       -1.09022  -0.00258   0.00000  -0.03538  -0.03533  -1.12554
   D49        3.09214  -0.00163   0.00000  -0.02073  -0.02081   3.07133
   D50        1.00422  -0.00226   0.00000  -0.03041  -0.03037   0.97385
         Item               Value     Threshold  Converged?
 Maximum Force            0.028629     0.000450     NO 
 RMS     Force            0.005285     0.000300     NO 
 Maximum Displacement     0.287667     0.001800     NO 
 RMS     Displacement     0.094093     0.001200     NO 
 Predicted change in Energy=-6.093048D-03
 GradGradGradGradGradGradGradGradGradGradGradGradGradGradGradGradGradGrad

                          Input orientation:                          
 ---------------------------------------------------------------------
 Center     Atomic      Atomic             Coordinates (Angstroms)
 Number     Number       Type             X           Y           Z
 ---------------------------------------------------------------------
      1          8           0        4.051580    0.534848    1.021282
      2          6           0        3.572571   -0.316454    0.083289
      3          6           0        2.217099   -0.872134    0.510648
      4          7           0        1.607808   -1.681360   -0.511050
      5          6           0        0.980041   -1.178074   -1.612453
      6          8           0        0.923113    0.164778   -1.514344
      7          6           0        0.360870    0.931045   -2.594750
      8          6           0        0.515829    2.380489   -2.130624
      9          6           0        1.160270    0.682423   -3.874439
     10          6           0       -1.114841    0.574544   -2.780772
     11          8           0        0.536885   -1.863517   -2.516466
     12          8           0        4.163344   -0.588903   -0.932635
     13          1           0        4.913808    0.848418    0.700015
     14          1           0        2.352962   -1.474292    1.413743
     15          1           0        1.561901   -0.037709    0.764431
     16          1           0        1.783230   -2.672108   -0.543261
     17          1           0       -0.025853    2.548671   -1.194396
     18          1           0        0.120156    3.062948   -2.886870
     19          1           0        1.570117    2.621880   -1.962785
     20          1           0        0.814095    1.352795   -4.665891
     21          1           0        1.044058   -0.349524   -4.212673
     22          1           0        2.224297    0.869673   -3.698927
     23          1           0       -1.567463    1.238083   -3.522949
     24          1           0       -1.656649    0.690595   -1.836643
     25          1           0       -1.226429   -0.457917   -3.118278
 ---------------------------------------------------------------------
                    Distance matrix (angstroms):
                    1          2          3          4          5
     1  O    0.000000
     2  C    1.354251   0.000000
     3  C    2.367628   1.526014   0.000000
     4  N    3.637533   2.465056   1.438732   0.000000
     5  C    4.393747   3.215453   2.476181   1.363993   0.000000
     6  O    4.043966   3.131077   2.617285   2.209894   1.347634
     7  C    5.182084   4.363848   4.042344   3.566696   2.407626
     8  C    5.083545   4.638812   4.522189   4.507112   3.625929
     9  C    5.687665   4.741366   4.771009   4.135232   2.934367
    10  C    6.414756   5.564939   4.901852   4.201614   2.970718
    11  O    5.533615   4.285734   3.601303   2.280735   1.217973
    12  O    2.256789   1.206376   2.439499   2.811043   3.307974
    13  H    0.972098   1.880478   3.204434   4.335446   4.992865
    14  H    2.660070   2.144328   1.093908   2.074358   3.336244
    15  H    2.567547   2.141132   1.090851   2.080997   2.699735
    16  H    4.228212   3.023807   2.130464   1.006674   2.005099
    17  H    5.058673   4.773896   4.431695   4.585736   3.882683
    18  H    6.092702   5.671099   5.605815   5.510543   4.511075
    19  H    4.406588   4.102444   4.329503   4.541678   3.861421
    20  H    6.595019   5.740234   5.806487   5.205649   3.969423
    21  H    6.100949   4.984953   4.894784   3.974118   2.729787
    22  H    5.072616   4.186871   4.555707   4.129212   3.177233
    23  H    7.260731   6.468499   5.919952   5.260896   3.997197
    24  H    6.385598   5.660832   4.791432   4.247357   3.239493
    25  H    6.780776   5.770653   5.019818   4.040712   2.766703
                    6          7          8          9         10
     6  O    0.000000
     7  C    1.438944   0.000000
     8  C    2.335606   1.529808   0.000000
     9  C    2.427807   1.529201   2.517861   0.000000
    10  C    2.434133   1.529516   2.518574   2.526633   0.000000
    11  O    2.295082   2.801194   4.261561   2.952034   2.956721
    12  O    3.377206   4.419465   4.853538   4.391916   5.712132
    13  H    4.614802   5.620636   5.449952   5.919648   6.966742
    14  H    3.647563   5.081545   5.549499   5.834278   5.815268
    15  H    2.375261   3.696628   3.914498   4.711582   4.484224
    16  H    3.119411   4.383426   5.445619   4.768407   4.893467
    17  H    2.585701   2.174227   1.094636   3.474536   2.756748
    18  H    3.305745   2.165245   1.092801   2.779213   2.780041
    19  H    2.580129   2.172690   1.094515   2.753886   3.474146
    20  H    3.369795   2.161692   2.751853   1.093450   2.807159
    21  H    2.749566   2.173540   3.473748   1.092163   2.750470
    22  H    2.638628   2.166872   2.767851   1.094542   3.475623
    23  H    3.374825   2.162011   2.753864   2.805856   1.093607
    24  H    2.652457   2.168623   2.768001   3.476738   1.094716
    25  H    2.753341   2.173204   3.473827   2.751088   1.091942
                   11         12         13         14         15
    11  O    0.000000
    12  O    4.157447   0.000000
    13  H    6.071062   2.301007   0.000000
    14  H    4.346973   3.093039   3.530201   0.000000
    15  H    3.892109   3.154577   3.467658   1.763847   0.000000
    16  H    2.469966   3.186895   4.872408   2.364154   2.949424
    17  H    4.640253   5.240445   5.556970   5.352139   3.612109
    18  H    4.957914   5.788126   6.383493   6.638316   5.002469
    19  H    4.636046   4.253841   4.627736   5.365857   3.809356
    20  H    3.878342   5.378184   6.771631   6.879134   5.655184
    21  H    2.329489   4.532758   6.367459   5.885142   5.013677
    22  H    3.422850   3.679635   5.156026   5.625844   4.602572
    23  H    3.880877   6.549026   7.745459   6.862772   5.459138
    24  H    3.434711   6.027160   7.044888   5.597207   4.201794
    25  H    2.333917   5.817547   7.347679   5.863811   4.798623
                   16         17         18         19         20
    16  H    0.000000
    17  H    5.563569   0.000000
    18  H    6.414762   1.774899   0.000000
    19  H    5.485142   1.772824   1.775066   0.000000
    20  H    5.842529   3.766552   2.563413   3.080410   0.000000
    21  H    4.405151   4.319056   3.775753   3.764037   1.776564
    22  H    4.764135   3.762298   3.145997   2.551934   1.776822
    23  H    5.949393   3.084860   2.565694   3.767415   2.644105
    24  H    4.981302   2.554295   3.144530   3.762684   3.814149
    25  H    4.537775   3.765937   3.776682   4.317521   3.136483
                   21         22         23         24         25
    21  H    0.000000
    22  H    1.772947   0.000000
    23  H    3.133090   3.813678   0.000000
    24  H    3.744487   4.308354   1.775197   0.000000
    25  H    2.522808   3.742614   1.776648   1.773910   0.000000
 Stoichiometry    C7H13NO4
 Framework group  C1[X(C7H13NO4)]
 Deg. of freedom    69
 Full point group                 C1      NOp   1
 Largest Abelian subgroup         C1      NOp   1
 Largest concise Abelian subgroup C1      NOp   1
                         Standard orientation:                         
 ---------------------------------------------------------------------
 Center     Atomic      Atomic             Coordinates (Angstroms)
 Number     Number       Type             X           Y           Z
 ---------------------------------------------------------------------
      1          8           0        3.278033   -1.291900   -0.358208
      2          6           0        2.504458   -0.318558    0.178621
      3          6           0        1.924657    0.567789   -0.919986
      4          7           0        0.992790    1.537712   -0.409275
      5          6           0       -0.292480    1.250543   -0.054178
      6          8           0       -0.564064   -0.030266   -0.373376
      7          6           0       -1.845850   -0.588824   -0.033381
      8          6           0       -1.748014   -2.038835   -0.511094
      9          6           0       -2.049683   -0.528788    1.480985
     10          6           0       -2.957599    0.154353   -0.775757
     11          8           0       -1.054254    2.053628    0.453971
     12          8           0        2.327356   -0.186857    1.364636
     13          1           0        3.623277   -1.815950    0.384189
     14          1           0        2.745809    1.087124   -1.422614
     15          1           0        1.433333   -0.067449   -1.658247
     16          1           0        1.316023    2.445909   -0.119295
     17          1           0       -1.564635   -2.081099   -1.589432
     18          1           0       -2.678801   -2.569957   -0.297179
     19          1           0       -0.927978   -2.557908   -0.005063
     20          1           0       -2.965017   -1.060564    1.754869
     21          1           0       -2.128699    0.505347    1.823246
     22          1           0       -1.205702   -0.998526    1.995828
     23          1           0       -3.916259   -0.343689   -0.605750
     24          1           0       -2.757707    0.162121   -1.852040
     25          1           0       -3.032678    1.187727   -0.431026
 ---------------------------------------------------------------------
 Rotational constants (GHZ):           1.4440836           0.6017160           0.5199974
 Standard basis: 6-31G(d,p) (6D, 7F)
 There are   245 symmetry adapted cartesian basis functions of A   symmetry.
 There are   245 symmetry adapted basis functions of A   symmetry.
   245 basis functions,   427 primitive gaussians,   245 cartesian basis functions
    47 alpha electrons       47 beta electrons
       nuclear repulsion energy       777.1847019483 Hartrees.
 NAtoms=   25 NActive=   25 NUniq=   25 SFac= 1.00D+00 NAtFMM=   60 NAOKFM=F Big=F
 Integral buffers will be    131072 words long.
 Raffenetti 2 integral format.
 Two-electron integral symmetry is turned on.
 Nuclear repulsion after empirical dispersion term =      777.1445683590 Hartrees.
 One-electron integrals computed using PRISM.
 NBasis=   245 RedAO= T EigKep=  2.46D-03  NBF=   245
 NBsUse=   245 1.00D-06 EigRej= -1.00D+00 NBFU=   245
 Initial guess from the checkpoint file:  "Ac2_conf-4.chk"
 B after Tr=     0.000000   -0.000000   -0.000000
         Rot=    0.999991   -0.000972    0.000199   -0.004029 Ang=  -0.48 deg.
 ExpMin= 1.61D-01 ExpMax= 5.48D+03 ExpMxC= 8.25D+02 IAcc=3 IRadAn=         5 AccDes= 0.00D+00
 Harris functional with IExCor=  402 and IRadAn=       5 diagonalized for initial guess.
 HarFok:  IExCor=  402 AccDes= 0.00D+00 IRadAn=         5 IDoV= 1 UseB2=F ITyADJ=14
 ICtDFT=  3500011 ScaDFX=  1.000000  1.000000  1.000000  1.000000
 FoFCou: FMM=F IPFlag=           0 FMFlag=      100000 FMFlg1=           0
         NFxFlg=           0 DoJE=T BraDBF=F KetDBF=T FulRan=T
         wScrn=  0.000000 ICntrl=       500 IOpCl=  0 I1Cent=   200000004 NGrid=           0
         NMat0=    1 NMatS0=      1 NMatT0=    0 NMatD0=    1 NMtDS0=    0 NMtDT0=    0
 Petite list used in FoFCou.
 Requested convergence on RMS density matrix=1.00D-08 within 128 cycles.
 Requested convergence on MAX density matrix=1.00D-06.
 Requested convergence on             energy=1.00D-06.
 No special actions if energy rises.
 Integral accuracy reduced to 1.0D-05 until final iterations.
 Initial convergence to 1.0D-05 achieved.  Increase integral accuracy.
 SCF Done:  E(RB3LYP) =  -630.325449980     A.U. after   12 cycles
            NFock= 12  Conv=0.66D-08     -V/T= 2.0089
 Calling FoFJK, ICntrl=      2127 FMM=F ISym2X=0 I1Cent= 0 IOpClX= 0 NMat=1 NMatS=1 NMatT=0.
 ***** Axes restored to original set *****
 -------------------------------------------------------------------
 Center     Atomic                   Forces (Hartrees/Bohr)
 Number     Number              X              Y              Z
 -------------------------------------------------------------------
      1        8          -0.000666962    0.000213582    0.000597829
      2        6           0.000915567    0.001327874    0.001873942
      3        6           0.000888808   -0.002795578   -0.003427577
      4        7          -0.002261476   -0.004085611    0.005946354
      5        6           0.001707819   -0.002688513   -0.000538979
      6        8           0.002870926   -0.000848756    0.006457855
      7        6          -0.005971460    0.007435665   -0.011656909
      8        6           0.000896836   -0.000299823    0.001613607
      9        6           0.002334084   -0.001249728   -0.002761978
     10        6          -0.003117868   -0.001776608    0.000106394
     11        8           0.000950981   -0.002087962    0.001510310
     12        8          -0.000553139   -0.000111451   -0.001041887
     13        1          -0.000268541   -0.000489783   -0.000366588
     14        1           0.000775715    0.000831023    0.000766294
     15        1           0.000728068    0.000627202    0.001215072
     16        1           0.001138437   -0.000302407   -0.000571864
     17        1          -0.000178695   -0.000420511   -0.000415893
     18        1          -0.000150259   -0.000120918   -0.000257915
     19        1          -0.000208861   -0.000453959   -0.000404866
     20        1           0.000041479    0.000776312    0.000031627
     21        1          -0.000236524    0.002099532    0.000626358
     22        1          -0.000199174    0.000761948    0.000195172
     23        1          -0.000024056    0.000771862    0.000192962
     24        1           0.000010210    0.000968568   -0.000023958
     25        1           0.000578086    0.001918040    0.000334640
 -------------------------------------------------------------------
 Cartesian Forces:  Max     0.011656909 RMS     0.002398732

 GradGradGradGradGradGradGradGradGradGradGradGradGradGradGradGradGradGrad
 Berny optimization.
 Using GEDIIS/GDIIS optimizer.
 FormGI is forming the generalized inverse of G from B-inverse, IUseBI=4.
 Internal  Forces:  Max     0.017302000 RMS     0.002620542
 Search for a local minimum.
 Step number   2 out of a maximum of  125
 All quantities printed in internal units (Hartrees-Bohrs-Radians)
 Mixed Optimization -- RFO/linear search
 Update second derivatives using D2CorX and points    1    2
 DE= -4.94D-03 DEPred=-6.09D-03 R= 8.11D-01
 TightC=F SS=  1.41D+00  RLast= 2.74D-01 DXNew= 5.0454D-01 8.2304D-01
 Trust test= 8.11D-01 RLast= 2.74D-01 DXMaxT set to 5.05D-01
 ITU=  1  0
 Use linear search instead of GDIIS.
     Eigenvalues ---    0.00230   0.00231   0.00269   0.00286   0.00611
     Eigenvalues ---    0.00763   0.01136   0.01291   0.01887   0.02016
     Eigenvalues ---    0.02250   0.02338   0.04307   0.04788   0.05488
     Eigenvalues ---    0.05500   0.05522   0.05571   0.05576   0.05596
     Eigenvalues ---    0.06003   0.06379   0.06768   0.09939   0.13211
     Eigenvalues ---    0.15261   0.15791   0.16000   0.16000   0.16000
     Eigenvalues ---    0.16000   0.16000   0.16000   0.16000   0.16000
     Eigenvalues ---    0.16033   0.16055   0.16572   0.21766   0.22072
     Eigenvalues ---    0.24596   0.24999   0.24999   0.25000   0.27782
     Eigenvalues ---    0.28305   0.28502   0.28811   0.30442   0.31909
     Eigenvalues ---    0.34654   0.34736   0.34764   0.34780   0.34803
     Eigenvalues ---    0.34806   0.34823   0.34839   0.34850   0.34887
     Eigenvalues ---    0.35000   0.42682   0.46470   0.50135   0.54700
     Eigenvalues ---    0.55126   0.59597   0.92830   1.00742
 RFO step:  Lambda=-2.53697244D-03 EMin= 2.29989684D-03
 Quartic linear search produced a step of -0.14092.
 Iteration  1 RMS(Cart)=  0.09218359 RMS(Int)=  0.00269896
 Iteration  2 RMS(Cart)=  0.00430346 RMS(Int)=  0.00030682
 Iteration  3 RMS(Cart)=  0.00001130 RMS(Int)=  0.00030672
 Iteration  4 RMS(Cart)=  0.00000000 RMS(Int)=  0.00030672
 Variable       Old X    -DE/DX   Delta X   Delta X   Delta X     New X
                                 (Linear)    (Quad)   (Total)
    R1        2.55916  -0.00034  -0.00083   0.00141   0.00058   2.55974
    R2        1.83700  -0.00027  -0.00358   0.00792   0.00434   1.84134
    R3        2.88375  -0.00046   0.00307  -0.00867  -0.00560   2.87815
    R4        2.27972   0.00063   0.00054  -0.00071  -0.00017   2.27955
    R5        2.71881   0.00028   0.01135  -0.02614  -0.01480   2.70401
    R6        2.06719   0.00027  -0.00122   0.00354   0.00232   2.06951
    R7        2.06141   0.00033   0.00014   0.00046   0.00060   2.06201
    R8        2.57757   0.00612   0.00566  -0.00247   0.00319   2.58076
    R9        1.90234   0.00051   0.00010   0.00070   0.00080   1.90314
   R10        2.54666   0.00923   0.00274   0.00826   0.01101   2.55766
   R11        2.30164  -0.00029   0.00194  -0.00475  -0.00280   2.29883
   R12        2.71921   0.01730  -0.00230   0.04117   0.03887   2.75808
   R13        2.89092  -0.00103   0.00172  -0.00711  -0.00539   2.88553
   R14        2.88977   0.00222   0.00357  -0.00188   0.00169   2.89146
   R15        2.89037   0.00195   0.00339  -0.00226   0.00113   2.89150
   R16        2.06856  -0.00033  -0.00113   0.00187   0.00074   2.06930
   R17        2.06509   0.00016  -0.00073   0.00212   0.00138   2.06648
   R18        2.06833  -0.00036  -0.00103   0.00155   0.00052   2.06885
   R19        2.06632   0.00044  -0.00101   0.00346   0.00245   2.06877
   R20        2.06389  -0.00215  -0.00053  -0.00397  -0.00450   2.05939
   R21        2.06838  -0.00003  -0.00114   0.00262   0.00148   2.06986
   R22        2.06662   0.00035  -0.00103   0.00328   0.00225   2.06886
   R23        2.06871   0.00008  -0.00129   0.00324   0.00195   2.07066
   R24        2.06347  -0.00198  -0.00051  -0.00358  -0.00410   2.05937
    A1        1.86251  -0.00111  -0.00516   0.00693   0.00176   1.86428
    A2        1.92742  -0.00028  -0.00038   0.00006  -0.00044   1.92698
    A3        2.15560   0.00101   0.00028   0.00282   0.00298   2.15858
    A4        2.20010  -0.00072   0.00009  -0.00256  -0.00259   2.19751
    A5        1.96287   0.00115  -0.00221   0.01099   0.00877   1.97164
    A6        1.89793  -0.00067  -0.00269   0.00391   0.00116   1.89908
    A7        1.89665  -0.00155   0.00144  -0.01553  -0.01409   1.88256
    A8        1.90631   0.00045   0.00084   0.00570   0.00654   1.91285
    A9        1.91887   0.00090   0.00454  -0.00445   0.00013   1.91900
   A10        1.87927  -0.00036  -0.00210  -0.00109  -0.00319   1.87607
   A11        2.16615   0.00135   0.00428  -0.00942  -0.00698   2.15917
   A12        2.09727  -0.00080  -0.00199  -0.00456  -0.00844   2.08883
   A13        2.00150  -0.00078  -0.00092  -0.00822  -0.01103   1.99046
   A14        1.90533   0.00404   0.00646  -0.00183   0.00462   1.90994
   A15        2.16415  -0.00516  -0.00293  -0.01032  -0.01326   2.15088
   A16        2.21360   0.00113  -0.00352   0.01228   0.00874   2.22234
   A17        2.08573   0.01560   0.01300   0.02144   0.03444   2.12017
   A18        1.81025  -0.00157  -0.00003  -0.02270  -0.02280   1.78745
   A19        1.91504   0.00105   0.00461   0.00222   0.00662   1.92166
   A20        1.92217   0.00078   0.00375   0.00254   0.00609   1.92826
   A21        1.93369  -0.00098  -0.00416  -0.00115  -0.00524   1.92844
   A22        1.93421  -0.00068  -0.00391  -0.00047  -0.00430   1.92991
   A23        1.94410   0.00123  -0.00038   0.01690   0.01665   1.96075
   A24        1.93364  -0.00046   0.00129  -0.00536  -0.00407   1.92956
   A25        1.92311  -0.00025   0.00357  -0.01080  -0.00723   1.91588
   A26        1.93163  -0.00049   0.00134  -0.00554  -0.00420   1.92743
   A27        1.89311   0.00030  -0.00186   0.00539   0.00353   1.89664
   A28        1.88770   0.00062  -0.00268   0.01106   0.00838   1.89608
   A29        1.89352   0.00033  -0.00200   0.00608   0.00408   1.89760
   A30        1.91828  -0.00044   0.00411  -0.01410  -0.00999   1.90829
   A31        1.93602   0.00000   0.00202  -0.00311  -0.00107   1.93494
   A32        1.92429  -0.00050   0.00206  -0.00809  -0.00604   1.91826
   A33        1.89804   0.00032  -0.00355   0.01104   0.00751   1.90555
   A34        1.89541   0.00001  -0.00176   0.00052  -0.00127   1.89414
   A35        1.89098   0.00063  -0.00330   0.01446   0.01117   1.90215
   A36        1.91818  -0.00049   0.00388  -0.01391  -0.01004   1.90814
   A37        1.92615  -0.00029   0.00198  -0.00688  -0.00491   1.92124
   A38        1.93539  -0.00018   0.00216  -0.00416  -0.00199   1.93341
   A39        1.89245  -0.00013  -0.00143  -0.00153  -0.00299   1.88946
   A40        1.89825   0.00045  -0.00375   0.01240   0.00866   1.90691
   A41        1.89255   0.00066  -0.00325   0.01478   0.01153   1.90408
    D1        3.13326   0.00008   0.00140   0.00648   0.00792   3.14117
    D2        0.00355  -0.00023   0.00155  -0.02152  -0.02001  -0.01646
    D3        3.04367  -0.00002   0.00118   0.01364   0.01483   3.05850
    D4       -1.12591   0.00082  -0.00093   0.03062   0.02968  -1.09624
    D5        0.91509  -0.00083  -0.00412   0.02290   0.01882   0.93390
    D6       -0.11018   0.00032   0.00102   0.04257   0.04357  -0.06661
    D7        2.00342   0.00116  -0.00110   0.05955   0.05842   2.06184
    D8       -2.23876  -0.00050  -0.00428   0.05183   0.04756  -2.19121
    D9       -1.35214   0.00158  -0.01064   0.15299   0.14229  -1.20985
   D10        1.57409   0.00012  -0.00126   0.02276   0.02161   1.59570
   D11        2.82225   0.00137  -0.00642   0.13694   0.13039   2.95265
   D12       -0.53471  -0.00009   0.00296   0.00671   0.00972  -0.52499
   D13        0.76379   0.00101  -0.00710   0.13747   0.13030   0.89409
   D14       -2.59317  -0.00045   0.00228   0.00724   0.00962  -2.58355
   D15       -0.09676  -0.00046   0.00505  -0.05525  -0.05010  -0.14685
   D16        3.05986  -0.00084   0.00371  -0.06395  -0.06008   2.99978
   D17       -3.03359   0.00094  -0.00376   0.06815   0.06424  -2.96935
   D18        0.12303   0.00056  -0.00509   0.05945   0.05426   0.17728
   D19        3.08834  -0.00062  -0.00182  -0.01586  -0.01773   3.07061
   D20       -0.06881  -0.00029  -0.00043  -0.00710  -0.00747  -0.07628
   D21       -3.11153  -0.00008  -0.00083  -0.00426  -0.00508  -3.11661
   D22       -1.04497  -0.00156  -0.00352  -0.01681  -0.02030  -1.06527
   D23        1.10110   0.00121   0.00197   0.00759   0.00952   1.11062
   D24       -1.05091  -0.00002   0.00111  -0.00320  -0.00209  -1.05300
   D25        3.13722   0.00007   0.00022   0.00055   0.00077   3.13799
   D26        1.04294   0.00014  -0.00053   0.00353   0.00301   1.04595
[...]
 Alpha  occ. eigenvalues --   -0.59980  -0.59429  -0.57316  -0.55463  -0.54643
 Alpha  occ. eigenvalues --   -0.53607  -0.51361  -0.50954  -0.49222  -0.48180
 Alpha  occ. eigenvalues --   -0.47189  -0.45612  -0.44987  -0.43042  -0.42683
 Alpha  occ. eigenvalues --   -0.41520  -0.41338  -0.39983  -0.38155  -0.36466
 Alpha  occ. eigenvalues --   -0.34945  -0.33296
 Alpha virt. eigenvalues --    0.03323   0.04614   0.06347   0.07330   0.08489
 Alpha virt. eigenvalues --    0.10013   0.11088   0.12036   0.12716   0.13437
 Alpha virt. eigenvalues --    0.13524   0.15470   0.16410   0.17489   0.17898
 Alpha virt. eigenvalues --    0.18356   0.18873   0.18995   0.19744   0.20097
 Alpha virt. eigenvalues --    0.20349   0.21573   0.22632   0.24339   0.24788
 Alpha virt. eigenvalues --    0.26368   0.27128   0.29046   0.29454   0.31469
 Alpha virt. eigenvalues --    0.32042   0.33086   0.33991   0.34831   0.35849
 Alpha virt. eigenvalues --    0.36471   0.37351   0.37823   0.38175   0.38910
 Alpha virt. eigenvalues --    0.39288   0.39944   0.40998   0.41652   0.42895
 Alpha virt. eigenvalues --    0.43506   0.45022   0.45912   0.46753   0.47330
 Alpha virt. eigenvalues --    0.47520   0.48187   0.48544   0.49523   0.50295
 Alpha virt. eigenvalues --    0.50398   0.51349   0.52101   0.52528   0.52725
 Alpha virt. eigenvalues --    0.54169   0.54763   0.55343   0.56552   0.57365
 Alpha virt. eigenvalues --    0.58124   0.60201   0.60809   0.60992   0.62927
 Alpha virt. eigenvalues --    0.64922   0.65104   0.65240   0.67477   0.69526
 Alpha virt. eigenvalues --    0.69994   0.71231   0.72251   0.74313   0.74988
 Alpha virt. eigenvalues --    0.75353   0.78695   0.80730   0.82357   0.84194
 Alpha virt. eigenvalues --    0.84615   0.87013   0.87475   0.89094   0.90278
 Alpha virt. eigenvalues --    0.92041   0.94197   0.94463   0.95180   0.97356
 Alpha virt. eigenvalues --    0.98066   0.99069   1.01247   1.02332   1.03851
 Alpha virt. eigenvalues --    1.04481   1.05259   1.06499   1.08005   1.09438
 Alpha virt. eigenvalues --    1.10801   1.13630   1.14320   1.14743   1.15577
 Alpha virt. eigenvalues --    1.16770   1.18028   1.23043   1.24813   1.26371
 Alpha virt. eigenvalues --    1.27403   1.30973   1.33079   1.34089   1.35652
 Alpha virt. eigenvalues --    1.37623   1.38422   1.39351   1.43204   1.46417
 Alpha virt. eigenvalues --    1.47562   1.48492   1.50847   1.51324   1.52628
 Alpha virt. eigenvalues --    1.53738   1.55526   1.57811   1.58846   1.58924
 Alpha virt. eigenvalues --    1.59834   1.59913   1.61871   1.63701   1.63943
 Alpha virt. eigenvalues --    1.64791   1.65399   1.65908   1.66710   1.67155
 Alpha virt. eigenvalues --    1.67605   1.69232   1.70588   1.71337   1.73062
 Alpha virt. eigenvalues --    1.77002   1.77272   1.79598   1.80509   1.82107
 Alpha virt. eigenvalues --    1.82963   1.85890   1.86278   1.88831   1.89354
 Alpha virt. eigenvalues --    1.89937   1.92551   1.93358   1.96179   1.97344
 Alpha virt. eigenvalues --    1.98649   2.00828   2.02258   2.04423   2.05281
 Alpha virt. eigenvalues --    2.07086   2.09745   2.11023   2.11701   2.12891
 Alpha virt. eigenvalues --    2.13558   2.15104   2.15343   2.16467   2.16706
 Alpha virt. eigenvalues --    2.18002   2.21126   2.22989   2.24669   2.25528
 Alpha virt. eigenvalues --    2.26681   2.28403   2.30216   2.31173   2.31882
 Alpha virt. eigenvalues --    2.33028   2.34841   2.35069   2.37742   2.38985
 Alpha virt. eigenvalues --    2.40143   2.41133   2.42007   2.42400   2.43515
 Alpha virt. eigenvalues --    2.44135   2.46175   2.48970   2.50233   2.50937
 Alpha virt. eigenvalues --    2.52373   2.54093   2.56449   2.57005   2.57411
 Alpha virt. eigenvalues --    2.59253   2.61554   2.62455   2.62843   2.64853
 Alpha virt. eigenvalues --    2.66772   2.68081   2.68567   2.69881   2.72607
 Alpha virt. eigenvalues --    2.75220   2.76054   2.77313   2.79493   2.80571
 Alpha virt. eigenvalues --    2.81208   2.82111   2.83180   2.84869   2.85557
 Alpha virt. eigenvalues --    2.86893   2.88811   2.91840   2.94474   2.95610
 Alpha virt. eigenvalues --    2.97718   3.00948   3.01454   3.02928   3.03188
 Alpha virt. eigenvalues --    3.05862   3.07719   3.08345   3.10727   3.11890
 Alpha virt. eigenvalues --    3.13132   3.15425   3.15989   3.16552   3.17301
 Alpha virt. eigenvalues --    3.18443   3.20540   3.21484   3.22135   3.22774
 Alpha virt. eigenvalues --    3.23963   3.24571   3.25413   3.26168   3.28801
 Alpha virt. eigenvalues --    3.30179   3.31371   3.32057   3.33582   3.33998
 Alpha virt. eigenvalues --    3.34542   3.35332   3.35736   3.37316   3.37936
 Alpha virt. eigenvalues --    3.38874   3.39779   3.40967   3.41189   3.44189
 Alpha virt. eigenvalues --    3.47086   3.48169   3.48525   3.51159   3.53956
 Alpha virt. eigenvalues --    3.55089   3.55451   3.57606   3.59916   3.63825
 Alpha virt. eigenvalues --    3.64768   3.66062   3.67948   3.68484   3.70076
 Alpha virt. eigenvalues --    3.75175   3.75969   3.80881   3.82661   3.84258
 Alpha virt. eigenvalues --    3.85415   3.86937   3.94600   3.97180   3.99353
 Alpha virt. eigenvalues --    4.01745   4.02025   4.04175   4.04288   4.04386
 Alpha virt. eigenvalues --    4.08805   4.11944   4.12801   4.12929   4.16083
 Alpha virt. eigenvalues --    4.19571   4.28905   4.33160   4.33942   4.37205
 Alpha virt. eigenvalues --    4.37244   4.40228   4.41570   4.44044   4.44825
 Alpha virt. eigenvalues --    4.47210   4.48898   4.50662   4.56203   4.61564
 Alpha virt. eigenvalues --    4.65446   4.68203   4.72593   4.73972   4.82859
 Alpha virt. eigenvalues --    4.84780   4.87646   4.87933   4.91721   4.98971
 Alpha virt. eigenvalues --    5.04594   5.09317   5.13275   5.16382   5.18971
 Alpha virt. eigenvalues --    5.20649   5.21099   5.22020   5.25679   5.26939
 Alpha virt. eigenvalues --    5.35769   5.36615   5.37870   5.40845   5.43485
 Alpha virt. eigenvalues --    5.48507   5.52002   5.55791   5.59137   5.70127
 Alpha virt. eigenvalues --    5.72840   5.75017   5.78098   5.86373   5.86654
 Alpha virt. eigenvalues --    5.90709   6.03023   6.14956   6.15711   6.18070
 Alpha virt. eigenvalues --    6.19369   6.26160   6.32488   6.34633   6.40328
 Alpha virt. eigenvalues --    6.41798   6.43462   6.46625   6.54930   6.62580
 Alpha virt. eigenvalues --    6.67446   6.68987   6.72655   6.74511   6.80863
 Alpha virt. eigenvalues --    6.82468   6.87485   6.92768   6.96660   7.06164
 Alpha virt. eigenvalues --    7.08117   7.09240   7.15105   7.28452   7.39528
 Alpha virt. eigenvalues --    7.43542  22.49091  22.52911  22.54444  22.62790
 Alpha virt. eigenvalues --   22.72418  23.28986  23.55696  32.58036  43.93692
 Alpha virt. eigenvalues --   44.01844  44.10890  44.57099
          Condensed to atoms (all electrons):
               1          2          3          4          5          6
     1  O    7.940817   0.365536  -0.123449   0.007522   0.000182  -0.000186
     2  C    0.365536   4.561770   0.230850  -0.053657   0.008138   0.009101
     3  C   -0.123449   0.230850   5.222736   0.219154  -0.047020   0.006126
     4  N    0.007522  -0.053657   0.219154   6.657447   0.398453  -0.110336
     5  C    0.000182   0.008138  -0.047020   0.398453   4.277238   0.330526
     6  O   -0.000186   0.009101   0.006126  -0.110336   0.330526   8.114699
     7  C   -0.000508   0.001550  -0.003128   0.007430  -0.044167   0.155096
     8  C    0.000162  -0.000788  -0.000890   0.000643   0.001910  -0.056613
     9  C    0.000231  -0.002356   0.000180  -0.000533  -0.007193  -0.035302
    10  C   -0.000003  -0.000032   0.000779  -0.002349  -0.009833  -0.034437
    11  O   -0.000007   0.000249   0.004517  -0.097893   0.641726  -0.082250
    12  O   -0.086882   0.650910  -0.102050   0.007046   0.016099  -0.004447
    13  H    0.287962  -0.024119   0.017707  -0.001105   0.000022  -0.000051
    14  H    0.003734  -0.031056   0.404058  -0.029739   0.006477   0.001278
    15  H    0.010817  -0.043639   0.402357  -0.015207  -0.017822   0.003422
    16  H    0.000093  -0.002776  -0.030973   0.382546  -0.043744   0.004932
    17  H   -0.000015  -0.000095  -0.000064  -0.000031  -0.000274  -0.000599
    18  H    0.000004   0.000047  -0.000030   0.000010   0.000164   0.005841
    19  H    0.000390   0.000305   0.000212  -0.000095  -0.000762  -0.002904
    20  H   -0.000001   0.000097  -0.000047  -0.000013   0.001543   0.004955
    21  H   -0.000003   0.000098  -0.000143   0.000047  -0.002921  -0.003599
    22  H   -0.000245  -0.000630   0.001161  -0.000747  -0.000784  -0.001836
    23  H    0.000000  -0.000000  -0.000026   0.000066   0.001822   0.005208
    24  H   -0.000000  -0.000025   0.000033  -0.000005  -0.002077   0.000673
    25  H   -0.000000  -0.000004  -0.000144   0.000551  -0.004458  -0.003303
               7          8          9         10         11         12
     1  O   -0.000508   0.000162   0.000231  -0.000003  -0.000007  -0.086882
     2  C    0.001550  -0.000788  -0.002356  -0.000032   0.000249   0.650910
     3  C   -0.003128  -0.000890   0.000180   0.000779   0.004517  -0.102050
     4  N    0.007430   0.000643  -0.000533  -0.002349  -0.097893   0.007046
     5  C   -0.044167   0.001910  -0.007193  -0.009833   0.641726   0.016099
     6  O    0.155096  -0.056613  -0.035302  -0.034437  -0.082250  -0.004447
     7  C    5.080260   0.310381   0.299569   0.294850   0.043545   0.002432
     8  C    0.310381   5.166358  -0.099399  -0.105755   0.001410  -0.000668
     9  C    0.299569  -0.099399   5.226688  -0.090982  -0.032725  -0.003766
    10  C    0.294850  -0.105755  -0.090982   5.231547  -0.032712   0.000078
    11  O    0.043545   0.001410  -0.032725  -0.032712   7.932624  -0.000784
    12  O    0.002432  -0.000668  -0.003766   0.000078  -0.000784   7.827411
    13  H    0.000005   0.000007  -0.000071  -0.000001   0.000003   0.006285
    14  H    0.000103  -0.000022  -0.000023   0.000008  -0.000148   0.001664
    15  H   -0.000707  -0.000186   0.000592  -0.000090  -0.000009   0.002531
    16  H   -0.000519   0.000009   0.000348   0.000052   0.003832   0.001302
    17  H   -0.029181   0.404386   0.013327  -0.013468   0.000008   0.000027
    18  H   -0.030202   0.412591  -0.008415  -0.008835   0.000073  -0.000009
    19  H   -0.025430   0.398750  -0.012084   0.014099  -0.000009  -0.000270
    20  H   -0.025354  -0.010101   0.399752  -0.008127   0.000650   0.000078
    21  H   -0.023718   0.012094   0.407006  -0.011817   0.008931   0.000049
    22  H   -0.022196  -0.013299   0.394300   0.012683   0.000389   0.003698
    23  H   -0.025311  -0.012818  -0.007078   0.398718   0.000812   0.000001
    24  H   -0.028986  -0.010250   0.012768   0.395133   0.000145   0.000001
    25  H   -0.022273   0.011800  -0.010780   0.406617   0.009276  -0.000000
              13         14         15         16         17         18
     1  O    0.287962   0.003734   0.010817   0.000093  -0.000015   0.000004
     2  C   -0.024119  -0.031056  -0.043639  -0.002776  -0.000095   0.000047
     3  C    0.017707   0.404058   0.402357  -0.030973  -0.000064  -0.000030
     4  N   -0.001105  -0.029739  -0.015207   0.382546  -0.000031   0.000010
     5  C    0.000022   0.006477  -0.017822  -0.043744  -0.000274   0.000164
     6  O   -0.000051   0.001278   0.003422   0.004932  -0.000599   0.005841
     7  C    0.000005   0.000103  -0.000707  -0.000519  -0.029181  -0.030202
     8  C    0.000007  -0.000022  -0.000186   0.000009   0.404386   0.412591
     9  C   -0.000071  -0.000023   0.000592   0.000348   0.013327  -0.008415
    10  C   -0.000001   0.000008  -0.000090   0.000052  -0.013468  -0.008835
    11  O    0.000003  -0.000148  -0.000009   0.003832   0.000008   0.000073
    12  O    0.006285   0.001664   0.002531   0.001302   0.000027  -0.000009
    13  H    0.374505  -0.000727  -0.001360  -0.000010  -0.000001  -0.000001
    14  H   -0.000727   0.479891  -0.011802  -0.007090   0.000002   0.000001
    15  H   -0.001360  -0.011802   0.479946   0.004884   0.000192   0.000020
    16  H   -0.000010  -0.007090   0.004884   0.432628   0.000001  -0.000002
    17  H   -0.000001   0.000002   0.000192   0.000001   0.516385  -0.022688
    18  H   -0.000001   0.000001   0.000020  -0.000002  -0.022688   0.525371
    19  H    0.000043   0.000003  -0.000126  -0.000001  -0.022927  -0.023345
    20  H    0.000001  -0.000000  -0.000011  -0.000006  -0.000020   0.001018
    21  H    0.000004  -0.000000  -0.000039  -0.000041  -0.000343  -0.000117
    22  H    0.000098   0.000013  -0.000173  -0.000049  -0.000274   0.000674
    23  H   -0.000000  -0.000000   0.000006  -0.000002   0.000790   0.001724
    24  H   -0.000000   0.000002   0.000054  -0.000002   0.002825   0.000582
    25  H   -0.000000   0.000001   0.000007   0.000007  -0.000134  -0.000053
              19         20         21         22         23         24
     1  O    0.000390  -0.000001  -0.000003  -0.000245   0.000000  -0.000000
     2  C    0.000305   0.000097   0.000098  -0.000630  -0.000000  -0.000025
     3  C    0.000212  -0.000047  -0.000143   0.001161  -0.000026   0.000033
     4  N   -0.000095  -0.000013   0.000047  -0.000747   0.000066  -0.000005
     5  C   -0.000762   0.001543  -0.002921  -0.000784   0.001822  -0.002077
     6  O   -0.002904   0.004955  -0.003599  -0.001836   0.005208   0.000673
     7  C   -0.025430  -0.025354  -0.023718  -0.022196  -0.025311  -0.028986
     8  C    0.398750  -0.010101   0.012094  -0.013299  -0.012818  -0.010250
     9  C   -0.012084   0.399752   0.407006   0.394300  -0.007078   0.012768
    10  C    0.014099  -0.008127  -0.011817   0.012683   0.398718   0.395133
    11  O   -0.000009   0.000650   0.008931   0.000389   0.000812   0.000145
    12  O   -0.000270   0.000078   0.000049   0.003698   0.000001   0.000001
    13  H    0.000043   0.000001   0.000004   0.000098  -0.000000  -0.000000
    14  H    0.000003  -0.000000  -0.000000   0.000013  -0.000000   0.000002
    15  H   -0.000126  -0.000011  -0.000039  -0.000173   0.000006   0.000054
    16  H   -0.000001  -0.000006  -0.000041  -0.000049  -0.000002  -0.000002
    17  H   -0.022927  -0.000020  -0.000343  -0.000274   0.000790   0.002825
    18  H   -0.023345   0.001018  -0.000117   0.000674   0.001724   0.000582
    19  H    0.523698   0.000144  -0.000134   0.003038  -0.000068  -0.000308
    20  H    0.000144   0.532118  -0.020167  -0.022745   0.000255  -0.000085
    21  H   -0.000134  -0.020167   0.465807  -0.018126   0.000386  -0.000067
    22  H    0.003038  -0.022745  -0.018126   0.502595  -0.000078  -0.000439
    23  H   -0.000068   0.000255   0.000386  -0.000078   0.533451  -0.022919
    24  H   -0.000308  -0.000085  -0.000067  -0.000439  -0.022919   0.525693
    25  H   -0.000368   0.000352   0.002452  -0.000140  -0.019171  -0.019962
              25
     1  O   -0.000000
     2  C   -0.000004
     3  C   -0.000144
     4  N    0.000551
     5  C   -0.004458
     6  O   -0.003303
     7  C   -0.022273
     8  C    0.011800
     9  C   -0.010780
    10  C    0.406617
    11  O    0.009276
    12  O   -0.000000
    13  H   -0.000000
    14  H    0.000001
    15  H    0.000007
    16  H    0.000007
    17  H   -0.000134
    18  H   -0.000053
    19  H   -0.000368
    20  H    0.000352
    21  H    0.002452
    22  H   -0.000140
    23  H   -0.019171
    24  H   -0.019962
    25  H    0.463541
 Mulliken charges:
               1
     1  O   -0.406151
     2  C    0.330526
     3  C   -0.201909
     4  N   -0.369206
     5  C    0.496752
     6  O   -0.305995
     7  C    0.086457
     8  C   -0.409710
     9  C   -0.444056
    10  C   -0.436120
    11  O   -0.401654
    12  O   -0.320738
    13  H    0.340803
    14  H    0.183373
    15  H    0.186342
    16  H    0.254577
    17  H    0.152170
    18  H    0.145577
    19  H    0.148146
    20  H    0.145714
    21  H    0.184360
    22  H    0.163112
    23  H    0.144232
    24  H    0.147215
    25  H    0.186183
 Sum of Mulliken charges =  -0.00000
 Mulliken charges with hydrogens summed into heavy atoms:
               1
     1  O   -0.065348
     2  C    0.330526
     3  C    0.167806
     4  N   -0.114629
     5  C    0.496752
     6  O   -0.305995
     7  C    0.086457
     8  C    0.036182
     9  C    0.049130
    10  C    0.041510
    11  O   -0.401654
    12  O   -0.320738
 Electronic spatial extent (au):  <R**2>=           2219.8509
 Charge=             -0.0000 electrons
 Dipole moment (field-independent basis, Debye):
    X=              1.9359    Y=             -2.2533    Z=             -1.6584  Tot=              3.4022
 Quadrupole moment (field-independent basis, Debye-Ang):
   XX=            -62.6216   YY=            -71.4320   ZZ=            -75.8317
   XY=              5.0709   XZ=             -0.0880   YZ=             -3.5733
 Traceless Quadrupole moment (field-independent basis, Debye-Ang):
   XX=              7.3402   YY=             -1.4702   ZZ=             -5.8700
   XY=              5.0709   XZ=             -0.0880   YZ=             -3.5733
 Octapole moment (field-independent basis, Debye-Ang**2):
  XXX=             32.3955  YYY=            -12.7845  ZZZ=             -5.7121  XYY=             31.6958
  XXY=             -8.1004  XXZ=              5.0370  XZZ=              1.1256  YZZ=             -0.6667
  YYZ=              3.6831  XYZ=             -4.8913
 Hexadecapole moment (field-independent basis, Debye-Ang**3):
 XXXX=          -1688.1072 YYYY=           -703.9402 ZZZZ=           -380.9376 XXXY=            -27.2513
 XXXZ=             27.7200 YYYX=            -16.2917 YYYZ=            -14.1019 ZZZX=             -6.3916
 ZZZY=              5.4824 XXYY=           -355.0441 XXZZ=           -367.3466 YYZZ=           -190.3625
 XXYZ=            -34.7067 YYXZ=             24.1595 ZZXY=             -5.3924
 N-N= 7.839073600646D+02 E-N=-3.042776147725D+03  KE= 6.271347778338D+02
 Unable to Open any file for archive entry.
 1\1\GINC-NOTCH076\SP\RM062X\def2TZVP\C7H13N1O4\U6032257\05-Feb-2022\0\
 \# M062X/def2tzvp int=(grid=ultrafine) nmr=giao guess=read geom=check\
 \Ac2.xyz\\0,1\O,0,4.0884323382,0.5732062754,0.726404181\C,0,3.46385015
 68,-0.2731302026,-0.1239787049\C,0,2.2365715647,-0.8905510815,0.538308
 2287\N,0,1.4647801636,-1.7235288817,-0.3493322364\C,0,0.8823232892,-1.
 2181850188,-1.4943820189\O,0,0.7689209169,0.123388331,-1.3960492579\C,
 0,0.3476867381,0.9231613136,-2.5557345202\C,0,0.4767105251,2.352763284
 6,-2.0328501548\C,0,1.309007118,0.6801436809,-3.7202264311\C,0,-1.1025
 906279,0.5971132186,-2.9123999298\O,0,0.5035474273,-1.9187338544,-2.41
 36969529\O,0,3.848494169,-0.4935533446,-1.2479444374\H,0,4.857551385,0
 .9255716776,0.2476132512\H,0,2.5668234314,-1.4814133801,1.3980711528\H
 ,0,1.621277447,-0.0770565023,0.9292697936\H,0,1.7677275337,-2.67849994
 14,-0.4744294195\H,0,-0.1641914294,2.5024190072,-1.1594755478\H,0,0.17
 88273658,3.0635152193,-2.8086002022\H,0,1.5106644123,2.5639269297,-1.7
 458652368\H,0,1.0950173278,1.3905982488,-4.5245453063\H,0,1.2052442298
 ,-0.3335754822,-4.1063124019\H,0,2.3410439516,0.8249633143,-3.38914020
 94\H,0,-1.4434840918,1.2675052995,-3.7075783756\H,0,-1.7485910514,0.74
 31795799,-2.0414512982\H,0,-1.1928442909,-0.4340276908,-3.2524739653\\
 Version=ES64L-G16RevC.01\State=1-A\HF=-630.2675577\RMSD=1.734e-09\Dipo
 le=0.4651821,0.8159278,0.9537076\Quadrupole=0.4398434,-0.4918115,0.051
 9681,-1.6725186,3.1478693,-5.7759137\PG=C01 [X(C7H13N1O4)]\\@
 The archive entry for this job was punched.


 THIS CURIOUS WORLD WHICH WE INHABIT IS MORE WONDERFUL THAN IT IS CONVENIENT;
 MORE BEAUTIFUL THAN IT IS USEFUL;
 IT IS MORE TO BE ADMIRED THAN IT IS TO BE USED.

                                                                 -- THOREAU
 Job cpu time:       0 days  0 hours 35 minutes  8.7 seconds.
 Elapsed time:       0 days  0 hours  1 minutes 13.7 seconds.
 File lengths (MBytes):  RWF=    117 Int=      0 D2E=      0 Chk=     20 Scr=      1
 Normal termination of Gaussian 16 at Sat Feb  5 09:10:18 2022.
