 Entering Gaussian System, Link 0=/uufs/chpc.utah.edu/sys/installdir/gaussian16/C01/AVX2/g16/g16
 Input=Ac3_conf-1-retry-1.com
 Output=Ac3_conf-1-retry-1.log
 Initial command:
 /uufs/chpc.utah.edu/sys/installdir/gaussian16/C01/AVX2/g16/l1.exe "/scratch/local/u6032257/3886794/notchpeak.peaks/Gau-101368.inp" -scrdir="/scratch/local/u6032257/3886794/notchpeak.peaks/"
 Entering Link 1 = /uufs/chpc.utah.edu/sys/installdir/gaussian16/C01/AVX2/g16/l1.exe PID=    101370.
  
 Copyright (c) 1988-2019, Gaussian, Inc.  All Rights Reserved.
  
 This is part of the Gaussian(R) 16 program.  It is based on
 the Gaussian(R) 09 system (copyright 2009, Gaussian, Inc.),
 the Gaussian(R) 03 system (copyright 2003, Gaussian, Inc.),
 the Gaussian(R) 98 system (copyright 1998, Gaussian, Inc.),
 the Gaussian(R) 94 system (copyright 1995, Gaussian, Inc.),
 the Gaussian 92(TM) system (copyright 1992, Gaussian, Inc.),
 the Gaussian 90(TM) system (copyright 1990, Gaussian, Inc.),
 the Gaussian 88(TM) system (copyright 1988, Gaussian, Inc.),
 the Gaussian 86(TM) system (copyright 1986, Carnegie Mellon
 University), and the Gaussian 82(TM) system (copyright 1983,
 Carnegie Mellon University). Gaussian is a federally registered
 trademark of Gaussian, Inc.
  
 This software contains proprietary and confidential information,
 including trade secrets, belonging to Gaussian, Inc.
  
 This software is provided under written license and may be
 used, copied, transmitted, or stored only in accord with that
 written license.
  
 The following legend is applicable only to US Government
 contracts under FAR:
  
                    RESTRICTED RIGHTS LEGEND
  
 Use, reproduction and disclosure by the US Government is
 subject to restrictions as set forth in subparagraphs (a)
 and (c) of the Commercial Computer Software - Restricted
 Rights clause in FAR 52.227-19.
  
 Gaussian, Inc.
 340 Quinnipiac St., Bldg. 40, Wallingford CT 06492
  
  
 ---------------------------------------------------------------
 Warning -- This program may not be used in any manner that
 competes with the business of Gaussian, Inc. or will provide
 assistance to any competitor of Gaussian, Inc.  The licensee
 of this program is prohibited from giving any competitor of
 Gaussian, Inc. access to this program.  By using this program,
 the user acknowledges that Gaussian, Inc. is engaged in the
 business of creating and licensing software in the field of
 computational chemistry and represents and warrants to the
 licensee that it is not a competitor of Gaussian, Inc. and that
 it will not use this program in any manner prohibited above.
 ---------------------------------------------------------------
  

 Cite this work as:
 Gaussian 16, Revision C.01,
 M. J. Frisch, G. W. Trucks, H. B. Schlegel, G. E. Scuseria, 
 M. A. Robb, J. R. Cheeseman, G. Scalmani, V. Barone, 
 G. A. Petersson, H. Nakatsuji, X. Li, M. Caricato, A. V. Marenich, 
 J. Bloino, B. G. Janesko, R. Gomperts, B. Mennucci, H. P. Hratchian, 
 J. V. Ortiz, A. F. Izmaylov, J. L. Sonnenberg, D. Williams-Young, 
 F. Ding, F. Lipparini, F. Egidi, J. Goings, B. Peng, A. Petrone, 
 T. Henderson, D. Ranasinghe, V. G. Zakrzewski, J. Gao, N. Rega, 
 G. Zheng, W. Liang, M. Hada, M. Ehara, K. Toyota, R. Fukuda, 
 J. Hasegawa, M. Ishida, T. Nakajima, Y. Honda, O. Kitao, H. Nakai, 
 T. Vreven, K. Throssell, J. A. Montgomery, Jr., J. E. Peralta, 
 F. Ogliaro, M. J. Bearpark, J. J. Heyd, E. N. Brothers, K. N. Kudin, 
 V. N. Staroverov, T. A. Keith, R. Kobayashi, J. Normand, 
 K. Raghavachari, A. P. Rendell, J. C. Burant, S. S. Iyengar, 
 J. Tomasi, M. Cossi, J. M. Millam, M. Klene, C. Adamo, R. Cammi, 
 J. W. Ochterski, R. L. Martin, K. Morokuma, O. Farkas, 
 J. B. Foresman, and D. J. Fox, Gaussian, Inc., Wallingford CT, 2019.
 
 ******************************************
 Gaussian 16:  ES64L-G16RevC.01  3-Jul-2019
                10-Feb-2022 
 ******************************************
 %NProcShared=64
 Will use up to   64 processors via shared memory.
 %mem=16GB
 %chk=Ac3_conf-1-retry-1.chk
 ----------------------------------------------------------------------
 # B3LYP/6-31G(d,p) empiricaldispersion=GD3BJ int=(grid=ultrafine) opt 
 freq=noraman
 ----------------------------------------------------------------------
 1/18=20,19=15,26=4,38=1/1,3;
 2/9=110,12=2,17=6,18=5,40=1/2;
 3/5=1,6=6,7=101,11=2,25=1,30=1,71=1,74=-5,75=-5,124=41/1,2,3;
 4//1;
 5/5=2,38=5/2;
 6/7=2,8=2,9=2,10=2,28=1/1;
 7//1,2,3,16;
 1/18=20,19=15,26=4/3(2);
 2/9=110/2;
 99//99;
 2/9=110/2;
 3/5=1,6=6,7=101,11=2,25=1,30=1,71=1,74=-5,75=-5,124=41/1,2,3;
 4/5=5,16=3,69=1/1;
 5/5=2,38=5/2;
 7//1,2,3,16;
 1/18=20,19=15,26=4/3(-5);
 2/9=110/2;
 6/7=2,8=2,9=2,10=2,19=2,28=1/1;
 99/9=1/99;
 -------
 Ac3.xyz
 -------
 Symbolic Z-matrix:
 Charge =  0 Multiplicity = 1
 O                    -1.3959    3.6353   -0.121 
 C                    -0.135     3.1444   -0.1285 
 C                    -0.0965    1.6576   -0.0605 
 C                     1.1574    1.0395   -0.0621 
 C                     1.2422   -0.3475    0.0001 
 C                     2.576    -1.0465    0. 
 F                     2.7092   -1.8394   -1.0863 
 F                     2.7075   -1.8428    1.084 
 F                     3.6054   -0.1783    0.0021 
 C                     0.0837   -1.1227    0.0638 
 C                    -1.1641   -0.5002    0.065 
 C                    -2.3972   -1.3616    0.1356 
 F                    -2.4055   -2.1093    1.2612 
 F                    -3.5295   -0.6309    0.1221 
 F                    -2.4515   -2.221    -0.9058 
 C                    -1.2615    0.8879    0.0031 
 O                     0.8475    3.8535   -0.185 
 H                    -1.3102    4.6017   -0.1679 
 H                     2.0474    1.6542   -0.112 
 H                     0.1532   -2.2039    0.112 
 H                    -2.2307    1.3683    0.0041 
 

 GradGradGradGradGradGradGradGradGradGradGradGradGradGradGradGradGradGrad
 Berny optimization.
 Initialization pass.
                           ----------------------------
                           !    Initial Parameters    !
                           ! (Angstroms and Degrees)  !
 --------------------------                            --------------------------
 ! Name  Definition              Value          Derivative Info.                !
 --------------------------------------------------------------------------------
 ! R1    R(1,2)                  1.3531         estimate D2E/DX2                !
 ! R2    R(1,18)                 0.9713         estimate D2E/DX2                !
 ! R3    R(2,3)                  1.4889         estimate D2E/DX2                !
 ! R4    R(2,17)                 1.213          estimate D2E/DX2                !
 ! R5    R(3,4)                  1.398          estimate D2E/DX2                !
 ! R6    R(3,16)                 1.3978         estimate D2E/DX2                !
 ! R7    R(4,5)                  1.391          estimate D2E/DX2                !
 ! R8    R(4,19)                 1.0828         estimate D2E/DX2                !
 ! R9    R(5,6)                  1.5059         estimate D2E/DX2                !
 ! R10   R(5,10)                 1.3954         estimate D2E/DX2                !
 ! R11   R(6,7)                  1.3515         estimate D2E/DX2                !
 ! R12   R(6,8)                  1.3515         estimate D2E/DX2                !
 ! R13   R(6,9)                  1.3466         estimate D2E/DX2                !
 ! R14   R(10,11)                1.3945         estimate D2E/DX2                !
 ! R15   R(10,20)                1.0845         estimate D2E/DX2                !
 ! R16   R(11,12)                1.5058         estimate D2E/DX2                !
 ! R17   R(11,16)                1.3929         estimate D2E/DX2                !
 ! R18   R(12,13)                1.3513         estimate D2E/DX2                !
 ! R19   R(12,14)                1.3477         estimate D2E/DX2                !
 ! R20   R(12,15)                1.3513         estimate D2E/DX2                !
 ! R21   R(16,21)                1.0817         estimate D2E/DX2                !
 ! A1    A(2,1,18)             106.1689         estimate D2E/DX2                !
 ! A2    A(1,2,3)              112.7144         estimate D2E/DX2                !
 ! A3    A(1,2,17)             122.8855         estimate D2E/DX2                !
 ! A4    A(3,2,17)             124.4002         estimate D2E/DX2                !
 ! A5    A(2,3,4)              117.6891         estimate D2E/DX2                !
 ! A6    A(2,3,16)             122.035          estimate D2E/DX2                !
 ! A7    A(4,3,16)             120.2759         estimate D2E/DX2                !
 ! A8    A(3,4,5)              119.7032         estimate D2E/DX2                !
 ! A9    A(3,4,19)             119.0971         estimate D2E/DX2                !
 ! A10   A(5,4,19)             121.1998         estimate D2E/DX2                !
 ! A11   A(4,5,6)              121.1213         estimate D2E/DX2                !
 ! A12   A(4,5,10)             120.3566         estimate D2E/DX2                !
 ! A13   A(6,5,10)             118.5221         estimate D2E/DX2                !
 ! A14   A(5,6,7)              111.0809         estimate D2E/DX2                !
 ! A15   A(5,6,8)              111.0779         estimate D2E/DX2                !
 ! A16   A(5,6,9)              112.198          estimate D2E/DX2                !
 ! A17   A(7,6,8)              106.8243         estimate D2E/DX2                !
 ! A18   A(7,6,9)              107.7078         estimate D2E/DX2                !
 ! A19   A(8,6,9)              107.7128         estimate D2E/DX2                !
 ! A20   A(5,10,11)            119.6668         estimate D2E/DX2                !
 ! A21   A(5,10,20)            120.1771         estimate D2E/DX2                !
 ! A22   A(11,10,20)           120.1561         estimate D2E/DX2                !
 ! A23   A(10,11,12)           118.518          estimate D2E/DX2                !
 ! A24   A(10,11,16)           120.4914         estimate D2E/DX2                !
 ! A25   A(12,11,16)           120.9906         estimate D2E/DX2                !
 ! A26   A(11,12,13)           111.1368         estimate D2E/DX2                !
 ! A27   A(11,12,14)           112.1721         estimate D2E/DX2                !
 ! A28   A(11,12,15)           111.1358         estimate D2E/DX2                !
 ! A29   A(13,12,14)           107.6489         estimate D2E/DX2                !
 ! A30   A(13,12,15)           106.8454         estimate D2E/DX2                !
 ! A31   A(14,12,15)           107.6585         estimate D2E/DX2                !
 ! A32   A(3,16,11)            119.5061         estimate D2E/DX2                !
 ! A33   A(3,16,21)            120.15           estimate D2E/DX2                !
 ! A34   A(11,16,21)           120.3439         estimate D2E/DX2                !
 ! D1    D(18,1,2,3)          -179.9973         estimate D2E/DX2                !
 ! D2    D(18,1,2,17)           -0.0002         estimate D2E/DX2                !
 ! D3    D(1,2,3,4)            179.9924         estimate D2E/DX2                !
 ! D4    D(1,2,3,16)             0.0018         estimate D2E/DX2                !
 ! D5    D(17,2,3,4)            -0.0046         estimate D2E/DX2                !
 ! D6    D(17,2,3,16)         -179.9953         estimate D2E/DX2                !
 ! D7    D(2,3,4,5)           -179.9973         estimate D2E/DX2                !
 ! D8    D(2,3,4,19)             0.0044         estimate D2E/DX2                !
 ! D9    D(16,3,4,5)            -0.0066         estimate D2E/DX2                !
 ! D10   D(16,3,4,19)          179.9952         estimate D2E/DX2                !
 ! D11   D(2,3,16,11)          179.9947         estimate D2E/DX2                !
 ! D12   D(2,3,16,21)           -0.0026         estimate D2E/DX2                !
 ! D13   D(4,3,16,11)            0.0043         estimate D2E/DX2                !
 ! D14   D(4,3,16,21)         -179.993          estimate D2E/DX2                !
 ! D15   D(3,4,5,6)            179.9858         estimate D2E/DX2                !
 ! D16   D(3,4,5,10)             0.0065         estimate D2E/DX2                !
 ! D17   D(19,4,5,6)            -0.016          estimate D2E/DX2                !
 ! D18   D(19,4,5,10)         -179.9953         estimate D2E/DX2                !
 ! D19   D(4,5,6,7)           -117.5275         estimate D2E/DX2                !
 ! D20   D(4,5,6,8)            123.7208         estimate D2E/DX2                !
 ! D21   D(4,5,6,9)              3.0945         estimate D2E/DX2                !
 ! D22   D(10,5,6,7)            62.4522         estimate D2E/DX2                !
 ! D23   D(10,5,6,8)           -56.2996         estimate D2E/DX2                !
 ! D24   D(10,5,6,9)          -176.9258         estimate D2E/DX2                !
 ! D25   D(4,5,10,11)           -0.0041         estimate D2E/DX2                !
 ! D26   D(4,5,10,20)          179.9875         estimate D2E/DX2                !
 ! D27   D(6,5,10,11)         -179.9839         estimate D2E/DX2                !
 ! D28   D(6,5,10,20)            0.0077         estimate D2E/DX2                !
 ! D29   D(5,10,11,12)        -179.9516         estimate D2E/DX2                !
 ! D30   D(5,10,11,16)           0.0018         estimate D2E/DX2                !
 ! D31   D(20,10,11,12)          0.0568         estimate D2E/DX2                !
 ! D32   D(20,10,11,16)       -179.9898         estimate D2E/DX2                !
 ! D33   D(10,11,12,13)         59.7435         estimate D2E/DX2                !
 ! D34   D(10,11,12,14)       -179.6885         estimate D2E/DX2                !
 ! D35   D(10,11,12,15)        -59.1091         estimate D2E/DX2                !
 ! D36   D(16,11,12,13)       -120.2097         estimate D2E/DX2                !
 ! D37   D(16,11,12,14)          0.3583         estimate D2E/DX2                !
 ! D38   D(16,11,12,15)        120.9377         estimate D2E/DX2                !
 ! D39   D(10,11,16,3)          -0.0019         estimate D2E/DX2                !
 ! D40   D(10,11,16,21)        179.9953         estimate D2E/DX2                !
 ! D41   D(12,11,16,3)         179.9503         estimate D2E/DX2                !
 ! D42   D(12,11,16,21)         -0.0524         estimate D2E/DX2                !
 --------------------------------------------------------------------------------
 Trust Radius=3.00D-01 FncErr=1.00D-07 GrdErr=1.00D-06 EigMax=2.50D+02 EigMin=1.00D-04
 Number of steps in this run=    107 maximum allowed number of steps=    126.
 GradGradGradGradGradGradGradGradGradGradGradGradGradGradGradGradGradGrad

                          Input orientation:                          
 ---------------------------------------------------------------------
 Center     Atomic      Atomic             Coordinates (Angstroms)
 Number     Number       Type             X           Y           Z
 ---------------------------------------------------------------------
      1          8           0       -1.395900    3.635300   -0.121000
      2          6           0       -0.135000    3.144400   -0.128500
      3          6           0       -0.096500    1.657600   -0.060500
      4          6           0        1.157400    1.039500   -0.062100
      5          6           0        1.242200   -0.347500    0.000100
      6          6           0        2.576000   -1.046500    0.000000
      7          9           0        2.709200   -1.839400   -1.086300
      8          9           0        2.707500   -1.842800    1.084000
      9          9           0        3.605400   -0.178300    0.002100
     10          6           0        0.083700   -1.122700    0.063800
     11          6           0       -1.164100   -0.500200    0.065000
     12          6           0       -2.397200   -1.361600    0.135600
     13          9           0       -2.405500   -2.109300    1.261200
     14          9           0       -3.529500   -0.630900    0.122100
     15          9           0       -2.451500   -2.221000   -0.905800
     16          6           0       -1.261500    0.887900    0.003100
     17          8           0        0.847500    3.853500   -0.185000
     18          1           0       -1.310200    4.601700   -0.167900
     19          1           0        2.047400    1.654200   -0.112000
     20          1           0        0.153200   -2.203900    0.112000
     21          1           0       -2.230700    1.368300    0.004100
 ---------------------------------------------------------------------
                    Distance matrix (angstroms):
                    1          2          3          4          5
     1  O    0.000000
     2  C    1.353110   0.000000
     3  C    2.367150   1.488852   0.000000
     4  C    3.641564   2.470893   1.397968   0.000000
     5  C    4.778800   3.755873   2.411683   1.390981   0.000000
     6  C    6.140837   4.992963   3.802377   2.523426   1.505863
     7  F    6.910571   5.817656   4.599264   3.427117   2.357566
     8  F    6.949784   5.867037   4.628725   3.467565   2.357513
     9  F    6.290604   5.004796   4.132616   2.734934   2.369250
    10  C    4.986174   4.277026   2.788905   2.417394   1.395391
    11  C    4.146165   3.792044   2.410730   2.788583   2.412013
    12  C    5.102691   5.048894   3.800953   4.294129   3.780475
    13  F    5.994180   5.889635   4.611714   4.935618   4.242644
    14  F    4.776171   5.083141   4.129899   4.979076   4.781665
    15  F    6.002204   5.895582   4.615636   4.936279   4.239585
    16  C    2.753483   2.525493   1.397751   2.424523   2.791905
    17  O    2.254895   1.212980   2.393452   2.833679   4.223559
    18  H    0.971325   1.872531   3.186272   4.334687   5.571135
    19  H    3.972550   2.642695   2.144521   1.082796   2.160490
    20  H    6.045681   5.361456   3.873408   3.399761   2.155148
    21  H    2.419056   2.750286   2.154687   3.404661   3.873631
                    6          7          8          9         10
     6  C    0.000000
     7  F    1.351473   0.000000
     8  F    1.351459   2.170303   0.000000
     9  F    1.346640   2.178771   2.178828   0.000000
    10  C    2.494281   2.954596   2.905801   3.646652   0.000000
    11  C    3.780346   4.256924   4.222585   4.780764   1.394458
    12  C    4.985017   5.272253   5.214305   6.119577   2.493410
    13  F    5.247429   5.634160   5.123006   6.437780   2.933132
    14  F    6.120847   6.468545   6.426050   7.150248   3.646982
    15  F    5.241725   5.177936   5.542348   6.456233   2.928075
    16  C    4.297478   4.938767   4.937411   4.982319   2.419868
    17  O    5.199225   6.057011   6.125177   4.888397   5.040621
    18  H    6.858054   7.647667   7.696801   6.858602   5.896219
    19  H    2.754223   3.686798   3.754352   2.407995   3.405613
    20  H    2.687393   2.846387   2.756742   4.004100   1.084503
    21  H    5.379186   5.990069   5.988586   6.037552   3.400749
                   11         12         13         14         15
    11  C    0.000000
    12  C    1.505832   0.000000
    13  F    2.358214   1.351333   0.000000
    14  F    2.369696   1.347668   2.178667   0.000000
    15  F    2.358178   1.351307   2.170364   2.178780   0.000000
    16  C    1.392889   2.523415   3.445977   2.732167   3.450719
    17  O    4.802472   6.150458   6.944673   6.273937   6.950000
    18  H    5.109302   6.069154   6.948347   5.691177   6.956745
    19  H    3.871240   5.376879   5.989819   6.031442   5.990609
    20  H    2.154085   2.685994   2.806520   4.004586   2.796546
    21  H    2.152356   2.738132   3.701967   2.386966   3.709413
                   16         17         18         19         20
    16  C    0.000000
    17  O    3.643905   0.000000
    18  H    3.718054   2.283805   0.000000
    19  H    3.398424   2.506394   4.468149   0.000000
    20  H    3.401832   6.104290   6.966784   4.303848   0.000000
    21  H    1.081727   3.960719   3.366271   4.289214   4.295956
                   21
    21  H    0.000000
 Stoichiometry    C9H4F6O2
 Framework group  C1[X(C9H4F6O2)]
 Deg. of freedom    57
 Full point group                 C1      NOp   1
 Largest Abelian subgroup         C1      NOp   1
 Largest concise Abelian subgroup C1      NOp   1
                         Standard orientation:                         
 ---------------------------------------------------------------------
 Center     Atomic      Atomic             Coordinates (Angstroms)
 Number     Number       Type             X           Y           Z
 ---------------------------------------------------------------------
      1          8           0        1.394525    3.638081    0.000471
      2          6           0        0.133527    3.147376   -0.000027
      3          6           0        0.095816    1.659002   -0.000041
      4          6           0       -1.158116    1.040964   -0.000373
      5          6           0       -1.242195   -0.347473   -0.000343
      6          6           0       -2.576014   -1.046436   -0.000373
      7          9           0       -2.736103   -1.788267    1.117902
      8          9           0       -2.681541   -1.892137   -1.049228
      9          9           0       -3.604544   -0.179818   -0.067739
     10          6           0       -0.082945   -1.124168    0.000152
     11          6           0        1.164882   -0.501720    0.000531
     12          6           0        2.398826   -1.364802   -0.000057
     13          9           0        2.434100   -2.163806   -1.089299
     14          9           0        3.530893   -0.633652    0.007179
     15          9           0        2.427236   -2.175039    1.081026
     16          6           0        1.261565    0.887809    0.000457
     17          8           0       -0.849639    3.857803   -0.000365
     18          1           0        1.308279    4.605569    0.000481
     19          1           0       -2.048704    1.656837   -0.000678
     20          1           0       -0.151889   -2.206478    0.000379
     21          1           0        2.230785    1.368169    0.000828
 ---------------------------------------------------------------------
 Rotational constants (GHZ):           0.4534852           0.3744877           0.2211750
 Standard basis: 6-31G(d,p) (6D, 7F)
 There are   275 symmetry adapted cartesian basis functions of A   symmetry.
 There are   275 symmetry adapted basis functions of A   symmetry.
   275 basis functions,   504 primitive gaussians,   275 cartesian basis functions
    64 alpha electrons       64 beta electrons
       nuclear repulsion energy      1270.4765710242 Hartrees.
 NAtoms=   21 NActive=   21 NUniq=   21 SFac= 1.00D+00 NAtFMM=   60 NAOKFM=F Big=F
 Integral buffers will be    131072 words long.
 Raffenetti 2 integral format.
 Two-electron integral symmetry is turned on.
 Nuclear repulsion after empirical dispersion term =     1270.4367255985 Hartrees.
 One-electron integrals computed using PRISM.
 NBasis=   275 RedAO= T EigKep=  3.95D-04  NBF=   275
 NBsUse=   275 1.00D-06 EigRej= -1.00D+00 NBFU=   275
 ExpMin= 1.61D-01 ExpMax= 7.00D+03 ExpMxC= 1.05D+03 IAcc=3 IRadAn=         5 AccDes= 0.00D+00
 Harris functional with IExCor=  402 and IRadAn=       5 diagonalized for initial guess.
 HarFok:  IExCor=  402 AccDes= 0.00D+00 IRadAn=         5 IDoV= 1 UseB2=F ITyADJ=14
 ICtDFT=  3500011 ScaDFX=  1.000000  1.000000  1.000000  1.000000
 FoFCou: FMM=F IPFlag=           0 FMFlag=      100000 FMFlg1=           0
         NFxFlg=           0 DoJE=T BraDBF=F KetDBF=T FulRan=T
         wScrn=  0.000000 ICntrl=       500 IOpCl=  0 I1Cent=   200000004 NGrid=           0
         NMat0=    1 NMatS0=      1 NMatT0=    0 NMatD0=    1 NMtDS0=    0 NMtDT0=    0
 Petite list used in FoFCou.
 Requested convergence on RMS density matrix=1.00D-08 within 128 cycles.
 Requested convergence on MAX density matrix=1.00D-06.
 Requested convergence on             energy=1.00D-06.
 No special actions if energy rises.
 Integral accuracy reduced to 1.0D-05 until final iterations.
 Initial convergence to 1.0D-05 achieved.  Increase integral accuracy.
 SCF Done:  E(RB3LYP) =  -1094.94228541     A.U. after   14 cycles
            NFock= 14  Conv=0.59D-08     -V/T= 2.0077

 **********************************************************************

            Population analysis using the SCF Density.

 **********************************************************************

 Orbital symmetries:
       Occupied  (A) (A) (A) (A) (A) (A) (A) (A) (A) (A) (A) (A)
                 (A) (A) (A) (A) (A) (A) (A) (A) (A) (A) (A) (A)
                 (A) (A) (A) (A) (A) (A) (A) (A) (A) (A) (A) (A)
                 (A) (A) (A) (A) (A) (A) (A) (A) (A) (A) (A) (A)
                 (A) (A) (A) (A) (A) (A) (A) (A) (A) (A) (A) (A)
                 (A) (A) (A) (A)
       Virtual   (A) (A) (A) (A) (A) (A) (A) (A) (A) (A) (A) (A)
                 (A) (A) (A) (A) (A) (A) (A) (A) (A) (A) (A) (A)
                 (A) (A) (A) (A) (A) (A) (A) (A) (A) (A) (A) (A)
                 (A) (A) (A) (A) (A) (A) (A) (A) (A) (A) (A) (A)
                 (A) (A) (A) (A) (A) (A) (A) (A) (A) (A) (A) (A)
                 (A) (A) (A) (A) (A) (A) (A) (A) (A) (A) (A) (A)
                 (A) (A) (A) (A) (A) (A) (A) (A) (A) (A) (A) (A)
                 (A) (A) (A) (A) (A) (A) (A) (A) (A) (A) (A) (A)
                 (A) (A) (A) (A) (A) (A) (A) (A) (A) (A) (A) (A)
                 (A) (A) (A) (A) (A) (A) (A) (A) (A) (A) (A) (A)
                 (A) (A) (A) (A) (A) (A) (A) (A) (A) (A) (A) (A)
                 (A) (A) (A) (A) (A) (A) (A) (A) (A) (A) (A) (A)
                 (A) (A) (A) (A) (A) (A) (A) (A) (A) (A) (A) (A)
                 (A) (A) (A) (A) (A) (A) (A) (A) (A) (A) (A) (A)
                 (A) (A) (A) (A) (A) (A) (A) (A) (A) (A) (A) (A)
                 (A) (A) (A) (A) (A) (A) (A) (A) (A) (A) (A) (A)
                 (A) (A) (A) (A) (A) (A) (A) (A) (A) (A) (A) (A)
                 (A) (A) (A) (A) (A) (A) (A)
 The electronic state is 1-A.
 Alpha  occ. eigenvalues --  -24.74152 -24.73977 -24.73463 -24.73453 -24.73370
 Alpha  occ. eigenvalues --  -24.73299 -19.21702 -19.15833 -10.44835 -10.44705
 Alpha  occ. eigenvalues --  -10.34327 -10.24343 -10.24289 -10.24198 -10.23961
 Alpha  occ. eigenvalues --  -10.23779 -10.23564  -1.31517  -1.31384  -1.23013
 Alpha  occ. eigenvalues --   -1.22872  -1.22446  -1.22319  -1.12593  -1.03469
 Alpha  occ. eigenvalues --   -0.91060  -0.82311  -0.81614  -0.72041  -0.71715
 Alpha  occ. eigenvalues --   -0.69437  -0.64974  -0.63360  -0.60021  -0.59625
 Alpha  occ. eigenvalues --   -0.59262  -0.59128  -0.58207  -0.54376  -0.53156
 Alpha  occ. eigenvalues --   -0.51479  -0.49920  -0.48522  -0.47135  -0.46878
 Alpha  occ. eigenvalues --   -0.46751  -0.46696  -0.46481  -0.43702  -0.43429
 Alpha  occ. eigenvalues --   -0.43218  -0.43130  -0.42540  -0.42209  -0.41410
 Alpha  occ. eigenvalues --   -0.41024  -0.40883  -0.39780  -0.38871  -0.37559
 Alpha  occ. eigenvalues --   -0.33971  -0.29832  -0.29824  -0.29402
 Alpha virt. eigenvalues --   -0.07930  -0.05341   0.01712   0.06086   0.10120
 Alpha virt. eigenvalues --    0.11638   0.12222   0.13839   0.14171   0.15213
 Alpha virt. eigenvalues --    0.19412   0.20051   0.20389   0.21332   0.22297
 Alpha virt. eigenvalues --    0.23596   0.24854   0.26020   0.26560   0.31491
 Alpha virt. eigenvalues --    0.32219   0.36835   0.42972   0.43544   0.45458
 Alpha virt. eigenvalues --    0.45539   0.47062   0.48802   0.49460   0.50422
 Alpha virt. eigenvalues --    0.51657   0.52775   0.54240   0.54395   0.56304
 Alpha virt. eigenvalues --    0.57528   0.59749   0.60091   0.60419   0.61711
 Alpha virt. eigenvalues --    0.66969   0.69371   0.70268   0.71692   0.71966
 Alpha virt. eigenvalues --    0.72124   0.74957   0.76050   0.76686   0.78065
 Alpha virt. eigenvalues --    0.78483   0.85446   0.86122   0.87735   0.90724
 Alpha virt. eigenvalues --    0.91979   0.93116   0.98011   1.00670   1.01712
 Alpha virt. eigenvalues --    1.03341   1.05348   1.05573   1.05899   1.07191
 Alpha virt. eigenvalues --    1.08547   1.10350   1.11464   1.12295   1.12787
 Alpha virt. eigenvalues --    1.14435   1.18484   1.20028   1.21747   1.22975
 Alpha virt. eigenvalues --    1.27057   1.27616   1.30900   1.31034   1.31702
 Alpha virt. eigenvalues --    1.32249   1.32555   1.32989   1.34711   1.35017
 Alpha virt. eigenvalues --    1.35470   1.36497   1.36875   1.37026   1.37524
 Alpha virt. eigenvalues --    1.37994   1.39260   1.41768   1.44082   1.47177
 Alpha virt. eigenvalues --    1.50065   1.54475   1.54768   1.56708   1.59635
 Alpha virt. eigenvalues --    1.61043   1.63416   1.64824   1.65718   1.69070
 Alpha virt. eigenvalues --    1.69803   1.70773   1.71642   1.72927   1.74453
 Alpha virt. eigenvalues --    1.74899   1.76368   1.81637   1.81893   1.82732
 Alpha virt. eigenvalues --    1.84293   1.84399   1.84664   1.84810   1.86540
 Alpha virt. eigenvalues --    1.87521   1.88621   1.94604   1.95459   1.95567
 Alpha virt. eigenvalues --    1.96308   1.96662   1.97691   1.98037   1.98246
 Alpha virt. eigenvalues --    1.99258   2.00570   2.03145   2.03612   2.04445
 Alpha virt. eigenvalues --    2.04804   2.05456   2.05600   2.07101   2.09509
 Alpha virt. eigenvalues --    2.10155   2.10795   2.14915   2.16332   2.20579
 Alpha virt. eigenvalues --    2.22091   2.24656   2.28531   2.30896   2.34218
 Alpha virt. eigenvalues --    2.35483   2.36540   2.36732   2.40178   2.40541
 Alpha virt. eigenvalues --    2.42018   2.48720   2.49485   2.52337   2.52542
 Alpha virt. eigenvalues --    2.53179   2.57512   2.59257   2.60931   2.62829
 Alpha virt. eigenvalues --    2.65072   2.66574   2.70853   2.71412   2.71951
 Alpha virt. eigenvalues --    2.75555   2.75905   2.77054   2.79376   2.80500
 Alpha virt. eigenvalues --    2.82599   2.86929   2.89641   2.94115   3.00520
 Alpha virt. eigenvalues --    3.01587   3.01955   3.02176   3.06001   3.07003
 Alpha virt. eigenvalues --    3.07921   3.14115   3.16407   3.20064   3.31848
 Alpha virt. eigenvalues --    3.38137   3.39203   3.43097   3.72953   3.93132
 Alpha virt. eigenvalues --    4.07862   4.08206   4.09568   4.24043   4.25856
 Alpha virt. eigenvalues --    4.28586   4.30811   4.33521   4.44913   4.53276
 Alpha virt. eigenvalues --    4.55782   4.70283   4.85848   4.88935   5.50797
 Alpha virt. eigenvalues --    5.72370
          Condensed to atoms (all electrons):
               1          2          3          4          5          6
     1  O    8.123187   0.268690  -0.093640   0.004371  -0.000050   0.000000
     2  C    0.268690   4.401102   0.276154  -0.038863   0.007121  -0.000172
     3  C   -0.093640   0.276154   5.106373   0.457547  -0.022524   0.004565
     4  C    0.004371  -0.038863   0.457547   5.056995   0.449720  -0.028795
     5  C   -0.000050   0.007121  -0.022524   0.449720   5.208993   0.282823
     6  C    0.000000  -0.000172   0.004565  -0.028795   0.282823   4.097028
     7  F   -0.000000   0.000000  -0.000046   0.000974  -0.053911   0.285106
     8  F   -0.000000   0.000000  -0.000046   0.001450  -0.054081   0.283294
     9  F   -0.000000  -0.000011   0.001052   0.003746  -0.047599   0.292532
    10  C    0.000004   0.001214  -0.027125  -0.067501   0.419156  -0.017281
    11  C    0.000377   0.003777  -0.016349  -0.034762  -0.012915   0.004087
    12  C   -0.000009  -0.000135   0.004348   0.000730   0.003966  -0.000116
    13  F   -0.000000   0.000000  -0.000049  -0.000003   0.000326  -0.000000
    14  F    0.000000  -0.000008   0.001077   0.000003  -0.000048   0.000000
    15  F   -0.000000   0.000000  -0.000049  -0.000003   0.000339  -0.000000
    16  C   -0.000347  -0.030208   0.435690  -0.085950  -0.033612   0.000742
    17  O   -0.090053   0.575151  -0.091774   0.001871   0.001148  -0.000008
    18  H    0.275079  -0.014101   0.011828  -0.000254  -0.000000  -0.000000
    19  H    0.000314  -0.008853  -0.034980   0.368059  -0.042927  -0.006096
    20  H    0.000000   0.000010   0.000421   0.004345  -0.043251  -0.002912
    21  H    0.009638  -0.009487  -0.029602   0.005171   0.000111   0.000006
               7          8          9         10         11         12
     1  O   -0.000000  -0.000000  -0.000000   0.000004   0.000377  -0.000009
     2  C    0.000000   0.000000  -0.000011   0.001214   0.003777  -0.000135
     3  C   -0.000046  -0.000046   0.001052  -0.027125  -0.016349   0.004348
     4  C    0.000974   0.001450   0.003746  -0.067501  -0.034762   0.000730
     5  C   -0.053911  -0.054081  -0.047599   0.419156  -0.012915   0.003966
     6  C    0.285106   0.283294   0.292532  -0.017281   0.004087  -0.000116
     7  F    9.102360  -0.040053  -0.037693   0.003733   0.000278  -0.000000
     8  F   -0.040053   9.103161  -0.037338   0.004648   0.000396  -0.000000
     9  F   -0.037693  -0.037338   9.076432   0.003383  -0.000047   0.000000
    10  C    0.003733   0.004648   0.003383   5.037869   0.422989  -0.017430
    11  C    0.000278   0.000396  -0.000047   0.422989   5.187064   0.284568
    12  C   -0.000000  -0.000000   0.000000  -0.017430   0.284568   4.098541
    13  F    0.000000  -0.000000  -0.000000   0.004153  -0.054060   0.284459
    14  F   -0.000000  -0.000000  -0.000000   0.003400  -0.047377   0.290515
    15  F   -0.000000   0.000000  -0.000000   0.004259  -0.054033   0.284141
    16  C   -0.000004  -0.000003   0.000003  -0.069799   0.466381  -0.028359
    17  O   -0.000000  -0.000000   0.000000   0.000001  -0.000083   0.000000
    18  H    0.000000   0.000000  -0.000000   0.000001   0.000007  -0.000000
    19  H    0.000153   0.000143   0.008974   0.004641   0.000123   0.000007
    20  H    0.001609   0.002453   0.000083   0.374886  -0.043187  -0.002877
    21  H   -0.000000  -0.000000  -0.000000   0.004775  -0.045207  -0.006463
              13         14         15         16         17         18
     1  O   -0.000000   0.000000  -0.000000  -0.000347  -0.090053   0.275079
     2  C    0.000000  -0.000008   0.000000  -0.030208   0.575151  -0.014101
     3  C   -0.000049   0.001077  -0.000049   0.435690  -0.091774   0.011828
     4  C   -0.000003   0.000003  -0.000003  -0.085950   0.001871  -0.000254
     5  C    0.000326  -0.000048   0.000339  -0.033612   0.001148  -0.000000
     6  C   -0.000000   0.000000  -0.000000   0.000742  -0.000008  -0.000000
     7  F    0.000000  -0.000000  -0.000000  -0.000004  -0.000000   0.000000
     8  F   -0.000000  -0.000000   0.000000  -0.000003  -0.000000   0.000000
     9  F   -0.000000  -0.000000  -0.000000   0.000003   0.000000  -0.000000
    10  C    0.004153   0.003400   0.004259  -0.069799   0.000001   0.000001
    11  C   -0.054060  -0.047377  -0.054033   0.466381  -0.000083   0.000007
    12  C    0.284459   0.290515   0.284141  -0.028359   0.000000  -0.000000
    13  F    9.102186  -0.037544  -0.040060   0.001126  -0.000000   0.000000
    14  F   -0.037544   9.079893  -0.037485   0.003511  -0.000000   0.000000
    15  F   -0.040060  -0.037485   9.102347   0.001182  -0.000000   0.000000
    16  C    0.001126   0.003511   0.001182   5.057288   0.003981  -0.000609
    17  O   -0.000000  -0.000000  -0.000000   0.003981   8.042874   0.008473
    18  H    0.000000   0.000000   0.000000  -0.000609   0.008473   0.388009
    19  H   -0.000000  -0.000000  -0.000000   0.005319   0.013569  -0.000028
    20  H    0.001945   0.000083   0.002051   0.004436  -0.000000   0.000000
    21  H    0.000167   0.009714   0.000166   0.369214   0.000117  -0.000310
              19         20         21
     1  O    0.000314   0.000000   0.009638
     2  C   -0.008853   0.000010  -0.009487
     3  C   -0.034980   0.000421  -0.029602
     4  C    0.368059   0.004345   0.005171
     5  C   -0.042927  -0.043251   0.000111
     6  C   -0.006096  -0.002912   0.000006
     7  F    0.000153   0.001609  -0.000000
     8  F    0.000143   0.002453  -0.000000
     9  F    0.008974   0.000083  -0.000000
    10  C    0.004641   0.374886   0.004775
    11  C    0.000123  -0.043187  -0.045207
    12  C    0.000007  -0.002877  -0.006463
    13  F   -0.000000   0.001945   0.000167
    14  F   -0.000000   0.000083   0.009714
    15  F   -0.000000   0.002051   0.000166
    16  C    0.005319   0.004436   0.369214
    17  O    0.013569  -0.000000   0.000117
    18  H   -0.000028   0.000000  -0.000310
    19  H    0.543263  -0.000132  -0.000137
    20  H   -0.000132   0.562000  -0.000136
    21  H   -0.000137  -0.000136   0.548250
 Mulliken charges:
               1
     1  O   -0.497564
     2  C    0.568617
     3  C    0.017130
     4  C   -0.098850
     5  C   -0.062787
     6  C    0.805196
     7  F   -0.262508
     8  F   -0.264023
     9  F   -0.263517
    10  C   -0.089978
    11  C   -0.062027
    12  C    0.804115
    13  F   -0.262645
    14  F   -0.265735
    15  F   -0.262856
    16  C   -0.099983
    17  O   -0.465266
    18  H    0.331906
    19  H    0.148589
    20  H    0.138174
    21  H    0.144013
 Sum of Mulliken charges =  -0.00000
 Mulliken charges with hydrogens summed into heavy atoms:
               1
     1  O   -0.165658
     2  C    0.568617
     3  C    0.017130
     4  C    0.049739
     5  C   -0.062787
     6  C    0.805196
     7  F   -0.262508
     8  F   -0.264023
     9  F   -0.263517
    10  C    0.048196
    11  C   -0.062027
    12  C    0.804115
    13  F   -0.262645
    14  F   -0.265735
    15  F   -0.262856
    16  C    0.044030
    17  O   -0.465266
 Electronic spatial extent (au):  <R**2>=           4389.8908
 Charge=             -0.0000 electrons
 Dipole moment (field-independent basis, Debye):
    X=              1.4521    Y=              1.4262    Z=             -0.0039  Tot=              2.0353
 Quadrupole moment (field-independent basis, Debye-Ang):
   XX=            -97.7877   YY=            -87.1868   ZZ=            -91.3534
   XY=              8.1612   XZ=              0.0269   YZ=              0.0081
 Traceless Quadrupole moment (field-independent basis, Debye-Ang):
   XX=             -5.6784   YY=              4.9225   ZZ=              0.7559
   XY=              8.1612   XZ=              0.0269   YZ=              0.0081
 Octapole moment (field-independent basis, Debye-Ang**2):
  XXX=              1.0647  YYY=              1.4953  ZZZ=             -0.1430  XYY=             38.7221
  XXY=              1.8759  XXZ=             -0.0469  XZZ=             -0.4919  YZZ=             -6.7672
  YYZ=              0.1171  XYZ=             -0.1041
 Hexadecapole moment (field-independent basis, Debye-Ang**3):
 XXXX=          -2359.7681 YYYY=          -1895.7885 ZZZZ=           -203.0255 XXXY=             -0.6278
 XXXZ=              0.0256 YYYX=            210.6007 YYYZ=             -0.2489 ZZZX=              0.4499
 ZZZY=              0.1426 XXYY=           -758.7126 XXZZ=           -422.5212 YYZZ=           -394.5885
 XXYZ=              0.3549 YYXZ=             -0.1394 ZZXY=             -2.0212
 N-N= 1.270436725598D+03 E-N=-5.123254894576D+03  KE= 1.086578099299D+03
 Calling FoFJK, ICntrl=      2127 FMM=F ISym2X=0 I1Cent= 0 IOpClX= 0 NMat=1 NMatS=1 NMatT=0.
 ***** Axes restored to original set *****
 -------------------------------------------------------------------
 Center     Atomic                   Forces (Hartrees/Bohr)
 Number     Number              X              Y              Z
 -------------------------------------------------------------------
      1        8           0.000144111   -0.000038338    0.000000294
      2        6          -0.000017778   -0.000200389    0.000024129
      3        6           0.000138722    0.000002907   -0.000123129
      4        6           0.000027703    0.000106302   -0.000110889
      5        6          -0.000141131   -0.000049698    0.000498307
      6        6           0.000250791    0.000021003   -0.000172597
      7        9           0.000054421    0.000008312    0.000028299
      8        9          -0.000114013   -0.000024516   -0.000086001
      9        9          -0.000108116   -0.000014947   -0.000096406
     10        6          -0.000033802    0.000097129   -0.000127161
     11        6           0.000072870   -0.000080998   -0.000130103
     12        6          -0.000159452   -0.000063088    0.000034588
     13        9           0.000029516    0.000023860   -0.000138849
     14        9           0.000048444    0.000004832   -0.000007016
     15        9           0.000039054    0.000026523    0.000124765
     16        6          -0.000064722    0.000059498    0.000031092
     17        8          -0.000121386    0.000059484   -0.000003272
     18        1          -0.000041564    0.000176879   -0.000008180
     19        1          -0.000029286   -0.000046413    0.000105082
     20        1           0.000019799   -0.000041188    0.000134110
     21        1           0.000005818   -0.000027151    0.000022939
 -------------------------------------------------------------------
 Cartesian Forces:  Max     0.000498307 RMS     0.000109435

 GradGradGradGradGradGradGradGradGradGradGradGradGradGradGradGradGradGrad
 Berny optimization.
 FormGI is forming the generalized inverse of G from B-inverse, IUseBI=4.
 Internal  Forces:  Max     0.000199160 RMS     0.000062248
 Search for a local minimum.
 Step number   1 out of a maximum of  107
 All quantities printed in internal units (Hartrees-Bohrs-Radians)
 Mixed Optimization -- En-DIIS/RFO-DIIS
 Second derivative matrix not updated -- first step.
 ITU=  0
     Eigenvalues ---    0.00688   0.00689   0.00913   0.01369   0.01562
     Eigenvalues ---    0.01603   0.01757   0.02124   0.02149   0.02156
     Eigenvalues ---    0.02159   0.02170   0.02180   0.02312   0.10720
     Eigenvalues ---    0.10723   0.11000   0.11020   0.16000   0.16000
     Eigenvalues ---    0.16000   0.16000   0.23482   0.23487   0.23500
     Eigenvalues ---    0.25000   0.25000   0.25000   0.25000   0.25000
     Eigenvalues ---    0.25000   0.25000   0.25000   0.25000   0.25000
     Eigenvalues ---    0.25000   0.31770   0.31773   0.33576   0.35456
     Eigenvalues ---    0.35659   0.35786   0.42192   0.42596   0.46127
     Eigenvalues ---    0.46232   0.46590   0.47011   0.53107   0.54365
     Eigenvalues ---    0.54709   0.54712   0.54739   0.54744   0.55521
     Eigenvalues ---    0.55742   0.98562
 RFO step:  Lambda=-6.17825379D-06 EMin= 6.88390945D-03
 Linear search not attempted -- first point.
 Iteration  1 RMS(Cart)=  0.00280578 RMS(Int)=  0.00000416
 Iteration  2 RMS(Cart)=  0.00000661 RMS(Int)=  0.00000118
 Iteration  3 RMS(Cart)=  0.00000000 RMS(Int)=  0.00000118
 Variable       Old X    -DE/DX   Delta X   Delta X   Delta X     New X
                                 (Linear)    (Quad)   (Total)
    R1        2.55701  -0.00005   0.00000  -0.00009  -0.00009   2.55692
    R2        1.83554   0.00017   0.00000   0.00033   0.00033   1.83586
    R3        2.81352  -0.00000   0.00000  -0.00001  -0.00001   2.81352
    R4        2.29220  -0.00006   0.00000  -0.00006  -0.00006   2.29214
    R5        2.64178  -0.00005   0.00000  -0.00011  -0.00011   2.64167
    R6        2.64137   0.00007   0.00000   0.00015   0.00015   2.64152
    R7        2.62857   0.00003   0.00000   0.00007   0.00007   2.62864
    R8        2.04619  -0.00006   0.00000  -0.00016  -0.00016   2.04603
    R9        2.84567   0.00008   0.00000   0.00025   0.00025   2.84592
   R10        2.63691  -0.00003   0.00000  -0.00008  -0.00008   2.63683
   R11        2.55391  -0.00002   0.00000  -0.00004  -0.00004   2.55387
   R12        2.55389  -0.00007   0.00000  -0.00012  -0.00012   2.55377
   R13        2.54478  -0.00009   0.00000  -0.00017  -0.00017   2.54461
   R14        2.63514  -0.00004   0.00000  -0.00009  -0.00009   2.63506
   R15        2.04941   0.00005   0.00000   0.00014   0.00014   2.04955
   R16        2.84561   0.00004   0.00000   0.00013   0.00013   2.84574
   R17        2.63218   0.00006   0.00000   0.00013   0.00013   2.63231
   R18        2.55365  -0.00013   0.00000  -0.00024  -0.00024   2.55341
   R19        2.54672  -0.00004   0.00000  -0.00007  -0.00007   2.54666
   R20        2.55360  -0.00012   0.00000  -0.00021  -0.00021   2.55339
   R21        2.04417  -0.00002   0.00000  -0.00005  -0.00005   2.04412
    A1        1.85300   0.00010   0.00000   0.00064   0.00064   1.85364
    A2        1.96724   0.00013   0.00000   0.00050   0.00050   1.96774
    A3        2.14476  -0.00020   0.00000  -0.00080  -0.00080   2.14396
    A4        2.17119   0.00007   0.00000   0.00029   0.00029   2.17149
    A5        2.05406   0.00003   0.00000   0.00010   0.00010   2.05417
    A6        2.12991  -0.00002   0.00000  -0.00007  -0.00007   2.12984
    A7        2.09921  -0.00001   0.00000  -0.00003  -0.00003   2.09918
    A8        2.08921  -0.00001   0.00000  -0.00005  -0.00004   2.08917
    A9        2.07864   0.00003   0.00000   0.00018   0.00018   2.07881
   A10        2.11534  -0.00002   0.00000  -0.00013  -0.00013   2.11520
   A11        2.11397  -0.00010   0.00000  -0.00040  -0.00041   2.11356
   A12        2.10062   0.00003   0.00000   0.00012   0.00011   2.10073
   A13        2.06860   0.00007   0.00000   0.00028   0.00027   2.06887
   A14        1.93873   0.00010   0.00000   0.00027   0.00027   1.93899
   A15        1.93867  -0.00011   0.00000  -0.00035  -0.00035   1.93832
   A16        1.95822  -0.00008   0.00000  -0.00026  -0.00026   1.95797
   A17        1.86444  -0.00003   0.00000  -0.00026  -0.00026   1.86418
   A18        1.87986  -0.00004   0.00000  -0.00031  -0.00031   1.87954
   A19        1.87994   0.00017   0.00000   0.00093   0.00093   1.88087
   A20        2.08858  -0.00000   0.00000  -0.00002  -0.00002   2.08856
   A21        2.09749  -0.00001   0.00000  -0.00007  -0.00007   2.09741
   A22        2.09712   0.00001   0.00000   0.00010   0.00009   2.09721
   A23        2.06853   0.00002   0.00000   0.00009   0.00009   2.06861
   A24        2.10297  -0.00001   0.00000  -0.00003  -0.00003   2.10294
   A25        2.11168  -0.00001   0.00000  -0.00006  -0.00006   2.11163
   A26        1.93970   0.00000   0.00000  -0.00005  -0.00005   1.93965
   A27        1.95777  -0.00003   0.00000   0.00000   0.00000   1.95778
   A28        1.93969  -0.00000   0.00000  -0.00008  -0.00008   1.93960
   A29        1.87883   0.00005   0.00000   0.00031   0.00031   1.87914
   A30        1.86480  -0.00006   0.00000  -0.00047  -0.00047   1.86434
   A31        1.87899   0.00005   0.00000   0.00029   0.00029   1.87928
   A32        2.08578  -0.00000   0.00000   0.00002   0.00002   2.08579
   A33        2.09701   0.00002   0.00000   0.00013   0.00014   2.09715
   A34        2.10040  -0.00002   0.00000  -0.00015  -0.00015   2.10025
    D1       -3.14155   0.00000   0.00000   0.00015   0.00015  -3.14139
    D2       -0.00000  -0.00000   0.00000  -0.00005  -0.00005  -0.00005
    D3        3.14146   0.00001   0.00000   0.00051   0.00051  -3.14122
    D4        0.00003  -0.00001   0.00000  -0.00027  -0.00027  -0.00023
    D5       -0.00008   0.00001   0.00000   0.00071   0.00071   0.00063
    D6       -3.14151  -0.00000   0.00000  -0.00006  -0.00006  -3.14157
    D7       -3.14155   0.00000   0.00000  -0.00033  -0.00033   3.14131
    D8        0.00008   0.00000   0.00000  -0.00014  -0.00014  -0.00006
    D9       -0.00011   0.00002   0.00000   0.00043   0.00043   0.00032
   D10        3.14151   0.00002   0.00000   0.00062   0.00062  -3.14106
   D11        3.14150   0.00001   0.00000   0.00026   0.00026  -3.14142
   D12       -0.00005  -0.00000   0.00000  -0.00009  -0.00009  -0.00014
   D13        0.00007  -0.00000   0.00000  -0.00053  -0.00053  -0.00045
   D14       -3.14147  -0.00002   0.00000  -0.00089  -0.00089   3.14083
   D15        3.14134  -0.00013   0.00000  -0.00688  -0.00687   3.13447
   D16        0.00011  -0.00003   0.00000  -0.00036  -0.00036  -0.00025
   D17       -0.00028  -0.00013   0.00000  -0.00707  -0.00707  -0.00735
   D18       -3.14151  -0.00003   0.00000  -0.00056  -0.00056   3.14112
   D19       -2.05124   0.00006   0.00000   0.00472   0.00472  -2.04652
   D20        2.15933   0.00010   0.00000   0.00509   0.00509   2.16443
   D21        0.05401   0.00002   0.00000   0.00433   0.00433   0.05834
   D22        1.09000  -0.00004   0.00000  -0.00168  -0.00168   1.08832
   D23       -0.98261   0.00000   0.00000  -0.00130  -0.00130  -0.98391
   D24       -3.08794  -0.00008   0.00000  -0.00207  -0.00207  -3.09001
   D25       -0.00007   0.00003   0.00000   0.00040   0.00040   0.00032
   D26        3.14137   0.00004   0.00000   0.00135   0.00135  -3.14046
   D27       -3.14131   0.00013   0.00000   0.00674   0.00674  -3.13457
   D28        0.00013   0.00014   0.00000   0.00769   0.00769   0.00783
   D29       -3.14075   0.00000   0.00000   0.00051   0.00051  -3.14024
   D30        0.00003  -0.00001   0.00000  -0.00050  -0.00050  -0.00046
   D31        0.00099  -0.00002   0.00000  -0.00044  -0.00044   0.00055
   D32       -3.14141  -0.00003   0.00000  -0.00145  -0.00145   3.14032
   D33        1.04272  -0.00004   0.00000  -0.00025  -0.00025   1.04247
   D34       -3.13616  -0.00000   0.00000   0.00011   0.00011  -3.13604
   D35       -1.03165   0.00003   0.00000   0.00043   0.00043  -1.03122
   D36       -2.09805  -0.00003   0.00000   0.00076   0.00076  -2.09729
   D37        0.00625   0.00001   0.00000   0.00113   0.00113   0.00738
   D38        2.11076   0.00005   0.00000   0.00144   0.00144   2.11220
   D39       -0.00003   0.00000   0.00000   0.00056   0.00056   0.00053
   D40        3.14151   0.00002   0.00000   0.00092   0.00092  -3.14075
   D41        3.14073  -0.00001   0.00000  -0.00047  -0.00047   3.14026
   D42       -0.00091   0.00000   0.00000  -0.00011  -0.00011  -0.00103
         Item               Value     Threshold  Converged?
 Maximum Force            0.000199     0.000450     YES
 RMS     Force            0.000062     0.000300     YES
 Maximum Displacement     0.009602     0.001800     NO 
 RMS     Displacement     0.002806     0.001200     NO 
 Predicted change in Energy=-3.089089D-06
 GradGradGradGradGradGradGradGradGradGradGradGradGradGradGradGradGradGrad

                          Input orientation:                          
 ---------------------------------------------------------------------
 Center     Atomic      Atomic             Coordinates (Angstroms)
 Number     Number       Type             X           Y           Z
 ---------------------------------------------------------------------
      1          8           0       -1.395614    3.635697   -0.123096
      2          6           0       -0.134940    3.144314   -0.128513
      3          6           0       -0.096381    1.657543   -0.059962
      4          6           0        1.157484    1.039503   -0.058846
      5          6           0        1.242147   -0.347496    0.004369
      6          6           0        2.576102   -1.046455   -0.001697
      7          9           0        2.706616   -1.836001   -1.090736
      8          9           0        2.710083   -1.846355    1.079266
      9          9           0        3.605156   -0.177981   -0.000248
     10          6           0        0.083648   -1.122725    0.066827
     11          6           0       -1.164157   -0.500339    0.065284
     12          6           0       -2.397426   -1.361663    0.135273
     13          9           0       -2.407205   -2.107893    1.261686
     14          9           0       -3.529671   -0.631002    0.118898
     15          9           0       -2.449810   -2.222796   -0.904649
     16          6           0       -1.261505    0.887791    0.002468
     17          8           0        0.847326    3.853760   -0.183993
     18          1           0       -1.310073    4.602268   -0.170337
     19          1           0        2.047606    1.654000   -0.107280
     20          1           0        0.153272   -2.203896    0.117081
     21          1           0       -2.230758    1.368028    0.002203
 ---------------------------------------------------------------------
                    Distance matrix (angstroms):
                    1          2          3          4          5
     1  O    0.000000
     2  C    1.353065   0.000000
     3  C    2.367506   1.488849   0.000000
     4  C    3.641794   2.470919   1.397910   0.000000
     5  C    4.779106   3.755897   2.411634   1.391018   0.000000
     6  C    6.140994   4.992832   3.802258   2.523284   1.505993
     7  F    6.906815   5.814108   4.596101   3.425366   2.357874
     8  F    6.953799   5.870235   4.631564   3.469011   2.357290
     9  F    6.290225   5.004240   4.132081   2.734374   2.369087
    10  C    4.986669   4.277097   2.788975   2.417468   1.395350
    11  C    4.146789   3.792142   2.410869   2.788645   2.411922
    12  C    5.103331   5.048985   3.801122   4.294260   3.780497
    13  F    5.994144   5.889102   4.611418   4.935273   4.242359
    14  F    4.776764   5.083150   4.130001   4.979117   4.781603
    15  F    6.003674   5.896345   4.616185   4.936654   4.239529
    16  C    2.754041   2.525510   1.397831   2.424518   2.791812
    17  O    2.254338   1.212947   2.393603   2.834061   4.223970
    18  H    0.971498   1.873050   3.186947   4.335269   5.571760
    19  H    3.972800   2.642914   2.144512   1.082713   2.160374
    20  H    6.046287   5.361598   3.873550   3.399858   2.155127
    21  H    2.419812   2.750406   2.154820   3.404680   3.873512
                    6          7          8          9         10
     6  C    0.000000
     7  F    1.351452   0.000000
     8  F    1.351396   2.170029   0.000000
     9  F    1.346552   2.178433   2.179445   0.000000
    10  C    2.494562   2.954433   2.906343   3.646651   0.000000
    11  C    3.780511   4.254792   4.224885   4.780644   1.394411
    12  C    4.985388   5.270610   5.216579   6.119678   2.493492
    13  F    5.249394   5.635510   5.127213   6.439373   2.933017
    14  F    6.121078   6.465795   6.429145   7.150187   3.646995
    15  F    5.240123   5.174260   5.540949   6.454598   2.927854
    16  C    4.297506   4.935598   4.940502   4.981995   2.419867
    17  O    5.199424   6.054133   6.128377   4.888182   5.040984
    18  H    6.858488   7.644098   7.701162   6.858512   5.896970
    19  H    2.753709   3.685321   3.754897   2.406984   3.405532
    20  H    2.687728   2.848462   2.755162   4.004198   1.084575
    21  H    5.379186   5.986483   5.992014   6.037222   3.400662
                   11         12         13         14         15
    11  C    0.000000
    12  C    1.505898   0.000000
    13  F    2.358130   1.351208   0.000000
    14  F    2.369726   1.347632   2.178784   0.000000
    15  F    2.358078   1.351196   2.169798   2.178889   0.000000
    16  C    1.392957   2.523489   3.445632   2.732190   3.451185
    17  O    4.802748   6.150690   6.944298   6.273989   6.950898
    18  H    5.110128   6.069943   6.948428   5.691870   6.958428
    19  H    3.871224   5.376929   5.989261   6.031451   5.991001
    20  H    2.154161   2.686214   2.806310   4.004755   2.796485
    21  H    2.152304   2.738010   3.701278   2.386820   3.710038
                   16         17         18         19         20
    16  C    0.000000
    17  O    3.644024   0.000000
    18  H    3.718812   2.283598   0.000000
    19  H    3.398432   2.507090   4.468810   0.000000
    20  H    3.401950   6.104716   6.967629   4.303743   0.000000
    21  H    1.081702   3.960825   3.367156   4.289308   4.295979
                   21
    21  H    0.000000
 Stoichiometry    C9H4F6O2
 Framework group  C1[X(C9H4F6O2)]
 Deg. of freedom    57
 Full point group                 C1      NOp   1
 Largest Abelian subgroup         C1      NOp   1
 Largest concise Abelian subgroup C1      NOp   1
                         Standard orientation:                         
 ---------------------------------------------------------------------
 Center     Atomic      Atomic             Coordinates (Angstroms)
 Number     Number       Type             X           Y           Z
 ---------------------------------------------------------------------
      1          8           0        1.392882    3.639047    0.002824
      2          6           0        0.132336    3.147314   -0.000085
      3          6           0        0.095111    1.658931   -0.000866
      4          6           0       -1.158499    1.040381   -0.004284
      5          6           0       -1.241921   -0.348133   -0.005475
      6          6           0       -2.575793   -1.047254    0.000043
      7          9           0       -2.733256   -1.785817    1.120826
      8          9           0       -2.683334   -1.896307   -1.045813
      9          9           0       -3.604287   -0.180689   -0.066793
     10          6           0       -0.082427   -1.124386   -0.003579
     11          6           0        1.165115   -0.501481   -0.000083
     12          6           0        2.399522   -1.364018    0.000105
     13          9           0        2.436829   -2.161427   -1.090083
     14          9           0        3.531200   -0.632372    0.010573
     15          9           0        2.426092   -2.176196    1.079638
     16          6           0        1.261229    0.888155    0.000969
     17          8           0       -0.850823    3.857690   -0.001579
     18          1           0        1.306442    4.606691    0.003283
     19          1           0       -2.049392    1.655666   -0.006168
     20          1           0       -0.151058   -2.206786   -0.005573
     21          1           0        2.230300    1.368756    0.002900
 ---------------------------------------------------------------------
 Rotational constants (GHZ):           0.4534565           0.3744943           0.2211634
 Standard basis: 6-31G(d,p) (6D, 7F)
 There are   275 symmetry adapted cartesian basis functions of A   symmetry.
 There are   275 symmetry adapted basis functions of A   symmetry.
   275 basis functions,   504 primitive gaussians,   275 cartesian basis functions
    64 alpha electrons       64 beta electrons
       nuclear repulsion energy      1270.4756477585 Hartrees.
 NAtoms=   21 NActive=   21 NUniq=   21 SFac= 1.00D+00 NAtFMM=   60 NAOKFM=F Big=F
 Integral buffers will be    131072 words long.
 Raffenetti 2 integral format.
 Two-electron integral symmetry is turned on.
 Nuclear repulsion after empirical dispersion term =     1270.4358031624 Hartrees.
 One-electron integrals computed using PRISM.
 NBasis=   275 RedAO= T EigKep=  3.95D-04  NBF=   275
 NBsUse=   275 1.00D-06 EigRej= -1.00D+00 NBFU=   275
 Initial guess from the checkpoint file:  "Ac3_conf-1-retry-1.chk"
 B after Tr=    -0.000000   -0.000000    0.000000
         Rot=    1.000000    0.000054   -0.000012   -0.000168 Ang=   0.02 deg.
 Requested convergence on RMS density matrix=1.00D-08 within 128 cycles.
 Requested convergence on MAX density matrix=1.00D-06.
 Requested convergence on             energy=1.00D-06.
 No special actions if energy rises.
 SCF Done:  E(RB3LYP) =  -1094.94228880     A.U. after    8 cycles
            NFock=  8  Conv=0.10D-07     -V/T= 2.0077
 Calling FoFJK, ICntrl=      2127 FMM=F ISym2X=0 I1Cent= 0 IOpClX= 0 NMat=1 NMatS=1 NMatT=0.
 ***** Axes restored to original set *****
 -------------------------------------------------------------------
 Center     Atomic                   Forces (Hartrees/Bohr)
 Number     Number              X              Y              Z
 -------------------------------------------------------------------
      1        8          -0.000036774   -0.000049226    0.000008355
      2        6          -0.000059322    0.000025265   -0.000013202
      3        6           0.000015759    0.000026971    0.000042924
      4        6          -0.000009208    0.000040057   -0.000110786
      5        6          -0.000051795   -0.000033036    0.000036740
      6        6           0.000045591    0.000011224   -0.000010416
      7        9          -0.000010659    0.000045184   -0.000008811
      8        9           0.000027818   -0.000019837   -0.000004567
      9        9          -0.000027799   -0.000040814    0.000028669
     10        6           0.000007498    0.000016540   -0.000044291
     11        6           0.000009883    0.000023307    0.000017414
     12        6          -0.000018323   -0.000056291    0.000006589
     13        9          -0.000011948    0.000028905    0.000012962
     14        9           0.000031785   -0.000016338   -0.000002125
     15        9          -0.000007896    0.000020097   -0.000012709
     16        6          -0.000007695    0.000013505   -0.000004778
     17        8           0.000067588   -0.000004151    0.000007990
     18        1           0.000028274   -0.000027702   -0.000000077
     19        1           0.000002955   -0.000004786    0.000028285
     20        1           0.000007531    0.000002609    0.000040045
     21        1          -0.000003263   -0.000001484   -0.000018210
 -------------------------------------------------------------------
 Cartesian Forces:  Max     0.000110786 RMS     0.000030405

 GradGradGradGradGradGradGradGradGradGradGradGradGradGradGradGradGradGrad
 Berny optimization.
 Using GEDIIS/GDIIS optimizer.
 FormGI is forming the generalized inverse of G from B-inverse, IUseBI=4.
 Internal  Forces:  Max     0.000077308 RMS     0.000022486
 Search for a local minimum.
 Step number   2 out of a maximum of  107
 All quantities printed in internal units (Hartrees-Bohrs-Radians)
 Mixed Optimization -- En-DIIS/RFO-DIIS
 Swapping is turned off.
 Update second derivatives using D2CorX and points    1    2
 DE= -3.38D-06 DEPred=-3.09D-06 R= 1.10D+00
 TightC=F SS=  1.41D+00  RLast= 1.72D-02 DXNew= 5.0454D-01 5.1520D-02
 Trust test= 1.10D+00 RLast= 1.72D-02 DXMaxT set to 3.00D-01
 ITU=  1  0
     Eigenvalues ---    0.00588   0.00689   0.00914   0.01362   0.01507
     Eigenvalues ---    0.01588   0.01771   0.01979   0.02131   0.02149
     Eigenvalues ---    0.02164   0.02170   0.02286   0.02312   0.10669
     Eigenvalues ---    0.10722   0.11018   0.11260   0.15983   0.16000
     Eigenvalues ---    0.16000   0.16251   0.23478   0.23490   0.23498
     Eigenvalues ---    0.24882   0.25000   0.25000   0.25000   0.25000
     Eigenvalues ---    0.25000   0.25000   0.25000   0.25000   0.25000
     Eigenvalues ---    0.27274   0.31691   0.31773   0.33662   0.35465
     Eigenvalues ---    0.35667   0.35790   0.42203   0.42605   0.46120
     Eigenvalues ---    0.46219   0.46610   0.46979   0.53331   0.54330
     Eigenvalues ---    0.54663   0.54716   0.54742   0.54841   0.55522
     Eigenvalues ---    0.55676   0.98750
 En-DIIS/RFO-DIIS/Sim-DIIS IScMMF=       -3 using points:     2    1
 RFO step:  Lambda=-1.26969271D-06.
 DidBck=F Rises=F RFO-DIIS coefs:    1.45300   -0.45300
 Iteration  1 RMS(Cart)=  0.00220612 RMS(Int)=  0.00000438
 Iteration  2 RMS(Cart)=  0.00000466 RMS(Int)=  0.00000065
 Iteration  3 RMS(Cart)=  0.00000000 RMS(Int)=  0.00000065
 Variable       Old X    -DE/DX   Delta X   Delta X   Delta X     New X
                                 (Linear)    (Quad)   (Total)
    R1        2.55692  -0.00002  -0.00004  -0.00002  -0.00006   2.55686
    R2        1.83586  -0.00002   0.00015  -0.00014   0.00001   1.83588
    R3        2.81352  -0.00006  -0.00000  -0.00018  -0.00019   2.81333
    R4        2.29214   0.00005  -0.00003   0.00008   0.00005   2.29218
    R5        2.64167  -0.00002  -0.00005  -0.00001  -0.00006   2.64161
    R6        2.64152  -0.00000   0.00007  -0.00005   0.00002   2.64154
    R7        2.62864   0.00002   0.00003   0.00003   0.00007   2.62871
    R8        2.04603  -0.00000  -0.00007   0.00004  -0.00003   2.04600
    R9        2.84592   0.00003   0.00011   0.00005   0.00016   2.84608
   R10        2.63683  -0.00002  -0.00004  -0.00003  -0.00006   2.63676
   R11        2.55387  -0.00002  -0.00002  -0.00003  -0.00005   2.55383
   R12        2.55377   0.00001  -0.00005   0.00005  -0.00000   2.55377
   R13        2.54461  -0.00005  -0.00008  -0.00005  -0.00013   2.54449
   R14        2.63506   0.00000  -0.00004   0.00003  -0.00001   2.63504
   R15        2.04955  -0.00000   0.00006  -0.00004   0.00003   2.04958
   R16        2.84574   0.00002   0.00006   0.00003   0.00009   2.84583
   R17        2.63231  -0.00000   0.00006  -0.00004   0.00002   2.63233
   R18        2.55341  -0.00001  -0.00011   0.00005  -0.00006   2.55336
   R19        2.54666  -0.00004  -0.00003  -0.00005  -0.00008   2.54657
   R20        2.55339  -0.00000  -0.00010   0.00005  -0.00005   2.55334
   R21        2.04412   0.00000  -0.00002   0.00002  -0.00000   2.04412
    A1        1.85364  -0.00006   0.00029  -0.00057  -0.00028   1.85336
    A2        1.96774  -0.00005   0.00023  -0.00037  -0.00015   1.96760
    A3        2.14396   0.00008  -0.00036   0.00055   0.00019   2.14415
    A4        2.17149  -0.00002   0.00013  -0.00018  -0.00005   2.17144
    A5        2.05417   0.00001   0.00005   0.00001   0.00006   2.05422
    A6        2.12984  -0.00002  -0.00003  -0.00007  -0.00010   2.12974
    A7        2.09918   0.00001  -0.00002   0.00006   0.00005   2.09922
    A8        2.08917  -0.00001  -0.00002  -0.00003  -0.00005   2.08912
    A9        2.07881   0.00001   0.00008   0.00002   0.00010   2.07892
   A10        2.11520  -0.00000  -0.00006   0.00001  -0.00005   2.11515
   A11        2.11356  -0.00002  -0.00018   0.00004  -0.00015   2.11341
   A12        2.10073   0.00000   0.00005  -0.00002   0.00003   2.10076
   A13        2.06887   0.00001   0.00012  -0.00001   0.00011   2.06899
   A14        1.93899  -0.00006   0.00012  -0.00034  -0.00022   1.93877
   A15        1.93832   0.00006  -0.00016   0.00042   0.00026   1.93859
   A16        1.95797   0.00002  -0.00012   0.00012   0.00000   1.95797
   A17        1.86418   0.00001  -0.00012   0.00015   0.00003   1.86421
   A18        1.87954   0.00000  -0.00014   0.00003  -0.00012   1.87943
   A19        1.88087  -0.00004   0.00042  -0.00038   0.00004   1.88091
   A20        2.08856   0.00000  -0.00001   0.00002   0.00001   2.08857
   A21        2.09741  -0.00001  -0.00003  -0.00003  -0.00007   2.09735
   A22        2.09721   0.00000   0.00004   0.00001   0.00005   2.09727
   A23        2.06861   0.00000   0.00004  -0.00000   0.00004   2.06865
   A24        2.10294  -0.00000  -0.00001   0.00000  -0.00001   2.10294
   A25        2.11163  -0.00000  -0.00003   0.00000  -0.00003   2.11160
   A26        1.93965   0.00000  -0.00002   0.00005   0.00003   1.93968
   A27        1.95778  -0.00002   0.00000  -0.00015  -0.00015   1.95762
   A28        1.93960   0.00000  -0.00004   0.00007   0.00003   1.93963
   A29        1.87914  -0.00001   0.00014  -0.00019  -0.00005   1.87909
   A30        1.86434   0.00003  -0.00021   0.00040   0.00019   1.86453
   A31        1.87928  -0.00001   0.00013  -0.00016  -0.00003   1.87925
   A32        2.08579  -0.00001   0.00001  -0.00003  -0.00003   2.08577
   A33        2.09715   0.00000   0.00006  -0.00001   0.00005   2.09720
   A34        2.10025   0.00000  -0.00007   0.00004  -0.00002   2.10022
    D1       -3.14139  -0.00000   0.00007  -0.00031  -0.00024   3.14155
    D2       -0.00005   0.00000  -0.00002   0.00038   0.00036   0.00031
    D3       -3.14122  -0.00000   0.00023  -0.00022   0.00001  -3.14121
    D4       -0.00023   0.00000  -0.00012   0.00033   0.00021  -0.00003
    D5        0.00063  -0.00001   0.00032  -0.00093  -0.00061   0.00003
    D6       -3.14157  -0.00000  -0.00003  -0.00038  -0.00041   3.14121
    D7        3.14131  -0.00001  -0.00015  -0.00026  -0.00041   3.14090
    D8       -0.00006   0.00001  -0.00006   0.00055   0.00049   0.00043
    D9        0.00032  -0.00001   0.00020  -0.00080  -0.00061  -0.00029
   D10       -3.14106   0.00000   0.00028   0.00001   0.00029  -3.14077
   D11       -3.14142   0.00001   0.00012   0.00042   0.00054  -3.14088
   D12       -0.00014   0.00001  -0.00004   0.00029   0.00024   0.00011
   D13       -0.00045   0.00002  -0.00024   0.00098   0.00074   0.00029
   D14        3.14083   0.00001  -0.00040   0.00085   0.00045   3.14128
   D15        3.13447  -0.00001  -0.00311   0.00138  -0.00173   3.13274
   D16       -0.00025   0.00000  -0.00016   0.00042   0.00025   0.00000
   D17       -0.00735  -0.00002  -0.00320   0.00056  -0.00265  -0.00999
   D18        3.14112  -0.00001  -0.00025  -0.00041  -0.00066   3.14046
   D19       -2.04652   0.00004   0.00214   0.00371   0.00584  -2.04068
   D20        2.16443   0.00003   0.00231   0.00347   0.00577   2.17020
   D21        0.05834   0.00002   0.00196   0.00358   0.00554   0.06387
   D22        1.08832   0.00003  -0.00076   0.00465   0.00389   1.09221
   D23       -0.98391   0.00002  -0.00059   0.00441   0.00382  -0.98009
   D24       -3.09001   0.00001  -0.00094   0.00453   0.00359  -3.08642
   D25        0.00032  -0.00000   0.00018  -0.00022  -0.00004   0.00028
   D26       -3.14046   0.00002   0.00061   0.00048   0.00109  -3.13938
   D27       -3.13457   0.00001   0.00305  -0.00116   0.00189  -3.13268
   D28        0.00783   0.00003   0.00348  -0.00046   0.00302   0.01085
   D29       -3.14024   0.00000   0.00023   0.00012   0.00035  -3.13988
   D30       -0.00046   0.00000  -0.00023   0.00041   0.00018  -0.00028
   D31        0.00055  -0.00001  -0.00020  -0.00058  -0.00078  -0.00023
   D32        3.14032  -0.00001  -0.00066  -0.00029  -0.00095   3.13938
   D33        1.04247   0.00003  -0.00011   0.00102   0.00091   1.04338
   D34       -3.13604   0.00000   0.00005   0.00071   0.00076  -3.13528
   D35       -1.03122  -0.00001   0.00019   0.00044   0.00063  -1.03059
   D36       -2.09729   0.00002   0.00035   0.00073   0.00108  -2.09622
   D37        0.00738   0.00000   0.00051   0.00042   0.00093   0.00831
   D38        2.11220  -0.00002   0.00065   0.00015   0.00080   2.11300
   D39        0.00053  -0.00001   0.00026  -0.00079  -0.00053  -0.00000
   D40       -3.14075  -0.00001   0.00042  -0.00066  -0.00024  -3.14099
   D41        3.14026  -0.00001  -0.00021  -0.00049  -0.00071   3.13955
   D42       -0.00103  -0.00001  -0.00005  -0.00036  -0.00041  -0.00144
         Item               Value     Threshold  Converged?
 Maximum Force            0.000077     0.000450     YES
 RMS     Force            0.000022     0.000300     YES
 Maximum Displacement     0.009623     0.001800     NO 
 RMS     Displacement     0.002206     0.001200     NO 
 Predicted change in Energy=-6.348674D-07
 GradGradGradGradGradGradGradGradGradGradGradGradGradGradGradGradGradGrad

                          Input orientation:                          
 ---------------------------------------------------------------------
 Center     Atomic      Atomic             Coordinates (Angstroms)
 Number     Number       Type             X           Y           Z
 ---------------------------------------------------------------------
      1          8           0       -1.395731    3.635269   -0.123997
      2          6           0       -0.134976    3.144177   -0.128938
      3          6           0       -0.096326    1.657518   -0.060154
      4          6           0        1.157523    1.039520   -0.058523
      5          6           0        1.242136   -0.347484    0.005427
      6          6           0        2.576187   -1.046430   -0.002306
      7          9           0        2.707681   -1.830909   -1.094851
      8          9           0        2.709310   -1.851273    1.075087
      9          9           0        3.605171   -0.177997    0.003889
     10          6           0        0.083646   -1.122672    0.067799
     11          6           0       -1.164163   -0.500313    0.065484
     12          6           0       -2.397503   -1.361588    0.135866
     13          9           0       -2.408137   -2.106096    1.263375
     14          9           0       -3.529601   -0.630824    0.117705
     15          9           0       -2.449296   -2.224072   -0.902932
     16          6           0       -1.261506    0.887788    0.001760
     17          8           0        0.847320    3.853690   -0.183589
     18          1           0       -1.310116    4.601844   -0.171133
     19          1           0        2.047707    1.653947   -0.106287
     20          1           0        0.153353   -2.203776    0.119642
     21          1           0       -2.230779    1.367981    0.000677
 ---------------------------------------------------------------------
                    Distance matrix (angstroms):
                    1          2          3          4          5
     1  O    0.000000
     2  C    1.353033   0.000000
     3  C    2.367282   1.488751   0.000000
     4  C    3.641607   2.470848   1.397878   0.000000
     5  C    4.778851   3.755821   2.411600   1.391054   0.000000
     6  C    6.140785   4.992757   3.802237   2.523283   1.506080
     7  F    6.903597   5.810780   4.593711   3.422912   2.357749
     8  F    6.956386   5.873173   4.633787   3.471283   2.357573
     9  F    6.290181   5.004316   4.132106   2.734451   2.369105
    10  C    4.986316   4.276974   2.788946   2.417487   1.395316
    11  C    4.146391   3.792009   2.410870   2.788672   2.411896
    12  C    5.102906   5.048868   3.801163   4.294336   3.780528
    13  F    5.992749   5.888223   4.610964   4.935205   4.242599
    14  F    4.776124   5.082808   4.129833   4.978980   4.781460
    15  F    6.004049   5.896884   4.616653   4.936923   4.239501
    16  C    2.753630   2.525360   1.397842   2.424533   2.791798
    17  O    2.254448   1.212971   2.393507   2.833976   4.223917
    18  H    0.971504   1.872839   3.186637   4.334982   5.571446
    19  H    3.972809   2.642991   2.144532   1.082695   2.160359
    20  H    6.045946   5.361486   3.873533   3.399864   2.155067
    21  H    2.419389   2.750284   2.154860   3.404700   3.873498
                    6          7          8          9         10
     6  C    0.000000
     7  F    1.351426   0.000000
     8  F    1.351396   2.170034   0.000000
     9  F    1.346484   2.178264   2.179423   0.000000
    10  C    2.494692   2.956165   2.905099   3.646591   0.000000
    11  C    3.780617   4.255354   4.224712   4.780609   1.394405
    12  C    4.985580   5.272364   5.215502   6.119673   2.493555
    13  F    5.250555   5.639906   5.127246   6.439234   2.933515
    14  F    6.121093   6.466388   6.428848   7.150033   3.646911
    15  F    5.239604   5.175502   5.537396   6.454867   2.927661
    16  C    4.297570   4.934401   4.941849   4.982012   2.419865
    17  O    5.199329   6.050290   6.131711   4.888292   5.040890
    18  H    6.858196   7.640436   7.703997   6.858393   5.896588
    19  H    2.753568   3.681990   3.757650   2.407043   3.405504
    20  H    2.687833   2.852825   2.751372   4.004026   1.084589
    21  H    5.379248   5.985104   5.993533   6.037248   3.400650
                   11         12         13         14         15
    11  C    0.000000
    12  C    1.505947   0.000000
    13  F    2.358167   1.351178   0.000000
    14  F    2.369611   1.347588   2.178686   0.000000
    15  F    2.358123   1.351171   2.169908   2.178807   0.000000
    16  C    1.392968   2.523522   3.445254   2.732010   3.451519
    17  O    4.802649   6.150614   6.943396   6.273681   6.951570
    18  H    5.109725   6.069528   6.946936   5.691252   6.958907
    19  H    3.871234   5.376986   5.989027   6.031311   5.991386
    20  H    2.154198   2.686338   2.806937   4.004789   2.796400
    21  H    2.152299   2.737996   3.700686   2.386599   3.710405
                   16         17         18         19         20
    16  C    0.000000
    17  O    3.643909   0.000000
    18  H    3.718395   2.283510   0.000000
    19  H    3.398465   2.507144   4.468699   0.000000
    20  H    3.401984   6.104624   6.967263   4.303679   0.000000
    21  H    1.081701   3.960731   3.366750   4.289366   4.296009
                   21
    21  H    0.000000
 Stoichiometry    C9H4F6O2
 Framework group  C1[X(C9H4F6O2)]
 Deg. of freedom    57
 Full point group                 C1      NOp   1
 Largest Abelian subgroup         C1      NOp   1
 Largest concise Abelian subgroup C1      NOp   1
                         Standard orientation:                         
 ---------------------------------------------------------------------
 Center     Atomic      Atomic             Coordinates (Angstroms)
 Number     Number       Type             X           Y           Z
 ---------------------------------------------------------------------
      1          8           0        1.393106    3.638577    0.003607
      2          6           0        0.132473    3.147160   -0.000014
      3          6           0        0.095107    1.658878   -0.000905
      4          6           0       -1.158496    1.040393   -0.005049
      5          6           0       -1.241901   -0.348157   -0.006863
      6          6           0       -2.575937   -1.047139    0.000100
      7          9           0       -2.734729   -1.780371    1.124159
      8          9           0       -2.682521   -1.901055   -1.041887
      9          9           0       -3.604196   -0.180803   -0.071769
     10          6           0       -0.082446   -1.124408   -0.004566
     11          6           0        1.165103   -0.501539   -0.000092
     12          6           0        2.399558   -1.364092    0.000043
     13          9           0        2.437948   -2.159932   -1.091217
     14          9           0        3.531070   -0.632301    0.012459
     15          9           0        2.425307   -2.177573    1.078582
     16          6           0        1.261240    0.888106    0.001761
     17          8           0       -0.850669    3.857600   -0.002613
     18          1           0        1.306630    4.606224    0.003852
     19          1           0       -2.049411    1.655609   -0.007844
     20          1           0       -0.151161   -2.206812   -0.008068
     21          1           0        2.230328    1.368665    0.004673
 ---------------------------------------------------------------------
 Rotational constants (GHZ):           0.4535034           0.3744684           0.2211665
 Standard basis: 6-31G(d,p) (6D, 7F)
 There are   275 symmetry adapted cartesian basis functions of A   symmetry.
 There are   275 symmetry adapted basis functions of A   symmetry.
   275 basis functions,   504 primitive gaussians,   275 cartesian basis functions
    64 alpha electrons       64 beta electrons
       nuclear repulsion energy      1270.4850235982 Hartrees.
 NAtoms=   21 NActive=   21 NUniq=   21 SFac= 1.00D+00 NAtFMM=   60 NAOKFM=F Big=F
 Integral buffers will be    131072 words long.
 Raffenetti 2 integral format.
 Two-electron integral symmetry is turned on.
 Nuclear repulsion after empirical dispersion term =     1270.4451786293 Hartrees.
 One-electron integrals computed using PRISM.
 NBasis=   275 RedAO= T EigKep=  3.95D-04  NBF=   275
 NBsUse=   275 1.00D-06 EigRej= -1.00D+00 NBFU=   275
 Initial guess from the checkpoint file:  "Ac3_conf-1-retry-1.chk"
 B after Tr=    -0.000000    0.000000    0.000000
         Rot=    1.000000    0.000127    0.000063    0.000017 Ang=   0.02 deg.
 Requested convergence on RMS density matrix=1.00D-08 within 128 cycles.
 Requested convergence on MAX density matrix=1.00D-06.
 Requested convergence on             energy=1.00D-06.
 No special actions if energy rises.
 SCF Done:  E(RB3LYP) =  -1094.94228986     A.U. after    8 cycles
            NFock=  8  Conv=0.47D-08     -V/T= 2.0077
 Calling FoFJK, ICntrl=      2127 FMM=F ISym2X=0 I1Cent= 0 IOpClX= 0 NMat=1 NMatS=1 NMatT=0.
 ***** Axes restored to original set *****
 -------------------------------------------------------------------
 Center     Atomic                   Forces (Hartrees/Bohr)
 Number     Number              X              Y              Z
 -------------------------------------------------------------------
      1        8          -0.000009708    0.000030176   -0.000021403
      2        6          -0.000005709    0.000007329    0.000062888
[...]
                 (A) (A) (A) (A) (A) (A) (A) (A) (A) (A) (A) (A)
                 (A) (A) (A) (A) (A) (A) (A) (A) (A) (A) (A) (A)
                 (A) (A) (A) (A) (A) (A) (A) (A) (A) (A) (A) (A)
                 (A) (A) (A) (A) (A) (A) (A) (A) (A) (A) (A) (A)
                 (A) (A) (A) (A) (A) (A) (A) (A) (A) (A) (A) (A)
                 (A) (A) (A) (A) (A) (A) (A) (A) (A) (A) (A) (A)
                 (A) (A) (A) (A) (A) (A) (A) (A) (A) (A) (A) (A)
                 (A) (A) (A) (A) (A) (A) (A) (A) (A) (A) (A) (A)
                 (A) (A) (A) (A) (A) (A) (A) (A) (A) (A) (A) (A)
                 (A) (A) (A) (A) (A) (A) (A)
 The electronic state is 1-A.
 Alpha  occ. eigenvalues --  -25.29670 -25.29660 -25.29531 -25.29497 -25.29288
 Alpha  occ. eigenvalues --  -25.29150 -19.70100 -19.64598 -10.81947 -10.81811
 Alpha  occ. eigenvalues --  -10.70960 -10.60807 -10.60745 -10.60490 -10.60359
 Alpha  occ. eigenvalues --  -10.60201 -10.59969  -1.47720  -1.47581  -1.38947
 Alpha  occ. eigenvalues --   -1.38801  -1.38559  -1.38422  -1.26220  -1.16630
 Alpha  occ. eigenvalues --   -1.02780  -0.93771  -0.92676  -0.83865  -0.82940
 Alpha  occ. eigenvalues --   -0.79426  -0.75709  -0.74025  -0.70799  -0.70543
 Alpha  occ. eigenvalues --   -0.70473  -0.70390  -0.68334  -0.64533  -0.62345
 Alpha  occ. eigenvalues --   -0.61025  -0.59927  -0.59096  -0.58921  -0.58658
 Alpha  occ. eigenvalues --   -0.58244  -0.56671  -0.56655  -0.55009  -0.54817
 Alpha  occ. eigenvalues --   -0.54769  -0.53941  -0.53053  -0.52905  -0.52320
 Alpha  occ. eigenvalues --   -0.51108  -0.50324  -0.48719  -0.46934  -0.45485
 Alpha  occ. eigenvalues --   -0.42741  -0.38998  -0.36495  -0.36188
 Alpha virt. eigenvalues --   -0.06089  -0.03970   0.04799   0.05065   0.08800
 Alpha virt. eigenvalues --    0.10648   0.11207   0.11901   0.14066   0.14522
 Alpha virt. eigenvalues --    0.15001   0.15948   0.16073   0.17177   0.19056
 Alpha virt. eigenvalues --    0.19407   0.20400   0.21906   0.22349   0.23404
 Alpha virt. eigenvalues --    0.23743   0.23778   0.24797   0.25086   0.26502
 Alpha virt. eigenvalues --    0.26896   0.27533   0.28053   0.28682   0.29382
 Alpha virt. eigenvalues --    0.30142   0.30541   0.31048   0.31656   0.31981
 Alpha virt. eigenvalues --    0.32801   0.34367   0.34661   0.36962   0.37859
 Alpha virt. eigenvalues --    0.39219   0.39728   0.39862   0.40410   0.40878
 Alpha virt. eigenvalues --    0.41893   0.44625   0.44803   0.46204   0.46296
 Alpha virt. eigenvalues --    0.47506   0.48651   0.49327   0.50749   0.51430
 Alpha virt. eigenvalues --    0.53113   0.54096   0.54853   0.55335   0.56794
 Alpha virt. eigenvalues --    0.57784   0.57877   0.59277   0.60583   0.61080
 Alpha virt. eigenvalues --    0.62004   0.62822   0.64021   0.64429   0.66839
 Alpha virt. eigenvalues --    0.67051   0.67390   0.68633   0.69842   0.70036
 Alpha virt. eigenvalues --    0.70413   0.73192   0.73802   0.74721   0.74773
 Alpha virt. eigenvalues --    0.76181   0.77389   0.77932   0.78938   0.79304
 Alpha virt. eigenvalues --    0.79498   0.80130   0.80589   0.81858   0.82176
 Alpha virt. eigenvalues --    0.82715   0.83613   0.85163   0.85265   0.86793
 Alpha virt. eigenvalues --    0.87668   0.89913   0.90670   0.92422   0.93202
 Alpha virt. eigenvalues --    0.93698   0.94496   0.95623   0.95865   0.97887
 Alpha virt. eigenvalues --    0.98410   0.99517   1.01243   1.01976   1.02662
 Alpha virt. eigenvalues --    1.03749   1.05339   1.05430   1.05956   1.07941
 Alpha virt. eigenvalues --    1.09693   1.11874   1.13579   1.16110   1.17492
 Alpha virt. eigenvalues --    1.19177   1.20373   1.21209   1.25377   1.26454
 Alpha virt. eigenvalues --    1.27884   1.28478   1.29059   1.30801   1.33455
 Alpha virt. eigenvalues --    1.34530   1.35794   1.36121   1.37379   1.37908
 Alpha virt. eigenvalues --    1.38823   1.40348   1.43539   1.44770   1.48201
 Alpha virt. eigenvalues --    1.49501   1.50026   1.51350   1.55356   1.57868
 Alpha virt. eigenvalues --    1.59728   1.60427   1.62713   1.63632   1.64944
 Alpha virt. eigenvalues --    1.65208   1.66922   1.68332   1.69952   1.70945
 Alpha virt. eigenvalues --    1.71867   1.74285   1.74593   1.76396   1.79460
 Alpha virt. eigenvalues --    1.83287   1.85662   1.88255   1.89959   1.90410
 Alpha virt. eigenvalues --    1.91696   1.92173   1.93719   1.94560   1.95550
 Alpha virt. eigenvalues --    1.95845   1.96918   1.97458   1.99423   1.99891
 Alpha virt. eigenvalues --    2.00885   2.01221   2.02428   2.04892   2.06415
 Alpha virt. eigenvalues --    2.07039   2.08101   2.09090   2.10884   2.13037
 Alpha virt. eigenvalues --    2.13832   2.15101   2.15192   2.16884   2.17559
 Alpha virt. eigenvalues --    2.19909   2.21457   2.23742   2.26631   2.29132
 Alpha virt. eigenvalues --    2.30035   2.31526   2.32064   2.34085   2.34847
 Alpha virt. eigenvalues --    2.35670   2.38008   2.38824   2.39934   2.40368
 Alpha virt. eigenvalues --    2.41823   2.44230   2.45896   2.46818   2.49637
 Alpha virt. eigenvalues --    2.50388   2.51399   2.51754   2.54775   2.56268
 Alpha virt. eigenvalues --    2.57410   2.57747   2.59915   2.60358   2.60805
 Alpha virt. eigenvalues --    2.63259   2.63887   2.65771   2.67818   2.68951
 Alpha virt. eigenvalues --    2.69707   2.70997   2.72551   2.73095   2.73357
 Alpha virt. eigenvalues --    2.76269   2.78671   2.79403   2.80424   2.81092
 Alpha virt. eigenvalues --    2.82290   2.84548   2.85172   2.86122   2.86937
 Alpha virt. eigenvalues --    2.87900   2.88549   2.91519   2.92095   2.93112
 Alpha virt. eigenvalues --    2.93933   2.95173   2.95541   2.95887   2.97660
 Alpha virt. eigenvalues --    2.98750   2.99626   3.03199   3.03555   3.05314
 Alpha virt. eigenvalues --    3.06493   3.07246   3.09412   3.11809   3.12509
 Alpha virt. eigenvalues --    3.13065   3.14302   3.15306   3.16139   3.17544
 Alpha virt. eigenvalues --    3.17952   3.19263   3.19931   3.20493   3.20785
 Alpha virt. eigenvalues --    3.21691   3.23787   3.24781   3.25505   3.26063
 Alpha virt. eigenvalues --    3.27182   3.27332   3.28265   3.29133   3.29329
 Alpha virt. eigenvalues --    3.30577   3.31443   3.32655   3.34173   3.35366
 Alpha virt. eigenvalues --    3.35701   3.37227   3.38444   3.39092   3.39975
 Alpha virt. eigenvalues --    3.42307   3.43256   3.44570   3.45643   3.47133
 Alpha virt. eigenvalues --    3.48682   3.49290   3.50373   3.55488   3.57557
 Alpha virt. eigenvalues --    3.58800   3.60746   3.61762   3.62563   3.64847
 Alpha virt. eigenvalues --    3.65889   3.68380   3.69142   3.71153   3.72845
 Alpha virt. eigenvalues --    3.76975   3.78111   3.80654   3.82052   3.82896
 Alpha virt. eigenvalues --    3.84096   3.85071   3.87107   3.89081   3.90875
 Alpha virt. eigenvalues --    3.92385   3.93622   3.94447   3.95296   3.95600
 Alpha virt. eigenvalues --    3.96451   3.96854   3.98626   3.98892   4.01715
 Alpha virt. eigenvalues --    4.02488   4.04138   4.05145   4.07050   4.07320
 Alpha virt. eigenvalues --    4.10263   4.12365   4.15068   4.15390   4.15716
 Alpha virt. eigenvalues --    4.19388   4.23162   4.24335   4.27080   4.28755
 Alpha virt. eigenvalues --    4.29382   4.32529   4.37522   4.41255   4.48268
 Alpha virt. eigenvalues --    4.52350   4.55328   4.57700   4.59784   4.60788
 Alpha virt. eigenvalues --    4.66212   4.69541   4.79922   4.88290   4.89955
 Alpha virt. eigenvalues --    4.98042   4.99837   5.12570   5.13037   5.13739
 Alpha virt. eigenvalues --    5.13999   5.17871   5.20077   5.21197   5.26214
 Alpha virt. eigenvalues --    5.28700   5.35834   5.38147   5.39069   5.42658
 Alpha virt. eigenvalues --    5.43949   5.47349   5.48014   5.49377   5.56975
 Alpha virt. eigenvalues --    5.62683   5.79142   5.85057   5.91748   6.10690
 Alpha virt. eigenvalues --    6.24842   6.29223   6.34291   6.41710   6.49730
 Alpha virt. eigenvalues --    6.66543   6.68625   6.77439   6.78805   6.82048
 Alpha virt. eigenvalues --    6.82186   6.86728   6.86850   6.86964   6.87055
 Alpha virt. eigenvalues --    6.87229   6.87255   6.87377   6.87449   6.87889
 Alpha virt. eigenvalues --    6.88016   6.88186   6.88412   6.88547   6.88694
 Alpha virt. eigenvalues --    6.89327   6.89958   6.90786   6.97045   6.97586
 Alpha virt. eigenvalues --    6.99658   6.99720   7.00049   7.00428   7.04757
 Alpha virt. eigenvalues --    7.04976   7.05857   7.06219   7.06426   7.12224
 Alpha virt. eigenvalues --    7.12330   7.12764   7.33264   7.33512   7.33706
 Alpha virt. eigenvalues --    7.34308   7.35051   7.37549   7.38082   7.48393
 Alpha virt. eigenvalues --    7.49227   7.55066   7.55813   7.56066   7.56368
 Alpha virt. eigenvalues --    8.28265   8.28656   8.30256   8.30786   8.31985
 Alpha virt. eigenvalues --    8.32537   8.44997   8.45029   8.45199   8.45328
 Alpha virt. eigenvalues --    8.53225   8.55434   8.67042   8.67603   8.74024
 Alpha virt. eigenvalues --    8.74537   8.74963   8.75072   8.84460   8.84673
 Alpha virt. eigenvalues --    8.90614   8.91164   8.97511   8.97725   8.98572
 Alpha virt. eigenvalues --    8.98768   9.04495   9.05900   9.09380   9.10418
 Alpha virt. eigenvalues --   22.21805  22.79394  22.80053  22.86584  22.94488
 Alpha virt. eigenvalues --   23.07981  23.08765  23.29036  23.48625  43.96261
 Alpha virt. eigenvalues --   44.02152  57.34882  57.36392  57.37216  57.38162
 Alpha virt. eigenvalues --   57.43438  57.50941
          Condensed to atoms (all electrons):
               1          2          3          4          5          6
     1  O    7.919702   0.410684  -0.172265   0.008532  -0.000571  -0.000010
     2  C    0.410684   4.502813   0.183621  -0.057665  -0.004261  -0.001161
     3  C   -0.172265   0.183621   5.448532   0.380481  -0.017831   0.004713
     4  C    0.008532  -0.057665   0.380481   5.185213   0.377470  -0.043489
     5  C   -0.000571  -0.004261  -0.017831   0.377470   5.166675   0.453354
     6  C   -0.000010  -0.001161   0.004713  -0.043489   0.453354   4.129462
     7  F   -0.000000  -0.000027  -0.000975   0.003835  -0.076598   0.346118
     8  F   -0.000000   0.000004  -0.000108   0.005089  -0.074244   0.326664
     9  F   -0.000000   0.000005   0.002288   0.007930  -0.073803   0.330243
    10  C    0.000822   0.008840  -0.065854  -0.009464   0.349643  -0.044618
    11  C   -0.001831  -0.006438  -0.017550  -0.076187  -0.003033   0.005036
    12  C   -0.000241  -0.001059   0.004898  -0.000545   0.004953  -0.000172
    13  F    0.000000  -0.000035  -0.001116   0.000156  -0.000903  -0.000015
    14  F   -0.000002  -0.000020   0.002495  -0.000064  -0.000217  -0.000001
    15  F    0.000000  -0.000001  -0.000175  -0.000146   0.002676  -0.000054
    16  C    0.022404  -0.008255   0.370354  -0.001936  -0.086586  -0.000460
    17  O   -0.082254   0.680473  -0.150767   0.028683   0.003051  -0.000254
    18  H    0.295995  -0.032519   0.028768  -0.001073   0.000060   0.000002
    19  H    0.000753  -0.010926  -0.010726   0.381821  -0.023451  -0.005663
    20  H    0.000001   0.000193   0.000138   0.005488  -0.021180  -0.005652
    21  H    0.010288  -0.007310  -0.005102   0.005386  -0.000354   0.000057
               7          8          9         10         11         12
     1  O   -0.000000  -0.000000  -0.000000   0.000822  -0.001831  -0.000241
     2  C   -0.000027   0.000004   0.000005   0.008840  -0.006438  -0.001059
     3  C   -0.000975  -0.000108   0.002288  -0.065854  -0.017550   0.004898
     4  C    0.003835   0.005089   0.007930  -0.009464  -0.076187  -0.000545
     5  C   -0.076598  -0.074244  -0.073803   0.349643  -0.003033   0.004953
     6  C    0.346118   0.326664   0.330243  -0.044618   0.005036  -0.000172
     7  F    8.991017  -0.047598  -0.047364   0.002651  -0.000954  -0.000015
     8  F   -0.047598   8.991921  -0.042711   0.008394   0.002809  -0.000059
     9  F   -0.047364  -0.042711   8.985693   0.005107  -0.000236  -0.000001
    10  C    0.002651   0.008394   0.005107   5.216982   0.355623  -0.046475
    11  C   -0.000954   0.002809  -0.000236   0.355623   5.175456   0.454727
    12  C   -0.000015  -0.000059  -0.000001  -0.046475   0.454727   4.131579
    13  F   -0.000000   0.000000  -0.000000   0.002671  -0.077003   0.346117
    14  F   -0.000000   0.000000  -0.000000   0.005052  -0.073000   0.328515
    15  F    0.000000   0.000001   0.000000   0.009076  -0.075037   0.327842
    16  C    0.000117  -0.000199  -0.000082  -0.008519   0.370705  -0.042258
    17  O   -0.000000  -0.000000  -0.000001   0.000540  -0.000449  -0.000007
    18  H    0.000000   0.000000   0.000000  -0.000036   0.000089   0.000004
    19  H    0.000131   0.000174   0.006589   0.005781   0.000036   0.000070
    20  H    0.000306   0.007067   0.000217   0.388742  -0.020026  -0.006100
    21  H    0.000000  -0.000001  -0.000000   0.005915  -0.028833  -0.006121
              13         14         15         16         17         18
     1  O    0.000000  -0.000002   0.000000   0.022404  -0.082254   0.295995
     2  C   -0.000035  -0.000020  -0.000001  -0.008255   0.680473  -0.032519
     3  C   -0.001116   0.002495  -0.000175   0.370354  -0.150767   0.028768
     4  C    0.000156  -0.000064  -0.000146  -0.001936   0.028683  -0.001073
     5  C   -0.000903  -0.000217   0.002676  -0.086586   0.003051   0.000060
     6  C   -0.000015  -0.000001  -0.000054  -0.000460  -0.000254   0.000002
     7  F   -0.000000  -0.000000   0.000000   0.000117  -0.000000   0.000000
     8  F    0.000000   0.000000   0.000001  -0.000199  -0.000000   0.000000
     9  F   -0.000000  -0.000000   0.000000  -0.000082  -0.000001   0.000000
    10  C    0.002671   0.005052   0.009076  -0.008519   0.000540  -0.000036
    11  C   -0.077003  -0.073000  -0.075037   0.370705  -0.000449   0.000089
    12  C    0.346117   0.328515   0.327842  -0.042258  -0.000007   0.000004
    13  F    8.991462  -0.047593  -0.047555   0.004074  -0.000000  -0.000000
    14  F   -0.047593   8.989711  -0.042760   0.006659  -0.000000   0.000000
    15  F   -0.047555  -0.042760   8.990382   0.004801  -0.000000   0.000000
    16  C    0.004074   0.006659   0.004801   5.174004   0.005232  -0.003705
    17  O   -0.000000  -0.000000  -0.000000   0.005232   7.818670   0.005410
    18  H   -0.000000   0.000000   0.000000  -0.003705   0.005410   0.360023
    19  H    0.000000  -0.000000  -0.000000   0.005877   0.014944  -0.000089
    20  H    0.000239   0.000209   0.007002   0.005601   0.000000   0.000000
    21  H    0.000251   0.007131   0.000222   0.383637   0.000166  -0.000346
              19         20         21
     1  O    0.000753   0.000001   0.010288
     2  C   -0.010926   0.000193  -0.007310
     3  C   -0.010726   0.000138  -0.005102
     4  C    0.381821   0.005488   0.005386
     5  C   -0.023451  -0.021180  -0.000354
     6  C   -0.005663  -0.005652   0.000057
     7  F    0.000131   0.000306   0.000000
     8  F    0.000174   0.007067  -0.000001
     9  F    0.006589   0.000217  -0.000000
    10  C    0.005781   0.388742   0.005915
    11  C    0.000036  -0.020026  -0.028833
    12  C    0.000070  -0.006100  -0.006121
    13  F    0.000000   0.000239   0.000251
    14  F   -0.000000   0.000209   0.007131
    15  F   -0.000000   0.007002   0.000222
    16  C    0.005877   0.005601   0.383637
    17  O    0.014944   0.000000   0.000166
    18  H   -0.000089   0.000000  -0.000346
    19  H    0.425322  -0.000104  -0.000171
    20  H   -0.000104   0.437037  -0.000089
    21  H   -0.000171  -0.000089   0.431793
 Mulliken charges:
               1
     1  O   -0.412007
     2  C    0.343044
     3  C    0.016180
     4  C   -0.199514
     5  C    0.025150
     6  C    0.505898
     7  F   -0.170644
     8  F   -0.177203
     9  F   -0.173875
    10  C   -0.190874
    11  C    0.016097
    12  C    0.504347
    13  F   -0.170751
    14  F   -0.176114
    15  F   -0.176274
    16  C   -0.201465
    17  O   -0.323437
    18  H    0.347417
    19  H    0.209634
    20  H    0.200909
    21  H    0.203482
 Sum of Mulliken charges =  -0.00000
 Mulliken charges with hydrogens summed into heavy atoms:
               1
     1  O   -0.064590
     2  C    0.343044
     3  C    0.016180
     4  C    0.010120
     5  C    0.025150
     6  C    0.505898
     7  F   -0.170644
     8  F   -0.177203
     9  F   -0.173875
    10  C    0.010035
    11  C    0.016097
    12  C    0.504347
    13  F   -0.170751
    14  F   -0.176114
    15  F   -0.176274
    16  C    0.002017
    17  O   -0.323437
 Electronic spatial extent (au):  <R**2>=           4402.8438
 Charge=             -0.0000 electrons
 Dipole moment (field-independent basis, Debye):
    X=              1.4824    Y=              1.5501    Z=              0.0427  Tot=              2.1453
 Quadrupole moment (field-independent basis, Debye-Ang):
   XX=           -102.3879   YY=            -89.4873   ZZ=            -94.6034
   XY=              8.4090   XZ=              0.2960   YZ=              0.2140
 Traceless Quadrupole moment (field-independent basis, Debye-Ang):
   XX=             -6.8950   YY=              6.0055   ZZ=              0.8895
   XY=              8.4090   XZ=              0.2960   YZ=              0.2140
 Octapole moment (field-independent basis, Debye-Ang**2):
  XXX=              1.7492  YYY=              5.0999  ZZZ=             -0.0087  XYY=             39.7775
  XXY=              4.8715  XXZ=             -0.1256  XZZ=             -0.4987  YZZ=             -7.5163
  YYZ=              1.3521  XYZ=             -1.2221
 Hexadecapole moment (field-independent basis, Debye-Ang**3):
 XXXX=          -2501.1514 YYYY=          -1941.3769 ZZZZ=           -220.9008 XXXY=              2.6960
 XXXZ=             -3.2042 YYYX=            214.9915 YYYZ=              6.4131 ZZZX=              4.8078
 ZZZY=             -0.2440 XXYY=           -787.3934 XXZZ=           -454.5657 YYZZ=           -402.9572
 XXYZ=              0.1709 YYXZ=             -2.4712 ZZXY=             -0.9622
 N-N= 1.270136889395D+03 E-N=-5.124730012474D+03  KE= 1.090309202034D+03
 Unable to Open any file for archive entry.
 1\1\GINC-NOTCH296\SP\RM062X\def2TZVP\C9H4F6O2\U6032257\10-Feb-2022\0\\
 # M062X/def2tzvp int=(grid=ultrafine) nmr=giao guess=read geom=check\\
 Ac3.xyz\\0,1\O,0,-1.3932698865,3.6212732349,-0.110665794\C,0,-0.132840
 8991,3.1298070056,-0.1206079924\C,0,-0.0948024032,1.6426528059,-0.0566
 792864\C,0,1.1580537795,1.0232190822,-0.064374094\C,0,1.2424051545,-0.
 3647717428,-0.0074189728\C,0,2.5869130614,-1.0394364982,-0.0818371071\
 F,0,2.9356789851,-1.2962249458,-1.3618841959\F,0,2.5861215421,-2.21961
 82209,0.5741214392\F,0,3.5587748157,-0.2714633429,0.4506648228\C,0,0.0
 844540298,-1.1401729284,0.0607793328\C,0,-1.1622694373,-0.5163546318,0
 .0696179416\C,0,-2.4109070907,-1.3466416282,0.2085157384\F,0,-2.743295
 0037,-1.5191260211,1.5070414375\F,0,-3.4655241651,-0.7626235491,-0.397
 8097672\F,0,-2.2539808248,-2.5748368177,-0.328571504\C,0,-1.2591259754
 ,0.8728028927,0.0094660183\O,0,0.8498317237,3.8386098848,-0.1759376414
 \H,0,-1.3078210273,4.5879642835,-0.1554232414\H,0,2.0482377764,1.63877
 46398,-0.1112624514\H,0,0.1536346822,-2.2200315646,0.1067089235\H,0,-2
 .2283688371,1.3544980621,0.0095563939\\Version=ES64L-G16RevC.01\State=
 1-A\HF=-1094.9989956\RMSD=2.619e-09\Dipole=-0.5881672,0.6051891,-0.012
 409\Quadrupole=-4.9829076,4.3725373,0.6103703,-6.2967299,0.8224062,0.0
 170867\PG=C01 [X(C9H4F6O2)]\\@
 The archive entry for this job was punched.


 Human beings, who are almost unique in having the
 ability to learn from the experience of others, are
 also remarkable for their apparent disinclination to do so.
                               -- Douglas Adams,
                                Last Chance to See
 Job cpu time:       0 days  0 hours 52 minutes 30.6 seconds.
 Elapsed time:       0 days  0 hours  0 minutes 56.5 seconds.
 File lengths (MBytes):  RWF=    171 Int=      0 D2E=      0 Chk=     29 Scr=      1
 Normal termination of Gaussian 16 at Thu Feb 10 10:39:42 2022.
