 Entering Gaussian System, Link 0=/uufs/chpc.utah.edu/sys/installdir/gaussian16/C01/AVX2/g16/g16
 Input=Ac4_conf-2.com
 Output=Ac4_conf-2.log
 Initial command:
 /uufs/chpc.utah.edu/sys/installdir/gaussian16/C01/AVX2/g16/l1.exe "/scratch/general/lustre/u6032257/3867927/notchpeak.peaks/Gau-150508.inp" -scrdir="/scratch/general/lustre/u6032257/3867927/notchpeak.peaks/"
 Entering Link 1 = /uufs/chpc.utah.edu/sys/installdir/gaussian16/C01/AVX2/g16/l1.exe PID=    150510.
  
 Copyright (c) 1988-2019, Gaussian, Inc.  All Rights Reserved.
  
 This is part of the Gaussian(R) 16 program.  It is based on
 the Gaussian(R) 09 system (copyright 2009, Gaussian, Inc.),
 the Gaussian(R) 03 system (copyright 2003, Gaussian, Inc.),
 the Gaussian(R) 98 system (copyright 1998, Gaussian, Inc.),
 the Gaussian(R) 94 system (copyright 1995, Gaussian, Inc.),
 the Gaussian 92(TM) system (copyright 1992, Gaussian, Inc.),
 the Gaussian 90(TM) system (copyright 1990, Gaussian, Inc.),
 the Gaussian 88(TM) system (copyright 1988, Gaussian, Inc.),
 the Gaussian 86(TM) system (copyright 1986, Carnegie Mellon
 University), and the Gaussian 82(TM) system (copyright 1983,
 Carnegie Mellon University). Gaussian is a federally registered
 trademark of Gaussian, Inc.
  
 This software contains proprietary and confidential information,
 including trade secrets, belonging to Gaussian, Inc.
  
 This software is provided under written license and may be
 used, copied, transmitted, or stored only in accord with that
 written license.
  
 The following legend is applicable only to US Government
 contracts under FAR:
  
                    RESTRICTED RIGHTS LEGEND
  
 Use, reproduction and disclosure by the US Government is
 subject to restrictions as set forth in subparagraphs (a)
 and (c) of the Commercial Computer Software - Restricted
 Rights clause in FAR 52.227-19.
  
 Gaussian, Inc.
 340 Quinnipiac St., Bldg. 40, Wallingford CT 06492
  
  
 ---------------------------------------------------------------
 Warning -- This program may not be used in any manner that
 competes with the business of Gaussian, Inc. or will provide
 assistance to any competitor of Gaussian, Inc.  The licensee
 of this program is prohibited from giving any competitor of
 Gaussian, Inc. access to this program.  By using this program,
 the user acknowledges that Gaussian, Inc. is engaged in the
 business of creating and licensing software in the field of
 computational chemistry and represents and warrants to the
 licensee that it is not a competitor of Gaussian, Inc. and that
 it will not use this program in any manner prohibited above.
 ---------------------------------------------------------------
  

 Cite this work as:
 Gaussian 16, Revision C.01,
 M. J. Frisch, G. W. Trucks, H. B. Schlegel, G. E. Scuseria, 
 M. A. Robb, J. R. Cheeseman, G. Scalmani, V. Barone, 
 G. A. Petersson, H. Nakatsuji, X. Li, M. Caricato, A. V. Marenich, 
 J. Bloino, B. G. Janesko, R. Gomperts, B. Mennucci, H. P. Hratchian, 
 J. V. Ortiz, A. F. Izmaylov, J. L. Sonnenberg, D. Williams-Young, 
 F. Ding, F. Lipparini, F. Egidi, J. Goings, B. Peng, A. Petrone, 
 T. Henderson, D. Ranasinghe, V. G. Zakrzewski, J. Gao, N. Rega, 
 G. Zheng, W. Liang, M. Hada, M. Ehara, K. Toyota, R. Fukuda, 
 J. Hasegawa, M. Ishida, T. Nakajima, Y. Honda, O. Kitao, H. Nakai, 
 T. Vreven, K. Throssell, J. A. Montgomery, Jr., J. E. Peralta, 
 F. Ogliaro, M. J. Bearpark, J. J. Heyd, E. N. Brothers, K. N. Kudin, 
 V. N. Staroverov, T. A. Keith, R. Kobayashi, J. Normand, 
 K. Raghavachari, A. P. Rendell, J. C. Burant, S. S. Iyengar, 
 J. Tomasi, M. Cossi, J. M. Millam, M. Klene, C. Adamo, R. Cammi, 
 J. W. Ochterski, R. L. Martin, K. Morokuma, O. Farkas, 
 J. B. Foresman, and D. J. Fox, Gaussian, Inc., Wallingford CT, 2019.
 
 ******************************************
 Gaussian 16:  ES64L-G16RevC.01  3-Jul-2019
                 5-Feb-2022 
 ******************************************
 %NProcShared=52
 Will use up to   52 processors via shared memory.
 %mem=16GB
 %chk=Ac4_conf-2.chk
 ----------------------------------------------------------------------
 # B3LYP/6-31G(d,p) empiricaldispersion=GD3BJ int=(grid=ultrafine) opt 
 freq=noraman
 ----------------------------------------------------------------------
 1/18=20,19=15,26=4,38=1/1,3;
 2/9=110,12=2,17=6,18=5,40=1/2;
 3/5=1,6=6,7=101,11=2,25=1,30=1,71=1,74=-5,75=-5,124=41/1,2,3;
 4//1;
 5/5=2,38=5/2;
 6/7=2,8=2,9=2,10=2,28=1/1;
 7//1,2,3,16;
 1/18=20,19=15,26=4/3(2);
 2/9=110/2;
 99//99;
 2/9=110/2;
 3/5=1,6=6,7=101,11=2,25=1,30=1,71=1,74=-5,75=-5,124=41/1,2,3;
 4/5=5,16=3,69=1/1;
 5/5=2,38=5/2;
 7//1,2,3,16;
 1/18=20,19=15,26=4/3(-5);
 2/9=110/2;
 6/7=2,8=2,9=2,10=2,19=2,28=1/1;
 99/9=1/99;
 -------
 Ac4.xyz
 -------
 Symbolic Z-matrix:
 Charge =  0 Multiplicity = 1
 O                    -0.5665    3.1349    0.7465 
 C                    -0.8347    2.1307   -0.1192 
 C                     0.1453    0.9767   -0.0931 
 C                     1.2362    1.0146    0.7961 
 C                     2.158    -0.0265    0.8496 
 C                     2.0095   -1.1273    0.0161 
 C                     0.9377   -1.183    -0.8695 
 C                    -0.0056   -0.1426   -0.9405 
 O                    -1.0759   -0.184    -1.8156 
 C                    -1.2581   -1.2963   -2.6833 
 O                    -1.8163    2.2087   -0.8467 
 H                    -1.2863    3.7394    0.5691 
 H                     1.3869    1.8546    1.4617 
 H                     2.9886    0.0221    1.5394 
 H                     2.7233   -1.9372    0.0551 
 H                     0.8562   -2.0529   -1.4998 
 H                    -1.402    -2.2217   -2.1238 
 H                    -2.1515   -1.1351   -3.2864 
 H                    -0.4164   -1.413    -3.3675 
 

 GradGradGradGradGradGradGradGradGradGradGradGradGradGradGradGradGradGrad
 Berny optimization.
 Initialization pass.
                           ----------------------------
                           !    Initial Parameters    !
                           ! (Angstroms and Degrees)  !
 --------------------------                            --------------------------
 ! Name  Definition              Value          Derivative Info.                !
 --------------------------------------------------------------------------------
 ! R1    R(1,2)                  1.3527         estimate D2E/DX2                !
 ! R2    R(1,12)                 0.9566         estimate D2E/DX2                !
 ! R3    R(2,3)                  1.5142         estimate D2E/DX2                !
 ! R4    R(2,11)                 1.2243         estimate D2E/DX2                !
 ! R5    R(3,4)                  1.4079         estimate D2E/DX2                !
 ! R6    R(3,8)                  1.412          estimate D2E/DX2                !
 ! R7    R(4,5)                  1.3916         estimate D2E/DX2                !
 ! R8    R(4,13)                 1.0823         estimate D2E/DX2                !
 ! R9    R(5,6)                  1.3887         estimate D2E/DX2                !
 ! R10   R(5,14)                 1.0808         estimate D2E/DX2                !
 ! R11   R(6,7)                  1.3915         estimate D2E/DX2                !
 ! R12   R(6,15)                 1.0803         estimate D2E/DX2                !
 ! R13   R(7,8)                  1.4062         estimate D2E/DX2                !
 ! R14   R(7,16)                 1.0773         estimate D2E/DX2                !
 ! R15   R(8,9)                  1.3831         estimate D2E/DX2                !
 ! R16   R(9,10)                 1.4224         estimate D2E/DX2                !
 ! R17   R(10,17)                1.0909         estimate D2E/DX2                !
 ! R18   R(10,18)                1.0899         estimate D2E/DX2                !
 ! R19   R(10,19)                1.091          estimate D2E/DX2                !
 ! A1    A(2,1,12)             101.6105         estimate D2E/DX2                !
 ! A2    A(1,2,3)              115.2406         estimate D2E/DX2                !
 ! A3    A(1,2,11)             119.4697         estimate D2E/DX2                !
 ! A4    A(3,2,11)             125.2897         estimate D2E/DX2                !
 ! A5    A(2,3,4)              119.4625         estimate D2E/DX2                !
 ! A6    A(2,3,8)              121.6435         estimate D2E/DX2                !
 ! A7    A(4,3,8)              118.894          estimate D2E/DX2                !
 ! A8    A(3,4,5)              121.1588         estimate D2E/DX2                !
 ! A9    A(3,4,13)             121.1449         estimate D2E/DX2                !
 ! A10   A(5,4,13)             117.6963         estimate D2E/DX2                !
 ! A11   A(4,5,6)              119.9423         estimate D2E/DX2                !
 ! A12   A(4,5,14)             119.9984         estimate D2E/DX2                !
 ! A13   A(6,5,14)             120.0592         estimate D2E/DX2                !
 ! A14   A(5,6,7)              119.7421         estimate D2E/DX2                !
 ! A15   A(5,6,15)             120.1298         estimate D2E/DX2                !
 ! A16   A(7,6,15)             120.1281         estimate D2E/DX2                !
 ! A17   A(6,7,8)              121.2815         estimate D2E/DX2                !
 ! A18   A(6,7,16)             117.578          estimate D2E/DX2                !
 ! A19   A(8,7,16)             121.1405         estimate D2E/DX2                !
 ! A20   A(3,8,7)              118.9813         estimate D2E/DX2                !
 ! A21   A(3,8,9)              119.0871         estimate D2E/DX2                !
 ! A22   A(7,8,9)              121.9316         estimate D2E/DX2                !
 ! A23   A(8,9,10)             120.5624         estimate D2E/DX2                !
 ! A24   A(9,10,17)            111.5532         estimate D2E/DX2                !
 ! A25   A(9,10,18)            109.0803         estimate D2E/DX2                !
 ! A26   A(9,10,19)            111.5549         estimate D2E/DX2                !
 ! A27   A(17,10,18)           107.5258         estimate D2E/DX2                !
 ! A28   A(17,10,19)           109.4312         estimate D2E/DX2                !
 ! A29   A(18,10,19)           107.53           estimate D2E/DX2                !
 ! D1    D(12,1,2,3)           179.9951         estimate D2E/DX2                !
 ! D2    D(12,1,2,11)            0.006          estimate D2E/DX2                !
 ! D3    D(1,2,3,4)             -0.0006         estimate D2E/DX2                !
 ! D4    D(1,2,3,8)            179.9934         estimate D2E/DX2                !
 ! D5    D(11,2,3,4)           179.9879         estimate D2E/DX2                !
 ! D6    D(11,2,3,8)            -0.0182         estimate D2E/DX2                !
 ! D7    D(2,3,4,5)            179.9968         estimate D2E/DX2                !
 ! D8    D(2,3,4,13)            -0.0072         estimate D2E/DX2                !
 ! D9    D(8,3,4,5)              0.0027         estimate D2E/DX2                !
 ! D10   D(8,3,4,13)           179.9987         estimate D2E/DX2                !
 ! D11   D(2,3,8,7)           -179.9964         estimate D2E/DX2                !
 ! D12   D(2,3,8,9)              0.0044         estimate D2E/DX2                !
 ! D13   D(4,3,8,7)             -0.0024         estimate D2E/DX2                !
 ! D14   D(4,3,8,9)            179.9983         estimate D2E/DX2                !
 ! D15   D(3,4,5,6)             -0.0017         estimate D2E/DX2                !
 ! D16   D(3,4,5,14)           179.9971         estimate D2E/DX2                !
 ! D17   D(13,4,5,6)          -179.9978         estimate D2E/DX2                !
 ! D18   D(13,4,5,14)            0.001          estimate D2E/DX2                !
 ! D19   D(4,5,6,7)              0.0004         estimate D2E/DX2                !
 ! D20   D(4,5,6,15)           179.9996         estimate D2E/DX2                !
 ! D21   D(14,5,6,7)          -179.9984         estimate D2E/DX2                !
 ! D22   D(14,5,6,15)            0.0008         estimate D2E/DX2                !
 ! D23   D(5,6,7,8)             -0.0002         estimate D2E/DX2                !
 ! D24   D(5,6,7,16)           179.9982         estimate D2E/DX2                !
 ! D25   D(15,6,7,8)          -179.9994         estimate D2E/DX2                !
 ! D26   D(15,6,7,16)           -0.001          estimate D2E/DX2                !
 ! D27   D(6,7,8,3)              0.0012         estimate D2E/DX2                !
 ! D28   D(6,7,8,9)           -179.9996         estimate D2E/DX2                !
 ! D29   D(16,7,8,3)          -179.9971         estimate D2E/DX2                !
 ! D30   D(16,7,8,9)             0.0021         estimate D2E/DX2                !
 ! D31   D(3,8,9,10)           179.9985         estimate D2E/DX2                !
 ! D32   D(7,8,9,10)            -0.0007         estimate D2E/DX2                !
 ! D33   D(8,9,10,17)           61.363          estimate D2E/DX2                !
 ! D34   D(8,9,10,18)          179.9975         estimate D2E/DX2                !
 ! D35   D(8,9,10,19)          -61.3618         estimate D2E/DX2                !
 --------------------------------------------------------------------------------
 Trust Radius=3.00D-01 FncErr=1.00D-07 GrdErr=1.00D-06 EigMax=2.50D+02 EigMin=1.00D-04
 Number of steps in this run=     93 maximum allowed number of steps=    114.
 GradGradGradGradGradGradGradGradGradGradGradGradGradGradGradGradGradGrad

                          Input orientation:                          
 ---------------------------------------------------------------------
 Center     Atomic      Atomic             Coordinates (Angstroms)
 Number     Number       Type             X           Y           Z
 ---------------------------------------------------------------------
      1          8           0       -0.566500    3.134900    0.746500
      2          6           0       -0.834700    2.130700   -0.119200
      3          6           0        0.145300    0.976700   -0.093100
      4          6           0        1.236200    1.014600    0.796100
      5          6           0        2.158000   -0.026500    0.849600
      6          6           0        2.009500   -1.127300    0.016100
      7          6           0        0.937700   -1.183000   -0.869500
      8          6           0       -0.005600   -0.142600   -0.940500
      9          8           0       -1.075900   -0.184000   -1.815600
     10          6           0       -1.258100   -1.296300   -2.683300
     11          8           0       -1.816300    2.208700   -0.846700
     12          1           0       -1.286300    3.739400    0.569100
     13          1           0        1.386900    1.854600    1.461700
     14          1           0        2.988600    0.022100    1.539400
     15          1           0        2.723300   -1.937200    0.055100
     16          1           0        0.856200   -2.052900   -1.499800
     17          1           0       -1.402000   -2.221700   -2.123800
     18          1           0       -2.151500   -1.135100   -3.286400
     19          1           0       -0.416400   -1.413000   -3.367500
 ---------------------------------------------------------------------
                    Distance matrix (angstroms):
                    1          2          3          4          5
     1  O    0.000000
     2  C    1.352696   0.000000
     3  C    2.422687   1.514199   0.000000
     4  C    2.783498   2.524298   1.407898   0.000000
     5  C    4.174683   3.814228   2.438453   1.391570   0.000000
     6  C    5.033449   4.326932   2.813180   2.407100   1.388717
     7  C    4.849571   3.832096   2.427962   2.773585   2.404564
     8  C    3.728617   2.555354   1.411981   2.428365   2.810534
     9  O    4.223617   2.879893   2.409473   3.688282   4.193591
    10  C    5.646005   4.300954   3.720913   4.864978   5.075777
    11  O    2.226686   1.224287   2.435901   3.666391   4.865040
    12  H    0.956558   1.807101   3.181273   3.720090   5.111153
    13  H    2.442632   2.740617   2.174783   1.082282   2.123158
    14  H    4.791341   4.670629   3.414773   2.146732   1.080779
    15  H    6.084983   5.407176   3.893438   3.387281   2.145127
    16  H    5.829512   4.718867   3.415064   3.850339   3.364619
    17  H    6.134317   4.825312   4.092388   5.095052   5.131628
    18  H    6.083536   4.736092   4.464544   5.724031   6.075136
    19  H    6.134405   4.825374   4.092416   5.095085   5.131652
                    6          7          8          9         10
     6  C    0.000000
     7  C    1.391454   0.000000
     8  C    2.438308   1.406161   0.000000
     9  O    3.710072   2.438789   1.383133   0.000000
    10  C    4.241760   2.850306   2.436623   1.422432   0.000000
    11  O    5.148793   4.369058   2.969182   2.685512   3.996212
    12  H    5.903632   5.589791   4.357638   4.596099   5.994762
    13  H    3.371812   3.855293   3.420297   4.578424   5.839968
    14  H    2.144808   3.385448   3.891306   5.274340   6.132197
    15  H    1.080264   2.147573   3.414484   4.583356   4.874539
    16  H    2.117732   1.077333   2.169046   2.706571   2.538381
    17  H    4.173154   2.850678   2.769980   2.086516   1.090923
    18  H    5.312296   3.922608   3.330644   2.055422   1.089898
    19  H    4.173172   2.850700   2.770018   2.086570   1.090966
                   11         12         13         14         15
    11  O    0.000000
    12  H    2.151379   0.000000
    13  H    3.964163   3.390458   0.000000
    14  H    5.793251   5.747571   2.435064   0.000000
    15  H    6.213670   6.968850   4.259370   2.472324   0.000000
    16  H    5.072478   6.513171   4.931600   4.253174   2.432522
    17  H    4.629371   6.542156   6.103277   6.142560   4.674040
    18  H    4.152769   6.274887   6.633478   7.144794   5.964282
    19  H    4.629348   6.542230   6.103300   6.142573   4.674045
                   16         17         18         19
    16  H    0.000000
    17  H    2.348901   0.000000
    18  H    3.616705   1.759002   0.000000
    19  H    2.348890   1.781065   1.759084   0.000000
 Stoichiometry    C8H8O3
 Framework group  C1[X(C8H8O3)]
 Deg. of freedom    51
 Full point group                 C1      NOp   1
 Largest Abelian subgroup         C1      NOp   1
 Largest concise Abelian subgroup C1      NOp   1
                         Standard orientation:                         
 ---------------------------------------------------------------------
 Center     Atomic      Atomic             Coordinates (Angstroms)
 Number     Number       Type             X           Y           Z
 ---------------------------------------------------------------------
      1          8           0       -2.956621    0.298270    0.000130
      2          6           0       -1.824313   -0.441774    0.000040
      3          6           0       -0.534517    0.351462   -0.000036
      4          6           0       -0.586828    1.758387   -0.000022
      5          6           0        0.576415    2.522150   -0.000024
      6          6           0        1.816297    1.896667   -0.000005
      7          6           0        1.888452    0.507084    0.000009
      8          6           0        0.726189   -0.284391    0.000007
      9          8           0        0.782238   -1.666388    0.000029
     10          6           0        2.035362   -2.339433    0.000039
     11          8           0       -1.903272   -1.663512   -0.000175
     12          1           0       -3.630383   -0.380734    0.000086
     13          1           0       -1.533270    2.283346   -0.000075
     14          1           0        0.514396    3.601147   -0.000061
     15          1           0        2.721247    2.486610   -0.000013
     16          1           0        2.867959    0.058517   -0.000006
     17          1           0        2.618516   -2.100652    0.890559
     18          1           0        1.861866   -3.415434    0.000101
     19          1           0        2.618571   -2.100674   -0.890506
 ---------------------------------------------------------------------
 Rotational constants (GHZ):           1.3813938           1.1255784           0.6226601
 Standard basis: 6-31G(d,p) (6D, 7F)
 There are   205 symmetry adapted cartesian basis functions of A   symmetry.
 There are   205 symmetry adapted basis functions of A   symmetry.
   205 basis functions,   364 primitive gaussians,   205 cartesian basis functions
    40 alpha electrons       40 beta electrons
       nuclear repulsion energy       589.9270656136 Hartrees.
 NAtoms=   19 NActive=   19 NUniq=   19 SFac= 1.00D+00 NAtFMM=   60 NAOKFM=F Big=F
 Integral buffers will be    131072 words long.
 Raffenetti 2 integral format.
 Two-electron integral symmetry is turned on.
 Nuclear repulsion after empirical dispersion term =      589.8937251148 Hartrees.
 One-electron integrals computed using PRISM.
 NBasis=   205 RedAO= T EigKep=  4.04D-04  NBF=   205
 NBsUse=   205 1.00D-06 EigRej= -1.00D+00 NBFU=   205
 ExpMin= 1.61D-01 ExpMax= 5.48D+03 ExpMxC= 8.25D+02 IAcc=3 IRadAn=         5 AccDes= 0.00D+00
 Harris functional with IExCor=  402 and IRadAn=       5 diagonalized for initial guess.
 HarFok:  IExCor=  402 AccDes= 0.00D+00 IRadAn=         5 IDoV= 1 UseB2=F ITyADJ=14
 ICtDFT=  3500011 ScaDFX=  1.000000  1.000000  1.000000  1.000000
 FoFCou: FMM=F IPFlag=           0 FMFlag=      100000 FMFlg1=           0
         NFxFlg=           0 DoJE=T BraDBF=F KetDBF=T FulRan=T
         wScrn=  0.000000 ICntrl=       500 IOpCl=  0 I1Cent=   200000004 NGrid=           0
         NMat0=    1 NMatS0=      1 NMatT0=    0 NMatD0=    1 NMtDS0=    0 NMtDT0=    0
 Petite list used in FoFCou.
 Requested convergence on RMS density matrix=1.00D-08 within 128 cycles.
 Requested convergence on MAX density matrix=1.00D-06.
 Requested convergence on             energy=1.00D-06.
 No special actions if energy rises.
 Integral accuracy reduced to 1.0D-05 until final iterations.
 Initial convergence to 1.0D-05 achieved.  Increase integral accuracy.
 SCF Done:  E(RB3LYP) =  -535.382243546     A.U. after   15 cycles
            NFock= 15  Conv=0.45D-08     -V/T= 2.0094

 **********************************************************************

            Population analysis using the SCF Density.

 **********************************************************************

 Orbital symmetries:
       Occupied  (A) (A) (A) (A) (A) (A) (A) (A) (A) (A) (A) (A)
                 (A) (A) (A) (A) (A) (A) (A) (A) (A) (A) (A) (A)
                 (A) (A) (A) (A) (A) (A) (A) (A) (A) (A) (A) (A)
                 (A) (A) (A) (A)
       Virtual   (A) (A) (A) (A) (A) (A) (A) (A) (A) (A) (A) (A)
                 (A) (A) (A) (A) (A) (A) (A) (A) (A) (A) (A) (A)
                 (A) (A) (A) (A) (A) (A) (A) (A) (A) (A) (A) (A)
                 (A) (A) (A) (A) (A) (A) (A) (A) (A) (A) (A) (A)
                 (A) (A) (A) (A) (A) (A) (A) (A) (A) (A) (A) (A)
                 (A) (A) (A) (A) (A) (A) (A) (A) (A) (A) (A) (A)
                 (A) (A) (A) (A) (A) (A) (A) (A) (A) (A) (A) (A)
                 (A) (A) (A) (A) (A) (A) (A) (A) (A) (A) (A) (A)
                 (A) (A) (A) (A) (A) (A) (A) (A) (A) (A) (A) (A)
                 (A) (A) (A) (A) (A) (A) (A) (A) (A) (A) (A) (A)
                 (A) (A) (A) (A) (A) (A) (A) (A) (A) (A) (A) (A)
                 (A) (A) (A) (A) (A) (A) (A) (A) (A) (A) (A) (A)
                 (A) (A) (A) (A) (A) (A) (A) (A) (A) (A) (A) (A)
                 (A) (A) (A) (A) (A) (A) (A) (A) (A)
 The electronic state is 1-A.
 Alpha  occ. eigenvalues --  -19.18751 -19.17985 -19.12332 -10.31535 -10.26649
 Alpha  occ. eigenvalues --  -10.24230 -10.21093 -10.20297 -10.20224 -10.19668
 Alpha  occ. eigenvalues --  -10.19053  -1.10119  -1.05892  -0.99572  -0.86182
 Alpha  occ. eigenvalues --   -0.77274  -0.75642  -0.70456  -0.65332  -0.61133
 Alpha  occ. eigenvalues --   -0.58291  -0.53806  -0.50213  -0.48253  -0.47275
 Alpha  occ. eigenvalues --   -0.46922  -0.46234  -0.44264  -0.43698  -0.42230
 Alpha  occ. eigenvalues --   -0.39625  -0.38027  -0.37410  -0.36251  -0.33089
 Alpha  occ. eigenvalues --   -0.32437  -0.30557  -0.26173  -0.25690  -0.22993
 Alpha virt. eigenvalues --   -0.04196   0.00148   0.05953   0.08053   0.09880
 Alpha virt. eigenvalues --    0.10765   0.12238   0.14657   0.15684   0.16482
 Alpha virt. eigenvalues --    0.17636   0.18359   0.19320   0.22634   0.25111
 Alpha virt. eigenvalues --    0.26965   0.29092   0.32686   0.33507   0.37414
 Alpha virt. eigenvalues --    0.39217   0.47411   0.50224   0.50477   0.52785
 Alpha virt. eigenvalues --    0.54155   0.54781   0.55012   0.56578   0.58074
 Alpha virt. eigenvalues --    0.59506   0.60061   0.60165   0.60336   0.62264
 Alpha virt. eigenvalues --    0.63876   0.65894   0.67382   0.69809   0.72140
 Alpha virt. eigenvalues --    0.75376   0.78318   0.78820   0.80634   0.81247
 Alpha virt. eigenvalues --    0.82244   0.82710   0.84386   0.86856   0.87383
 Alpha virt. eigenvalues --    0.90666   0.91626   0.92774   0.93428   0.96836
 Alpha virt. eigenvalues --    0.98842   1.02090   1.03350   1.03719   1.05245
 Alpha virt. eigenvalues --    1.05502   1.08443   1.11975   1.16439   1.23309
 Alpha virt. eigenvalues --    1.24086   1.26524   1.28273   1.29386   1.30341
 Alpha virt. eigenvalues --    1.32204   1.34854   1.36815   1.39085   1.40508
 Alpha virt. eigenvalues --    1.42339   1.45492   1.45534   1.48432   1.55554
 Alpha virt. eigenvalues --    1.57022   1.62998   1.63873   1.73536   1.74245
 Alpha virt. eigenvalues --    1.77868   1.79007   1.80163   1.83637   1.85168
 Alpha virt. eigenvalues --    1.85737   1.87650   1.88019   1.88862   1.93262
 Alpha virt. eigenvalues --    1.94359   1.96615   1.97640   1.99842   2.00202
 Alpha virt. eigenvalues --    2.02030   2.02194   2.03167   2.06502   2.07491
 Alpha virt. eigenvalues --    2.07758   2.14101   2.19677   2.25087   2.27556
 Alpha virt. eigenvalues --    2.28437   2.32598   2.33719   2.37638   2.38379
 Alpha virt. eigenvalues --    2.40097   2.40362   2.45801   2.47043   2.49941
 Alpha virt. eigenvalues --    2.50358   2.53148   2.55002   2.56087   2.56675
 Alpha virt. eigenvalues --    2.57678   2.60513   2.61079   2.64089   2.65680
 Alpha virt. eigenvalues --    2.67617   2.71511   2.72865   2.75502   2.75944
 Alpha virt. eigenvalues --    2.78592   2.85124   2.86187   2.87869   2.96652
 Alpha virt. eigenvalues --    3.02470   3.09960   3.11097   3.14514   3.17605
 Alpha virt. eigenvalues --    3.22017   3.24976   3.34050   3.39382   3.40973
 Alpha virt. eigenvalues --    3.45120   3.47891   3.48371   3.84695   3.93555
 Alpha virt. eigenvalues --    4.08383   4.12045   4.13969   4.24557   4.33328
 Alpha virt. eigenvalues --    4.44454   4.46179   4.50581   4.62458   4.84868
          Condensed to atoms (all electrons):
               1          2          3          4          5          6
     1  O    8.124116   0.268724  -0.088908   0.000867   0.000312  -0.000003
     2  C    0.268724   4.433770   0.279983  -0.041137   0.004932  -0.000348
     3  C   -0.088908   0.279983   5.085950   0.487330  -0.019919  -0.034836
     4  C    0.000867  -0.041137   0.487330   4.934198   0.505942  -0.027546
     5  C    0.000312   0.004932  -0.019919   0.505942   4.845493   0.535336
     6  C   -0.000003  -0.000348  -0.034836  -0.027546   0.535336   4.814463
     7  C   -0.000047   0.008560  -0.056104  -0.054447  -0.026624   0.499516
     8  C    0.001795  -0.040595   0.486569  -0.041812  -0.044357  -0.003790
     9  O    0.000005  -0.000534  -0.064034   0.003308  -0.000121   0.004177
    10  C    0.000001  -0.000188   0.005309  -0.000067   0.000000   0.000268
    11  O   -0.097417   0.559367  -0.073740   0.003698  -0.000052  -0.000011
    12  H    0.274846  -0.015849   0.012524  -0.000903   0.000005   0.000001
    13  H    0.007842  -0.010165  -0.036075   0.373412  -0.042790   0.005361
    14  H   -0.000001  -0.000114   0.004064  -0.037704   0.369497  -0.042514
    15  H    0.000000   0.000005   0.000637   0.004754  -0.039587   0.368321
    16  H    0.000000  -0.000111   0.003579   0.000806   0.004950  -0.039723
    17  H   -0.000000   0.000032  -0.000428  -0.000017  -0.000002  -0.000078
    18  H    0.000000  -0.000053   0.000071   0.000005  -0.000000  -0.000002
    19  H   -0.000000   0.000032  -0.000428  -0.000017  -0.000002  -0.000078
               7          8          9         10         11         12
     1  O   -0.000047   0.001795   0.000005   0.000001  -0.097417   0.274846
     2  C    0.008560  -0.040595  -0.000534  -0.000188   0.559367  -0.015849
     3  C   -0.056104   0.486569  -0.064034   0.005309  -0.073740   0.012524
     4  C   -0.054447  -0.041812   0.003308  -0.000067   0.003698  -0.000903
     5  C   -0.026624  -0.044357  -0.000121   0.000000  -0.000052   0.000005
     6  C    0.499516  -0.003790   0.004177   0.000268  -0.000011   0.000001
     7  C    5.057163   0.433222  -0.065540  -0.007012   0.000238   0.000004
     8  C    0.433222   4.661332   0.298360  -0.036399  -0.001688  -0.000012
     9  O   -0.065540   0.298360   8.188406   0.248517  -0.007717   0.000011
    10  C   -0.007012  -0.036399   0.248517   4.718095   0.000346  -0.000000
    11  O    0.000238  -0.001688  -0.007717   0.000346   8.075003   0.014453
    12  H    0.000004  -0.000012   0.000011  -0.000000   0.014453   0.396656
    13  H    0.000168   0.004738  -0.000035   0.000002   0.000153  -0.000214
    14  H    0.005369   0.000737   0.000001  -0.000000   0.000000  -0.000000
    15  H   -0.037547   0.003662  -0.000045  -0.000009  -0.000000   0.000000
    16  H    0.367801  -0.041821  -0.008799   0.005865   0.000004  -0.000000
    17  H    0.005121  -0.006414  -0.033313   0.372235  -0.000020   0.000000
    18  H   -0.000010   0.002890  -0.030447   0.397860   0.000078  -0.000000
    19  H    0.005121  -0.006413  -0.033312   0.372233  -0.000020   0.000000
              13         14         15         16         17         18
     1  O    0.007842  -0.000001   0.000000   0.000000  -0.000000   0.000000
     2  C   -0.010165  -0.000114   0.000005  -0.000111   0.000032  -0.000053
     3  C   -0.036075   0.004064   0.000637   0.003579  -0.000428   0.000071
     4  C    0.373412  -0.037704   0.004754   0.000806  -0.000017   0.000005
     5  C   -0.042790   0.369497  -0.039587   0.004950  -0.000002  -0.000000
     6  C    0.005361  -0.042514   0.368321  -0.039723  -0.000078  -0.000002
     7  C    0.000168   0.005369  -0.037547   0.367801   0.005121  -0.000010
     8  C    0.004738   0.000737   0.003662  -0.041821  -0.006414   0.002890
     9  O   -0.000035   0.000001  -0.000045  -0.008799  -0.033313  -0.030447
    10  C    0.000002  -0.000000  -0.000009   0.005865   0.372235   0.397860
    11  O    0.000153   0.000000  -0.000000   0.000004  -0.000020   0.000078
    12  H   -0.000214  -0.000000   0.000000  -0.000000   0.000000  -0.000000
    13  H    0.586646  -0.006417  -0.000203   0.000012  -0.000000  -0.000000
    14  H   -0.006417   0.625724  -0.005902  -0.000209   0.000000  -0.000000
    15  H   -0.000203  -0.005902   0.618055  -0.006595   0.000004  -0.000000
    16  H    0.000012  -0.000209  -0.006595   0.619445   0.001647  -0.000152
    17  H   -0.000000   0.000000   0.000004   0.001647   0.634717  -0.035855
    18  H   -0.000000  -0.000000  -0.000000  -0.000152  -0.035855   0.567999
    19  H   -0.000000   0.000000   0.000004   0.001647  -0.048975  -0.035848
              19
     1  O   -0.000000
     2  C    0.000032
     3  C   -0.000428
     4  C   -0.000017
     5  C   -0.000002
     6  C   -0.000078
     7  C    0.005121
     8  C   -0.006413
     9  O   -0.033312
    10  C    0.372233
    11  O   -0.000020
    12  H    0.000000
    13  H   -0.000000
    14  H    0.000000
    15  H    0.000004
    16  H    0.001647
    17  H   -0.048975
    18  H   -0.035848
    19  H    0.634716
 Mulliken charges:
               1
     1  O   -0.492132
     2  C    0.553690
     3  C    0.008457
     4  C   -0.110671
     5  C   -0.093015
     6  C   -0.078514
     7  C   -0.134952
     8  C    0.329996
     9  O   -0.498889
    10  C   -0.077055
    11  O   -0.472674
    12  H    0.318479
    13  H    0.117565
    14  H    0.087469
    15  H    0.094447
    16  H    0.091653
    17  H    0.111344
    18  H    0.133463
    19  H    0.111339
 Sum of Mulliken charges =  -0.00000
 Mulliken charges with hydrogens summed into heavy atoms:
               1
     1  O   -0.173653
     2  C    0.553690
     3  C    0.008457
     4  C    0.006895
     5  C   -0.005546
     6  C    0.015933
     7  C   -0.043299
     8  C    0.329996
     9  O   -0.498889
    10  C    0.279091
    11  O   -0.472674
 Electronic spatial extent (au):  <R**2>=           1751.8825
 Charge=             -0.0000 electrons
 Dipole moment (field-independent basis, Debye):
    X=              2.1950    Y=              1.2388    Z=              0.0003  Tot=              2.5205
 Quadrupole moment (field-independent basis, Debye-Ang):
   XX=            -50.5874   YY=            -60.1772   ZZ=            -64.4260
   XY=             -4.4418   XZ=             -0.0003   YZ=             -0.0013
 Traceless Quadrupole moment (field-independent basis, Debye-Ang):
   XX=              7.8095   YY=             -1.7803   ZZ=             -6.0292
   XY=             -4.4418   XZ=             -0.0003   YZ=             -0.0013
 Octapole moment (field-independent basis, Debye-Ang**2):
  XXX=            -28.2543  YYY=             -2.4450  ZZZ=              0.0002  XYY=             18.3816
  XXY=            -14.3828  XXZ=              0.0007  XZZ=             -7.6341  YZZ=             -9.5022
  YYZ=              0.0012  XYZ=              0.0015
 Hexadecapole moment (field-independent basis, Debye-Ang**3):
 XXXX=           -945.8969 YYYY=           -922.7226 ZZZZ=            -67.2168 XXXY=             26.2670
 XXXZ=             -0.0025 YYYX=            -44.0233 YYYZ=             -0.0064 ZZZX=              0.0001
 ZZZY=              0.0007 XXYY=           -337.8271 XXZZ=           -205.5796 YYZZ=           -189.2786
 XXYZ=             -0.0054 YYXZ=             -0.0002 ZZXY=             -3.2028
 N-N= 5.898937251148D+02 E-N=-2.429288644742D+03  KE= 5.304175159281D+02
 Calling FoFJK, ICntrl=      2127 FMM=F ISym2X=0 I1Cent= 0 IOpClX= 0 NMat=1 NMatS=1 NMatT=0.
 ***** Axes restored to original set *****
 -------------------------------------------------------------------
 Center     Atomic                   Forces (Hartrees/Bohr)
 Number     Number              X              Y              Z
 -------------------------------------------------------------------
      1        8           0.016831175   -0.011489768    0.005880670
      2        6          -0.008443299   -0.017066753   -0.017837204
      3        6          -0.007615387    0.020547384    0.007351560
      4        6           0.001158533   -0.005402997   -0.002602850
      5        6           0.000502062    0.003054301    0.002382872
      6        6          -0.005553191    0.004825024   -0.001264031
      7        6           0.000217332   -0.000213471    0.000031398
      8        6          -0.011863089   -0.012391676   -0.017463118
      9        8           0.008761427    0.006464299    0.011144139
     10        6           0.005878013   -0.001379620    0.003740940
     11        8           0.011393913   -0.001994104    0.007751183
     12        1          -0.010383260    0.013360056    0.000457435
     13        1          -0.005106188    0.003269760   -0.001916796
     14        1           0.002038589    0.000877336    0.002187367
     15        1           0.001644157   -0.003326694   -0.000860086
     16        1          -0.003621490   -0.001720957   -0.003987158
     17        1           0.001302365   -0.003723959    0.002700995
     18        1          -0.001580116    0.007434906    0.003575316
     19        1           0.004438455   -0.001123064   -0.001272632
 -------------------------------------------------------------------
 Cartesian Forces:  Max     0.020547384 RMS     0.007676219

 GradGradGradGradGradGradGradGradGradGradGradGradGradGradGradGradGradGrad
 Berny optimization.
 FormGI is forming the generalized inverse of G from B-inverse, IUseBI=4.
 Internal  Forces:  Max     0.027361270 RMS     0.005992402
 Search for a local minimum.
 Step number   1 out of a maximum of   93
 All quantities printed in internal units (Hartrees-Bohrs-Radians)
 Mixed Optimization -- RFO/linear search
 Second derivative matrix not updated -- first step.
 ITU=  0
     Eigenvalues ---    0.00578   0.01109   0.01395   0.01535   0.01915
     Eigenvalues ---    0.01961   0.01970   0.02086   0.02093   0.02100
     Eigenvalues ---    0.02205   0.02214   0.02223   0.02318   0.09951
     Eigenvalues ---    0.10337   0.16000   0.16000   0.16000   0.16000
     Eigenvalues ---    0.16000   0.16000   0.16000   0.16000   0.22000
     Eigenvalues ---    0.22483   0.24472   0.25000   0.25000   0.25000
     Eigenvalues ---    0.25000   0.25000   0.30932   0.34701   0.34706
     Eigenvalues ---    0.34824   0.35720   0.35900   0.35962   0.36318
     Eigenvalues ---    0.41224   0.41305   0.42096   0.44244   0.46080
     Eigenvalues ---    0.46185   0.47258   0.48534   0.54452   0.56220
     Eigenvalues ---    0.93509
 RFO step:  Lambda=-9.18441454D-03 EMin= 5.78128099D-03
 Linear search not attempted -- first point.
 Iteration  1 RMS(Cart)=  0.05869761 RMS(Int)=  0.00161914
 Iteration  2 RMS(Cart)=  0.00230841 RMS(Int)=  0.00004111
 Iteration  3 RMS(Cart)=  0.00000519 RMS(Int)=  0.00004101
 Iteration  4 RMS(Cart)=  0.00000000 RMS(Int)=  0.00004101
 Variable       Old X    -DE/DX   Delta X   Delta X   Delta X     New X
                                 (Linear)    (Quad)   (Total)
    R1        2.55622   0.00672   0.00000   0.01214   0.01214   2.56837
    R2        1.80763   0.01617   0.00000   0.02830   0.02830   1.83593
    R3        2.86142  -0.01912   0.00000  -0.06003  -0.06003   2.80139
    R4        2.31357  -0.01387   0.00000  -0.01469  -0.01469   2.29888
    R5        2.66054  -0.00645   0.00000  -0.01483  -0.01483   2.64572
    R6        2.66826   0.00043   0.00000   0.00025   0.00025   2.66851
    R7        2.62969  -0.00071   0.00000  -0.00137  -0.00137   2.62832
    R8        2.04522   0.00065   0.00000   0.00177   0.00177   2.04698
    R9        2.62429   0.00589   0.00000   0.01281   0.01281   2.63710
   R10        2.04238   0.00300   0.00000   0.00815   0.00815   2.05053
   R11        2.62947   0.00119   0.00000   0.00303   0.00303   2.63250
   R12        2.04140   0.00355   0.00000   0.00962   0.00962   2.05103
   R13        2.65726  -0.00515   0.00000  -0.01142  -0.01142   2.64584
   R14        2.03586   0.00400   0.00000   0.01073   0.01073   2.04660
   R15        2.61374  -0.02736   0.00000  -0.05533  -0.05533   2.55841
   R16        2.68801  -0.00756   0.00000  -0.01759  -0.01759   2.67042
   R17        2.06155   0.00437   0.00000   0.01227   0.01227   2.07382
   R18        2.05961   0.00042   0.00000   0.00117   0.00117   2.06077
   R19        2.06163   0.00434   0.00000   0.01219   0.01219   2.07382
    A1        1.77344   0.00904   0.00000   0.05342   0.05342   1.82686
    A2        2.01133  -0.01585   0.00000  -0.06115  -0.06115   1.95018
    A3        2.08514   0.00936   0.00000   0.03613   0.03613   2.12127
    A4        2.18672   0.00649   0.00000   0.02502   0.02502   2.21174
    A5        2.08501  -0.00334   0.00000  -0.01182  -0.01182   2.07319
    A6        2.12308   0.00272   0.00000   0.01157   0.01157   2.13464
    A7        2.07509   0.00061   0.00000   0.00024   0.00025   2.07535
    A8        2.11462   0.00129   0.00000   0.00496   0.00497   2.11958
    A9        2.11438  -0.00711   0.00000  -0.04072  -0.04072   2.07366
   A10        2.05419   0.00583   0.00000   0.03576   0.03575   2.08994
   A11        2.09339  -0.00337   0.00000  -0.01275  -0.01276   2.08063
   A12        2.09437   0.00083   0.00000   0.00134   0.00134   2.09571
   A13        2.09543   0.00254   0.00000   0.01141   0.01142   2.10685
   A14        2.08989   0.00219   0.00000   0.01241   0.01241   2.10230
   A15        2.09666   0.00031   0.00000   0.00213   0.00214   2.09880
   A16        2.09663  -0.00251   0.00000  -0.01455  -0.01454   2.08209
   A17        2.11676  -0.00383   0.00000  -0.01553  -0.01553   2.10123
   A18        2.05212   0.00598   0.00000   0.03184   0.03184   2.08396
   A19        2.11430  -0.00216   0.00000  -0.01630  -0.01630   2.09800
   A20        2.07662   0.00310   0.00000   0.01066   0.01067   2.08728
   A21        2.07846  -0.00366   0.00000  -0.01348  -0.01348   2.06498
   A22        2.12811   0.00056   0.00000   0.00282   0.00282   2.13093
   A23        2.10421  -0.01589   0.00000  -0.06132  -0.06132   2.04289
   A24        1.94697   0.00122   0.00000   0.00805   0.00791   1.95488
   A25        1.90381  -0.01206   0.00000  -0.07285  -0.07302   1.83079
   A26        1.94700   0.00122   0.00000   0.00801   0.00787   1.95487
   A27        1.87668   0.00505   0.00000   0.02835   0.02819   1.90487
   A28        1.90993  -0.00025   0.00000   0.00130   0.00119   1.91112
   A29        1.87675   0.00504   0.00000   0.02829   0.02812   1.90487
    D1        3.14151   0.00000   0.00000   0.00026   0.00026  -3.14142
    D2        0.00010  -0.00001   0.00000  -0.00031  -0.00031  -0.00020
    D3       -0.00001  -0.00001   0.00000  -0.00033  -0.00033  -0.00034
    D4        3.14148  -0.00001   0.00000  -0.00026  -0.00026   3.14122
    D5        3.14138   0.00001   0.00000   0.00027   0.00027  -3.14154
    D6       -0.00032   0.00001   0.00000   0.00034   0.00034   0.00002
    D7        3.14154   0.00000   0.00000   0.00005   0.00005   3.14158
    D8       -0.00013   0.00000   0.00000   0.00009   0.00009  -0.00003
    D9        0.00005  -0.00000   0.00000  -0.00002  -0.00002   0.00002
   D10        3.14157   0.00000   0.00000   0.00002   0.00002   3.14159
   D11       -3.14153  -0.00000   0.00000  -0.00005  -0.00005  -3.14158
   D12        0.00008  -0.00000   0.00000  -0.00007  -0.00007   0.00001
   D13       -0.00004   0.00000   0.00000   0.00002   0.00002  -0.00002
   D14        3.14156  -0.00000   0.00000   0.00000   0.00000   3.14157
   D15       -0.00003   0.00000   0.00000   0.00001   0.00001  -0.00002
   D16        3.14154   0.00000   0.00000   0.00003   0.00003   3.14158
   D17       -3.14155  -0.00000   0.00000  -0.00003  -0.00003  -3.14158
   D18        0.00002  -0.00000   0.00000  -0.00001  -0.00001   0.00001
   D19        0.00001  -0.00000   0.00000  -0.00000  -0.00000   0.00000
   D20        3.14159   0.00000   0.00000   0.00001   0.00001  -3.14159
   D21       -3.14157  -0.00000   0.00000  -0.00002  -0.00002  -3.14159
   D22        0.00001  -0.00000   0.00000  -0.00001  -0.00001   0.00001
   D23       -0.00000   0.00000   0.00000   0.00000   0.00000  -0.00000
   D24        3.14156   0.00000   0.00000   0.00002   0.00002   3.14159
   D25       -3.14158  -0.00000   0.00000  -0.00001  -0.00001   3.14159
   D26       -0.00002   0.00000   0.00000   0.00001   0.00001  -0.00001
   D27        0.00002  -0.00000   0.00000  -0.00001  -0.00001   0.00001
   D28       -3.14159   0.00000   0.00000   0.00001   0.00001  -3.14158
   D29       -3.14154  -0.00000   0.00000  -0.00004  -0.00004  -3.14158
   D30        0.00004  -0.00000   0.00000  -0.00002  -0.00002   0.00002
   D31        3.14157   0.00000   0.00000   0.00002   0.00002   3.14158
   D32       -0.00001  -0.00000   0.00000  -0.00000  -0.00000  -0.00001
   D33        1.07099   0.00072   0.00000   0.00663   0.00658   1.07756
   D34        3.14155   0.00000   0.00000   0.00004   0.00004   3.14158
   D35       -1.07097  -0.00072   0.00000  -0.00667  -0.00661  -1.07758
         Item               Value     Threshold  Converged?
 Maximum Force            0.027361     0.000450     NO 
 RMS     Force            0.005992     0.000300     NO 
 Maximum Displacement     0.196171     0.001800     NO 
 RMS     Displacement     0.060002     0.001200     NO 
 Predicted change in Energy=-4.750009D-03
 GradGradGradGradGradGradGradGradGradGradGradGradGradGradGradGradGradGrad

                          Input orientation:                          
 ---------------------------------------------------------------------
 Center     Atomic      Atomic             Coordinates (Angstroms)
 Number     Number       Type             X           Y           Z
 ---------------------------------------------------------------------
      1          8           0       -0.498465    3.072010    0.759657
      2          6           0       -0.841147    2.110522   -0.137739
      3          6           0        0.113389    0.976457   -0.118668
      4          6           0        1.195786    1.021158    0.768218
      5          6           0        2.124457   -0.012245    0.832261
      6          6           0        1.972709   -1.117207   -0.006452
      7          6           0        0.904258   -1.185657   -0.897708
      8          6           0       -0.031278   -0.146034   -0.963152
      9          8           0       -1.082268   -0.176771   -1.816027
     10          6           0       -1.201205   -1.312345   -2.648643
     11          8           0       -1.824735    2.221618   -0.844931
     12          1           0       -1.182491    3.754955    0.661806
     13          1           0        1.305247    1.882944    1.415291
     14          1           0        2.955095    0.045464    1.528061
     15          1           0        2.687463   -1.933195    0.029436
     16          1           0        0.802913   -2.051159   -1.540788
     17          1           0       -1.332548   -2.235085   -2.069310
     18          1           0       -2.098103   -1.132073   -3.242190
     19          1           0       -0.340679   -1.421258   -3.320922
 ---------------------------------------------------------------------
                    Distance matrix (angstroms):
                    1          2          3          4          5
     1  O    0.000000
     2  C    1.359121   0.000000
     3  C    2.353119   1.482433   0.000000
     4  C    2.660180   2.481243   1.400053   0.000000
     5  C    4.049398   3.773837   2.434377   1.390846   0.000000
     6  C    4.923735   4.284070   2.802336   2.403399   1.395496
     7  C    4.779354   3.806414   2.430455   2.780347   2.420449
     8  C    3.679965   2.535595   1.412114   2.421913   2.808665
     9  O    4.186832   2.847192   2.374986   3.647312   4.162161
    10  C    5.597582   4.260317   3.656165   4.781813   4.986680
    11  O    2.248747   1.216515   2.415411   3.628622   4.837275
    12  H    0.971535   1.860093   3.163621   3.625075   5.015651
    13  H    2.257679   2.659079   2.143659   1.083218   2.145406
    14  H    4.655911   4.631501   3.413760   2.150467   1.085094
    15  H    5.977913   5.369421   3.887655   3.391033   2.156746
    16  H    5.764763   4.689463   3.415307   3.863287   3.396322
    17  H    6.071574   4.780873   4.026132   5.004713   5.031005
    18  H    6.020627   4.661758   4.369552   5.618672   5.973707
    19  H    6.071695   4.780857   4.026120   5.004716   5.031017
                    6          7          8          9         10
     6  C    0.000000
     7  C    1.393057   0.000000
     8  C    2.423719   1.400117   0.000000
     9  O    3.673127   2.409865   1.353854   0.000000
    10  C    4.134365   2.741313   2.360061   1.413125   0.000000
    11  O    5.125561   4.365743   2.972581   2.691943   4.016349
    12  H    5.842929   5.585361   4.379897   4.648460   6.052847
    13  H    3.386408   3.863556   3.400006   4.514872   5.745235
    14  H    2.161393   3.406750   3.893743   5.247153   6.046762
    15  H    1.085356   2.144348   3.401577   4.549905   4.762278
    16  H    2.143566   1.083012   2.158480   2.672637   2.406174
    17  H    4.053363   2.734456   2.698337   2.088886   1.097418
    18  H    5.200166   3.809677   3.230798   1.994608   1.090515
    19  H    4.053383   2.734473   2.698333   2.088878   1.097418
                   11         12         13         14         15
    11  O    0.000000
    12  H    2.243626   0.000000
    13  H    3.875577   3.203281   0.000000
    14  H    5.763116   5.624085   2.472053   0.000000
    15  H    6.195718   6.908798   4.288826   2.496517   0.000000
    16  H    5.064125   6.519525   4.946504   4.294828   2.455819
    17  H    4.647962   6.584990   6.004879   6.043663   4.544927
    18  H    4.131443   6.321596   6.508859   7.048170   5.852091
    19  H    4.647956   6.585131   6.004876   6.043677   4.544955
                   16         17         18         19
    16  H    0.000000
    17  H    2.207568   0.000000
    18  H    3.486456   1.782794   0.000000
    19  H    2.207590   1.792386   1.782797   0.000000
 Stoichiometry    C8H8O3
 Framework group  C1[X(C8H8O3)]
 Deg. of freedom    51
 Full point group                 C1      NOp   1
 Largest Abelian subgroup         C1      NOp   1
 Largest concise Abelian subgroup C1      NOp   1
                         Standard orientation:                         
 ---------------------------------------------------------------------
 Center     Atomic      Atomic             Coordinates (Angstroms)
 Number     Number       Type             X           Y           Z
 ---------------------------------------------------------------------
      1          8           0       -2.904221    0.249679    0.000243
      2          6           0       -1.786610   -0.523725   -0.000155
      3          6           0       -0.551563    0.296192   -0.000102
      4          6           0       -0.668567    1.691347   -0.000091
      5          6           0        0.453257    2.513517   -0.000030
      6          6           0        1.722584    1.933674    0.000039
      7          6           0        1.865813    0.547999    0.000042
      8          6           0        0.737316   -0.280747   -0.000022
      9          8           0        0.836465   -1.630966   -0.000005
     10          6           0        2.138700   -2.179697    0.000064
     11          8           0       -1.853333   -1.738409   -0.000116
     12          1           0       -3.641384   -0.383149    0.000330
     13          1           0       -1.657998    2.132241   -0.000153
     14          1           0        0.336784    3.592341   -0.000037
     15          1           0        2.609518    2.559250    0.000092
     16          1           0        2.858994    0.116136    0.000089
     17          1           0        2.704669   -1.895428    0.896276
     18          1           0        1.987816   -3.259724    0.000075
     19          1           0        2.704740   -1.895452   -0.896111
 ---------------------------------------------------------------------
 Rotational constants (GHZ):           1.4219217           1.1428614           0.6361875
 Standard basis: 6-31G(d,p) (6D, 7F)
 There are   205 symmetry adapted cartesian basis functions of A   symmetry.
 There are   205 symmetry adapted basis functions of A   symmetry.
   205 basis functions,   364 primitive gaussians,   205 cartesian basis functions
    40 alpha electrons       40 beta electrons
       nuclear repulsion energy       594.6006440651 Hartrees.
 NAtoms=   19 NActive=   19 NUniq=   19 SFac= 1.00D+00 NAtFMM=   60 NAOKFM=F Big=F
 Integral buffers will be    131072 words long.
 Raffenetti 2 integral format.
 Two-electron integral symmetry is turned on.
 Nuclear repulsion after empirical dispersion term =      594.5668962400 Hartrees.
 One-electron integrals computed using PRISM.
 NBasis=   205 RedAO= T EigKep=  4.01D-04  NBF=   205
 NBsUse=   205 1.00D-06 EigRej= -1.00D+00 NBFU=   205
 Initial guess from the checkpoint file:  "Ac4_conf-2.chk"
 B after Tr=    -0.000000    0.000000   -0.000000
         Rot=    0.999813    0.000001   -0.000000   -0.019339 Ang=   2.22 deg.
 ExpMin= 1.61D-01 ExpMax= 5.48D+03 ExpMxC= 8.25D+02 IAcc=3 IRadAn=         5 AccDes= 0.00D+00
 Harris functional with IExCor=  402 and IRadAn=       5 diagonalized for initial guess.
 HarFok:  IExCor=  402 AccDes= 0.00D+00 IRadAn=         5 IDoV= 1 UseB2=F ITyADJ=14
 ICtDFT=  3500011 ScaDFX=  1.000000  1.000000  1.000000  1.000000
 FoFCou: FMM=F IPFlag=           0 FMFlag=      100000 FMFlg1=           0
         NFxFlg=           0 DoJE=T BraDBF=F KetDBF=T FulRan=T
         wScrn=  0.000000 ICntrl=       500 IOpCl=  0 I1Cent=   200000004 NGrid=           0
         NMat0=    1 NMatS0=      1 NMatT0=    0 NMatD0=    1 NMtDS0=    0 NMtDT0=    0
 Petite list used in FoFCou.
 Requested convergence on RMS density matrix=1.00D-08 within 128 cycles.
 Requested convergence on MAX density matrix=1.00D-06.
 Requested convergence on             energy=1.00D-06.
 No special actions if energy rises.
 Integral accuracy reduced to 1.0D-05 until final iterations.
 Initial convergence to 1.0D-05 achieved.  Increase integral accuracy.
 SCF Done:  E(RB3LYP) =  -535.386086696     A.U. after   12 cycles
            NFock= 12  Conv=0.48D-08     -V/T= 2.0091
 Calling FoFJK, ICntrl=      2127 FMM=F ISym2X=0 I1Cent= 0 IOpClX= 0 NMat=1 NMatS=1 NMatT=0.
 ***** Axes restored to original set *****
 -------------------------------------------------------------------
 Center     Atomic                   Forces (Hartrees/Bohr)
 Number     Number              X              Y              Z
 -------------------------------------------------------------------
      1        8          -0.002157236    0.005063892    0.001562064
      2        6          -0.004816970   -0.005407632   -0.007260975
      3        6           0.000290032    0.004535438    0.003162212
      4        6           0.004310236   -0.002942233    0.001497475
      5        6           0.000486106   -0.000754724   -0.000103997
      6        6          -0.000688272    0.002037795    0.000779358
      7        6           0.003494665   -0.001906718    0.001530217
      8        6          -0.002619148   -0.001466385   -0.003032033
      9        8           0.003688769    0.001040027    0.003598951
     10        6          -0.006228081   -0.000839281   -0.005482188
     11        8           0.003355912    0.001538657    0.003631662
     12        1           0.000538504   -0.000090225    0.000367850
     13        1          -0.000833579   -0.000400602   -0.000920649
     14        1          -0.000152875   -0.000309991   -0.000322204
     15        1           0.000164166   -0.000295596   -0.000062650
     16        1           0.000830723    0.001000180    0.001309514
     17        1           0.000365743    0.000404965   -0.000054428
     18        1           0.000075674   -0.001226339   -0.000737782
     19        1          -0.000104368    0.000018772    0.000537601
 -------------------------------------------------------------------
 Cartesian Forces:  Max     0.007260975 RMS     0.002558182

 GradGradGradGradGradGradGradGradGradGradGradGradGradGradGradGradGradGrad
 Berny optimization.
 Using GEDIIS/GDIIS optimizer.
 FormGI is forming the generalized inverse of G from B-inverse, IUseBI=4.
 Internal  Forces:  Max     0.013851618 RMS     0.002460357
 Search for a local minimum.
 Step number   2 out of a maximum of   93
 All quantities printed in internal units (Hartrees-Bohrs-Radians)
 Mixed Optimization -- RFO/linear search
 Update second derivatives using D2CorX and points    1    2
 DE= -3.84D-03 DEPred=-4.75D-03 R= 8.09D-01
 TightC=F SS=  1.41D+00  RLast= 1.85D-01 DXNew= 5.0454D-01 5.5626D-01
 Trust test= 8.09D-01 RLast= 1.85D-01 DXMaxT set to 5.05D-01
 ITU=  1  0
 Use linear search instead of GDIIS.
     Eigenvalues ---    0.00578   0.01111   0.01395   0.01534   0.01915
     Eigenvalues ---    0.01962   0.01970   0.02088   0.02095   0.02102
     Eigenvalues ---    0.02205   0.02214   0.02224   0.02318   0.09934
     Eigenvalues ---    0.10712   0.14926   0.16000   0.16000   0.16000
     Eigenvalues ---    0.16000   0.16000   0.16000   0.16193   0.21640
     Eigenvalues ---    0.22508   0.23654   0.24481   0.25000   0.25000
     Eigenvalues ---    0.25000   0.28936   0.33649   0.34704   0.34822
     Eigenvalues ---    0.34913   0.35742   0.35929   0.35937   0.36601
     Eigenvalues ---    0.41284   0.41564   0.43125   0.44886   0.46064
     Eigenvalues ---    0.46145   0.47283   0.51263   0.54311   0.57054
     Eigenvalues ---    0.92325
 RFO step:  Lambda=-9.99548745D-04 EMin= 5.78128098D-03
 Quartic linear search produced a step of -0.15522.
 Iteration  1 RMS(Cart)=  0.03946970 RMS(Int)=  0.00049045
 Iteration  2 RMS(Cart)=  0.00106952 RMS(Int)=  0.00000647
 Iteration  3 RMS(Cart)=  0.00000058 RMS(Int)=  0.00000646
 Variable       Old X    -DE/DX   Delta X   Delta X   Delta X     New X
                                 (Linear)    (Quad)   (Total)
    R1        2.56837   0.00438  -0.00188   0.01009   0.00821   2.57657
    R2        1.83593  -0.00048  -0.00439   0.00697   0.00258   1.83851
    R3        2.80139   0.00285   0.00932  -0.00902   0.00030   2.80169
    R4        2.29888  -0.00468   0.00228  -0.00816  -0.00588   2.29300
    R5        2.64572   0.00313   0.00230   0.00211   0.00441   2.65012
    R6        2.66851   0.00382  -0.00004   0.00793   0.00789   2.67640
    R7        2.62832  -0.00050   0.00021  -0.00151  -0.00130   2.62701
    R8        2.04698  -0.00095  -0.00027  -0.00176  -0.00203   2.04495
    R9        2.63710  -0.00176  -0.00199  -0.00008  -0.00207   2.63503
   R10        2.05053  -0.00034  -0.00127   0.00146   0.00020   2.05073
   R11        2.63250  -0.00013  -0.00047   0.00039  -0.00008   2.63241
   R12        2.05103   0.00033  -0.00149   0.00344   0.00194   2.05297
   R13        2.64584   0.00358   0.00177   0.00388   0.00566   2.65149
   R14        2.04660  -0.00165  -0.00167  -0.00086  -0.00253   2.04407
   R15        2.55841   0.00307   0.00859  -0.00979  -0.00120   2.55721
   R16        2.67042   0.00520   0.00273   0.00556   0.00829   2.67871
   R17        2.07382  -0.00041  -0.00191   0.00241   0.00050   2.07432
   R18        2.06077   0.00014  -0.00018   0.00065   0.00047   2.06125
   R19        2.07382  -0.00041  -0.00189   0.00238   0.00049   2.07431
    A1        1.82686   0.00083  -0.00829   0.02012   0.01183   1.83868
    A2        1.95018   0.00365   0.00949  -0.00505   0.00444   1.95462
    A3        2.12127  -0.00436  -0.00561  -0.00444  -0.01005   2.11122
    A4        2.21174   0.00071  -0.00388   0.00949   0.00561   2.21735
    A5        2.07319   0.00511   0.00183   0.01328   0.01511   2.08831
    A6        2.13464  -0.00438  -0.00180  -0.01203  -0.01382   2.12082
    A7        2.07535  -0.00074  -0.00004  -0.00125  -0.00129   2.07406
    A8        2.11958   0.00107  -0.00077   0.00526   0.00449   2.12407
    A9        2.07366  -0.00145   0.00632  -0.01871  -0.01239   2.06127
   A10        2.08994   0.00038  -0.00555   0.01345   0.00790   2.09784
   A11        2.08063  -0.00024   0.00198  -0.00626  -0.00429   2.07635
   A12        2.09571   0.00045  -0.00021   0.00341   0.00320   2.09891
   A13        2.10685  -0.00022  -0.00177   0.00286   0.00109   2.10793
   A14        2.10230   0.00133  -0.00193   0.00701   0.00509   2.10739
   A15        2.09880  -0.00056  -0.00033  -0.00049  -0.00083   2.09797
   A16        2.08209  -0.00077   0.00226  -0.00652  -0.00426   2.07783
   A17        2.10123   0.00073   0.00241  -0.00173   0.00068   2.10191
   A18        2.08396  -0.00120  -0.00494   0.00359  -0.00135   2.08261
   A19        2.09800   0.00047   0.00253  -0.00186   0.00067   2.09867
   A20        2.08728  -0.00216  -0.00166  -0.00303  -0.00468   2.08260
   A21        2.06498  -0.00508   0.00209  -0.02152  -0.01943   2.04555
   A22        2.13093   0.00724  -0.00044   0.02455   0.02411   2.15504
   A23        2.04289   0.01385   0.00952   0.02922   0.03874   2.08163
   A24        1.95488  -0.00070  -0.00123  -0.00214  -0.00336   1.95152
   A25        1.83079   0.00255   0.01133  -0.00681   0.00455   1.83534
   A26        1.95487  -0.00070  -0.00122  -0.00215  -0.00336   1.95151
   A27        1.90487  -0.00039  -0.00438   0.00766   0.00331   1.90817
   A28        1.91112  -0.00028  -0.00018  -0.00354  -0.00373   1.90739
   A29        1.90487  -0.00039  -0.00436   0.00763   0.00330   1.90817
    D1       -3.14142  -0.00001  -0.00004  -0.00070  -0.00074   3.14103
    D2       -0.00020   0.00001   0.00005   0.00066   0.00071   0.00050
    D3       -0.00034   0.00001   0.00005   0.00074   0.00080   0.00046
    D4        3.14122   0.00001   0.00004   0.00083   0.00087  -3.14110
    D5       -3.14154  -0.00001  -0.00004  -0.00071  -0.00075   3.14090
    D6        0.00002  -0.00001  -0.00005  -0.00062  -0.00068  -0.00066
    D7        3.14158  -0.00000  -0.00001   0.00001   0.00001   3.14159
    D8       -0.00003   0.00000  -0.00001   0.00007   0.00006   0.00002
    D9        0.00002  -0.00000   0.00000  -0.00007  -0.00006  -0.00004
   D10        3.14159  -0.00000  -0.00000  -0.00001  -0.00001   3.14158
   D11       -3.14158   0.00000   0.00001  -0.00002  -0.00001  -3.14159
   D12        0.00001   0.00000   0.00001  -0.00004  -0.00003  -0.00002
   D13       -0.00002   0.00000  -0.00000   0.00006   0.00006   0.00004
   D14        3.14157   0.00000  -0.00000   0.00005   0.00005  -3.14157
   D15       -0.00002   0.00000  -0.00000   0.00004   0.00003   0.00002
   D16        3.14158   0.00000  -0.00001   0.00004   0.00004  -3.14157
   D17       -3.14158  -0.00000   0.00000  -0.00002  -0.00002   3.14158
   D18        0.00001  -0.00000   0.00000  -0.00001  -0.00001  -0.00000
   D19        0.00000  -0.00000   0.00000  -0.00000  -0.00000   0.00000
   D20       -3.14159  -0.00000  -0.00000  -0.00000  -0.00000  -3.14159
   D21       -3.14159  -0.00000   0.00000  -0.00001  -0.00001   3.14159
   D22        0.00001  -0.00000   0.00000  -0.00001  -0.00001  -0.00000
   D23       -0.00000  -0.00000  -0.00000   0.00000  -0.00000  -0.00000
   D24        3.14159  -0.00000  -0.00000   0.00001   0.00001   3.14159
   D25        3.14159   0.00000   0.00000  -0.00000   0.00000   3.14159
   D26       -0.00001   0.00000  -0.00000   0.00001   0.00001  -0.00000
   D27        0.00001  -0.00000   0.00000  -0.00003  -0.00003  -0.00002
   D28       -3.14158  -0.00000  -0.00000  -0.00001  -0.00002   3.14159
   D29       -3.14158  -0.00000   0.00001  -0.00004  -0.00003   3.14157
   D30        0.00002  -0.00000   0.00000  -0.00002  -0.00002  -0.00000
   D31        3.14158   0.00000  -0.00000   0.00003   0.00002  -3.14158
   D32       -0.00001   0.00000   0.00000   0.00001   0.00001  -0.00000
   D33        1.07756  -0.00071  -0.00102  -0.00394  -0.00494   1.07263
   D34        3.14158  -0.00000  -0.00001   0.00002   0.00001  -3.14159
   D35       -1.07758   0.00071   0.00103   0.00394   0.00495  -1.07264
         Item               Value     Threshold  Converged?
 Maximum Force            0.013852     0.000450     NO 
 RMS     Force            0.002460     0.000300     NO 
 Maximum Displacement     0.129912     0.001800     NO 
 RMS     Displacement     0.040093     0.001200     NO 
 Predicted change in Energy=-6.415747D-04
 GradGradGradGradGradGradGradGradGradGradGradGradGradGradGradGradGradGrad

                          Input orientation:                          
 ---------------------------------------------------------------------
 Center     Atomic      Atomic             Coordinates (Angstroms)
 Number     Number       Type             X           Y           Z
 ---------------------------------------------------------------------
      1          8           0       -0.523746    3.068790    0.737036
      2          6           0       -0.841046    2.085775   -0.152926
      3          6           0        0.129493    0.965736   -0.112374
      4          6           0        1.211434    1.017153    0.778381
      5          6           0        2.146483   -0.008911    0.851938
      6          6           0        2.001264   -1.116037    0.016752
      7          6           0        0.937661   -1.197606   -0.879117
      8          6           0       -0.007790   -0.163703   -0.955819
      9          8           0       -1.063478   -0.178946   -1.802278
     10          6           0       -1.243110   -1.288319   -2.666203
     11          8           0       -1.818073    2.180953   -0.866162
     12          1           0       -1.214058    3.745913    0.629766
     13          1           0        1.304879    1.885552    1.417274
     14          1           0        2.974862    0.055159    1.550033
     15          1           0        2.720273   -1.929424    0.057452
     16          1           0        0.847195   -2.067000   -1.516288
     17          1           0       -1.389252   -2.221426   -2.106865
     18          1           0       -2.146012   -1.063327   -3.235337
     19          1           0       -0.398580   -1.408233   -3.357062
 ---------------------------------------------------------------------
                    Distance matrix (angstroms):
                    1          2          3          4          5
     1  O    0.000000
     2  C    1.363463   0.000000
     3  C    2.360308   1.482591   0.000000
     4  C    2.687336   2.494386   1.402385   0.000000
     5  C    4.076220   3.784546   2.438869   1.390156   0.000000
     6  C    4.940371   4.284754   2.802496   2.398835   1.394400
     7  C    4.790595   3.804175   2.433327   2.779822   2.422973
     8  C    3.685238   2.529645   1.416291   2.426598   2.816530
     9  O    4.157789   2.810479   2.364160   3.642207   4.168648
    10  C    5.575295   4.226431   3.672444   4.817172   5.050103
    11  O    2.243609   1.213403   2.416188   3.638250   4.844077
    12  H    0.972900   1.872914   3.175734   3.653934   5.043937
    13  H    2.281808   2.666574   2.137152   1.082143   2.148695
    14  H    4.688624   4.645926   3.418899   2.151873   1.085197
    15  H    5.997303   5.371134   3.888822   3.388016   2.156111
    16  H    5.773499   4.685558   3.418122   3.861369   3.395935
    17  H    6.068217   4.761342   4.054945   5.057332   5.113820
    18  H    5.957003   4.595762   4.364392   5.631232   6.020227
    19  H    6.068034   4.761339   4.054947   5.057324   5.113818
                    6          7          8          9         10
     6  C    0.000000
     7  C    1.393013   0.000000
     8  C    2.426754   1.403110   0.000000
     9  O    3.685058   2.427850   1.353219   0.000000
    10  C    4.213537   2.820934   2.390855   1.417513   0.000000
    11  O    5.122209   4.359921   2.963541   2.648556   3.950517
    12  H    5.861113   5.598662   4.387968   4.619744   6.017288
    13  H    3.384664   3.861881   3.399135   4.498531   5.765457
    14  H    2.161144   3.408867   3.901718   5.253664   6.113335
    15  H    1.086384   2.142528   3.403942   4.565035   4.851569
    16  H    2.141592   1.081673   2.160478   2.701335   2.509586
    17  H    4.150570   2.823136   2.732685   2.090605   1.097682
    18  H    5.270556   3.883149   3.252310   2.001917   1.090765
    19  H    4.150573   2.823139   2.732680   2.090596   1.097677
                   11         12         13         14         15
    11  O    0.000000
    12  H    2.247607   0.000000
    13  H    3.879971   3.228956   0.000000
    14  H    5.773147   5.658234   2.481291   0.000000
    15  H    6.192323   6.929355   4.290280   2.496234   0.000000
    16  H    5.056820   6.530259   4.943473   4.293349   2.450307
    17  H    4.593928   6.567266   6.045260   6.131984   4.653787
    18  H    4.030619   6.239900   6.500102   7.097474   5.939135
    19  H    4.593670   6.566965   6.045253   6.131983   4.653793
                   16         17         18         19
    16  H    0.000000
    17  H    2.318259   0.000000
    18  H    3.594688   1.785310   0.000000
    19  H    2.318271   1.790449   1.785300   0.000000
 Stoichiometry    C8H8O3
 Framework group  C1[X(C8H8O3)]
 Deg. of freedom    51
 Full point group                 C1      NOp   1
 Largest Abelian subgroup         C1      NOp   1
 Largest concise Abelian subgroup C1      NOp   1
                         Standard orientation:                         
 ---------------------------------------------------------------------
 Center     Atomic      Atomic             Coordinates (Angstroms)
 Number     Number       Type             X           Y           Z
 ---------------------------------------------------------------------
      1          8           0       -2.898427    0.296138   -0.000141
      2          6           0       -1.780877   -0.484961    0.000368
      3          6           0       -0.538280    0.323759    0.000200
      4          6           0       -0.621601    1.723667    0.000132
      5          6           0        0.515665    2.523142   -0.000022
      6          6           0        1.769714    1.913459   -0.000133
      7          6           0        1.886681    0.525365   -0.000093
      8          6           0        0.740802   -0.284375    0.000061
      9          8           0        0.782660   -1.636947    0.000106
     10          6           0        2.040053   -2.291397   -0.000010
     11          8           0       -1.865251   -1.695427   -0.000229
     12          1           0       -3.646975   -0.325319   -0.000512
     13          1           0       -1.604768    2.175791    0.000227
     14          1           0        0.423955    3.604457   -0.000051
     15          1           0        2.671772    2.518868   -0.000252
     16          1           0        2.870899    0.076666   -0.000183
     17          1           0        2.626782   -2.047748    0.895138
     18          1           0        1.806966   -3.356966    0.000053
     19          1           0        2.626570   -2.047818   -0.895310
 ---------------------------------------------------------------------
 Rotational constants (GHZ):           1.3964937           1.1548729           0.6346859
 Standard basis: 6-31G(d,p) (6D, 7F)
 There are   205 symmetry adapted cartesian basis functions of A   symmetry.
 There are   205 symmetry adapted basis functions of A   symmetry.
   205 basis functions,   364 primitive gaussians,   205 cartesian basis functions
    40 alpha electrons       40 beta electrons
       nuclear repulsion energy       593.8545729053 Hartrees.
 NAtoms=   19 NActive=   19 NUniq=   19 SFac= 1.00D+00 NAtFMM=   60 NAOKFM=F Big=F
 Integral buffers will be    131072 words long.
 Raffenetti 2 integral format.
 Two-electron integral symmetry is turned on.
 Nuclear repulsion after empirical dispersion term =      593.8209461275 Hartrees.
 One-electron integrals computed using PRISM.
 NBasis=   205 RedAO= T EigKep=  4.04D-04  NBF=   205
 NBsUse=   205 1.00D-06 EigRej= -1.00D+00 NBFU=   205
 Initial guess from the checkpoint file:  "Ac4_conf-2.chk"
 B after Tr=    -0.000000    0.000000    0.000000
         Rot=    0.999916    0.000000   -0.000001    0.012933 Ang=   1.48 deg.
 ExpMin= 1.61D-01 ExpMax= 5.48D+03 ExpMxC= 8.25D+02 IAcc=3 IRadAn=         5 AccDes= 0.00D+00
 Harris functional with IExCor=  402 and IRadAn=       5 diagonalized for initial guess.
 HarFok:  IExCor=  402 AccDes= 0.00D+00 IRadAn=         5 IDoV= 1 UseB2=F ITyADJ=14
 ICtDFT=  3500011 ScaDFX=  1.000000  1.000000  1.000000  1.000000
 FoFCou: FMM=F IPFlag=           0 FMFlag=      100000 FMFlg1=           0
         NFxFlg=           0 DoJE=T BraDBF=F KetDBF=T FulRan=T
         wScrn=  0.000000 ICntrl=       500 IOpCl=  0 I1Cent=   200000004 NGrid=           0
         NMat0=    1 NMatS0=      1 NMatT0=    0 NMatD0=    1 NMtDS0=    0 NMtDT0=    0
 Petite list used in FoFCou.
 Requested convergence on RMS density matrix=1.00D-08 within 128 cycles.
 Requested convergence on MAX density matrix=1.00D-06.
 Requested convergence on             energy=1.00D-06.
 No special actions if energy rises.
 Integral accuracy reduced to 1.0D-05 until final iterations.
 Initial convergence to 1.0D-05 achieved.  Increase integral accuracy.
 SCF Done:  E(RB3LYP) =  -535.386521102     A.U. after   11 cycles
            NFock= 11  Conv=0.58D-08     -V/T= 2.0092
 Calling FoFJK, ICntrl=      2127 FMM=F ISym2X=0 I1Cent= 0 IOpClX= 0 NMat=1 NMatS=1 NMatT=0.
 ***** Axes restored to original set *****
 -------------------------------------------------------------------
 Center     Atomic                   Forces (Hartrees/Bohr)
 Number     Number              X              Y              Z
 -------------------------------------------------------------------
      1        8          -0.000254896    0.003139495    0.001902060
      2        6          -0.002070442   -0.000289406   -0.002046043
      3        6           0.001482886    0.000785843    0.001741953
      4        6           0.000473566   -0.000331249    0.000170258
      5        6          -0.000111438   -0.000161368   -0.000197367
      6        6           0.000011240    0.000084571    0.000064618
      7        6          -0.000573350    0.000294501   -0.000266867
      8        6          -0.001923329   -0.000408740   -0.001783234
      9        8           0.002370838   -0.000818597    0.001350825
     10        6          -0.000200440   -0.000648818   -0.000579024
     11        8          -0.000219961    0.000964446    0.000536119
     12        1           0.001242357   -0.002272523   -0.000490391
     13        1           0.000040519    0.000162462    0.000138750
     14        1          -0.000342133   -0.000186966   -0.000394013
     15        1          -0.000210961    0.000196847   -0.000038515
     16        1          -0.000381365   -0.000266398   -0.000476168
     17        1           0.000324048    0.000401401   -0.000004205
     18        1           0.000419515   -0.000714863   -0.000131908
     19        1          -0.000076654    0.000069362    0.000503153
 -------------------------------------------------------------------
 Cartesian Forces:  Max     0.003139495 RMS     0.000983860

 GradGradGradGradGradGradGradGradGradGradGradGradGradGradGradGradGradGrad
 Berny optimization.
 Using GEDIIS/GDIIS optimizer.
 FormGI is forming the generalized inverse of G from B-inverse, IUseBI=4.
 Internal  Forces:  Max     0.004714565 RMS     0.001150523
 Search for a local minimum.
 Step number   3 out of a maximum of   93
 All quantities printed in internal units (Hartrees-Bohrs-Radians)
 Mixed Optimization -- RFO/linear search
 Update second derivatives using D2CorX and points    1    2    3
 DE= -4.34D-04 DEPred=-6.42D-04 R= 6.77D-01
 TightC=F SS=  1.41D+00  RLast= 6.29D-02 DXNew= 8.4853D-01 1.8861D-01
 Trust test= 6.77D-01 RLast= 6.29D-02 DXMaxT set to 5.05D-01
 ITU=  1  1  0
 Use linear search instead of GDIIS.
     Eigenvalues ---    0.00578   0.01104   0.01395   0.01534   0.01915
     Eigenvalues ---    0.01962   0.01970   0.02089   0.02096   0.02102
     Eigenvalues ---    0.02205   0.02214   0.02224   0.02318   0.09733
     Eigenvalues ---    0.10690   0.14685   0.16000   0.16000   0.16000
     Eigenvalues ---    0.16000   0.16000   0.16126   0.16631   0.21353
     Eigenvalues ---    0.22485   0.23433   0.24509   0.25000   0.25000
     Eigenvalues ---    0.26166   0.31810   0.34635   0.34704   0.34827
     Eigenvalues ---    0.35603   0.35781   0.35931   0.35980   0.37843
     Eigenvalues ---    0.40614   0.41865   0.42085   0.45170   0.46065
     Eigenvalues ---    0.46135   0.47275   0.52848   0.56739   0.60687
     Eigenvalues ---    0.91694
 RFO step:  Lambda=-1.62974719D-04 EMin= 5.78128312D-03
 Quartic linear search produced a step of -0.23428.
 Iteration  1 RMS(Cart)=  0.01652890 RMS(Int)=  0.00008267
 Iteration  2 RMS(Cart)=  0.00012701 RMS(Int)=  0.00000324
 Iteration  3 RMS(Cart)=  0.00000001 RMS(Int)=  0.00000324
 Variable       Old X    -DE/DX   Delta X   Delta X   Delta X     New X
                                 (Linear)    (Quad)   (Total)
    R1        2.57657   0.00178  -0.00192   0.00521   0.00329   2.57986
    R2        1.83851  -0.00241  -0.00060  -0.00242  -0.00302   1.83549
    R3        2.80169   0.00202  -0.00007   0.00548   0.00541   2.80710
    R4        2.29300  -0.00006   0.00138  -0.00209  -0.00071   2.29229
    R5        2.65012   0.00043  -0.00103   0.00258   0.00155   2.65168
    R6        2.67640   0.00283  -0.00185   0.00766   0.00581   2.68221
    R7        2.62701  -0.00003   0.00031  -0.00052  -0.00021   2.62680
    R8        2.04495   0.00022   0.00048  -0.00031   0.00017   2.04512
    R9        2.63503  -0.00055   0.00048  -0.00186  -0.00137   2.63366
   R10        2.05073  -0.00053  -0.00005  -0.00107  -0.00112   2.04961
   R11        2.63241  -0.00071   0.00002  -0.00128  -0.00126   2.63115
   R12        2.05297  -0.00029  -0.00045   0.00001  -0.00044   2.05253
   R13        2.65149  -0.00109  -0.00133   0.00040  -0.00092   2.65057
   R14        2.04407   0.00053   0.00059   0.00002   0.00062   2.04468
   R15        2.55721  -0.00291   0.00028  -0.00420  -0.00392   2.55329
   R16        2.67871   0.00077  -0.00194   0.00448   0.00254   2.68125
   R17        2.07432  -0.00039  -0.00012  -0.00076  -0.00087   2.07345
   R18        2.06125  -0.00043  -0.00011  -0.00072  -0.00084   2.06041
   R19        2.07431  -0.00038  -0.00011  -0.00075  -0.00087   2.07344
    A1        1.83868  -0.00197  -0.00277  -0.00565  -0.00842   1.83026
    A2        1.95462  -0.00083  -0.00104  -0.00011  -0.00115   1.95347
    A3        2.11122  -0.00087   0.00235  -0.00645  -0.00410   2.10712
    A4        2.21735   0.00170  -0.00131   0.00657   0.00525   2.22259
    A5        2.08831  -0.00063  -0.00354   0.00334  -0.00020   2.08811
    A6        2.12082   0.00186   0.00324   0.00012   0.00336   2.12418
    A7        2.07406  -0.00123   0.00030  -0.00347  -0.00317   2.07089
    A8        2.12407   0.00009  -0.00105   0.00203   0.00098   2.12505
    A9        2.06127  -0.00002   0.00290  -0.00375  -0.00085   2.06043
   A10        2.09784  -0.00007  -0.00185   0.00171  -0.00014   2.09771
   A11        2.07635   0.00052   0.00100  -0.00002   0.00099   2.07733
   A12        2.09891  -0.00008  -0.00075   0.00125   0.00050   2.09940
   A13        2.10793  -0.00044  -0.00025  -0.00123  -0.00148   2.10645
   A14        2.10739   0.00004  -0.00119   0.00106  -0.00013   2.10725
   A15        2.09797   0.00002   0.00019   0.00011   0.00030   2.09827
   A16        2.07783  -0.00006   0.00100  -0.00117  -0.00017   2.07766
   A17        2.10191   0.00028  -0.00016   0.00102   0.00086   2.10277
   A18        2.08261   0.00028   0.00032   0.00067   0.00099   2.08360
   A19        2.09867  -0.00056  -0.00016  -0.00169  -0.00185   2.09682
   A20        2.08260   0.00030   0.00110  -0.00063   0.00047   2.08307
   A21        2.04555   0.00441   0.00455   0.00593   0.01048   2.05603
   A22        2.15504  -0.00471  -0.00565  -0.00530  -0.01095   2.14409
   A23        2.08163  -0.00412  -0.00908   0.00243  -0.00665   2.07498
   A24        1.95152  -0.00056   0.00079  -0.00417  -0.00339   1.94813
   A25        1.83534   0.00142  -0.00107   0.00976   0.00869   1.84403
   A26        1.95151  -0.00056   0.00079  -0.00416  -0.00338   1.94813
   A27        1.90817  -0.00007  -0.00077   0.00116   0.00039   1.90856
   A28        1.90739  -0.00010   0.00087  -0.00310  -0.00224   1.90515
   A29        1.90817  -0.00007  -0.00077   0.00117   0.00039   1.90856
    D1        3.14103   0.00004   0.00017   0.00240   0.00256  -3.13960
    D2        0.00050  -0.00004  -0.00017  -0.00236  -0.00251  -0.00201
    D3        0.00046  -0.00004  -0.00019  -0.00272  -0.00291  -0.00245
    D4       -3.14110  -0.00004  -0.00020  -0.00275  -0.00296   3.13912
    D5        3.14090   0.00004   0.00018   0.00239   0.00258  -3.13971
    D6       -0.00066   0.00004   0.00016   0.00236   0.00252   0.00187
    D7        3.14159   0.00000  -0.00000   0.00008   0.00008  -3.14152
    D8        0.00002   0.00000  -0.00001   0.00001  -0.00000   0.00002
    D9       -0.00004   0.00000   0.00001   0.00012   0.00013   0.00009
   D10        3.14158   0.00000   0.00000   0.00005   0.00005  -3.14155
[...]
   XX=    31.7386   YX=     4.9625   ZX=     0.0002
   XY=     0.4914   YY=    23.0657   ZY=    -0.0002
   XZ=    -0.0001   YZ=    -0.0002   ZZ=    22.7811
   Eigenvalues:    22.2795    22.7811    32.5247
     13  H    Isotropic =    22.7274   Anisotropy =     9.3375
   XX=    22.5447   YX=     4.2079   ZX=    -0.0002
   XY=     3.2995   YY=    26.7534   ZY=    -0.0001
   XZ=    -0.0003   YZ=    -0.0003   ZZ=    18.8841
   Eigenvalues:    18.8841    20.3457    28.9524
     14  H    Isotropic =    24.2319   Anisotropy =     5.4908
   XX=    27.8424   YX=     0.4598   ZX=     0.0000
   XY=     0.4804   YY=    23.4735   ZY=     0.0000
   XZ=    -0.0000   YZ=     0.0000   ZZ=    21.3798
   Eigenvalues:    21.3798    23.4235    27.8925
     15  H    Isotropic =    23.5887   Anisotropy =     6.5573
   XX=    23.4969   YX=    -2.5773   ZX=     0.0000
   XY=    -2.7927   YY=    26.3450   ZY=    -0.0001
   XZ=    -0.0000   YZ=    -0.0001   ZZ=    20.9240
   Eigenvalues:    20.9240    21.8817    27.9602
     16  H    Isotropic =    24.3363   Anisotropy =     9.2446
   XX=    23.1303   YX=     2.5004   ZX=    -0.0000
   XY=     3.3700   YY=    29.3302   ZY=    -0.0001
   XZ=    -0.0000   YZ=    -0.0001   ZZ=    20.5484
   Eigenvalues:    20.5484    21.9611    30.4994
     17  H    Isotropic =    28.2707   Anisotropy =     8.2050
   XX=    30.6866   YX=    -0.7719   ZX=     3.6978
   XY=    -2.6391   YY=    26.8827   ZY=    -1.3940
   XZ=     3.5729   YZ=    -1.7065   ZZ=    27.2427
   Eigenvalues:    24.8306    26.2407    33.7406
     18  H    Isotropic =    27.6467   Anisotropy =     7.9949
   XX=    27.7534   YX=    -3.2399   ZX=     0.0001
   XY=    -1.1486   YY=    32.0548   ZY=    -0.0001
   XZ=     0.0001   YZ=    -0.0002   ZZ=    23.1318
   Eigenvalues:    23.1318    26.8316    32.9766
     19  H    Isotropic =    28.2706   Anisotropy =     8.2049
   XX=    30.6867   YX=    -0.7721   ZX=    -3.6977
   XY=    -2.6392   YY=    26.8828   ZY=     1.3940
   XZ=    -3.5727   YZ=     1.7065   ZZ=    27.2424
   Eigenvalues:    24.8306    26.2407    33.7406
 End of Minotr F.D. properties file   721 does not exist.
 End of Minotr F.D. properties file   722 does not exist.
 End of Minotr F.D. properties file   788 does not exist.

 **********************************************************************

            Population analysis using the SCF Density.

 **********************************************************************

 Orbital symmetries:
       Occupied  (A) (A) (A) (A) (A) (A) (A) (A) (A) (A) (A) (A)
                 (A) (A) (A) (A) (A) (A) (A) (A) (A) (A) (A) (A)
                 (A) (A) (A) (A) (A) (A) (A) (A) (A) (A) (A) (A)
                 (A) (A) (A) (A)
       Virtual   (A) (A) (A) (A) (A) (A) (A) (A) (A) (A) (A) (A)
                 (A) (A) (A) (A) (A) (A) (A) (A) (A) (A) (A) (A)
                 (A) (A) (A) (A) (A) (A) (A) (A) (A) (A) (A) (A)
                 (A) (A) (A) (A) (A) (A) (A) (A) (A) (A) (A) (A)
                 (A) (A) (A) (A) (A) (A) (A) (A) (A) (A) (A) (A)
                 (A) (A) (A) (A) (A) (A) (A) (A) (A) (A) (A) (A)
                 (A) (A) (A) (A) (A) (A) (A) (A) (A) (A) (A) (A)
                 (A) (A) (A) (A) (A) (A) (A) (A) (A) (A) (A) (A)
                 (A) (A) (A) (A) (A) (A) (A) (A) (A) (A) (A) (A)
                 (A) (A) (A) (A) (A) (A) (A) (A) (A) (A) (A) (A)
                 (A) (A) (A) (A) (A) (A) (A) (A) (A) (A) (A) (A)
                 (A) (A) (A) (A) (A) (A) (A) (A) (A) (A) (A) (A)
                 (A) (A) (A) (A) (A) (A) (A) (A) (A) (A) (A) (A)
                 (A) (A) (A) (A) (A) (A) (A) (A) (A) (A) (A) (A)
                 (A) (A) (A) (A) (A) (A) (A) (A) (A) (A) (A) (A)
                 (A) (A) (A) (A) (A) (A) (A) (A) (A) (A) (A) (A)
                 (A) (A) (A) (A) (A) (A) (A) (A) (A) (A) (A) (A)
                 (A) (A) (A) (A) (A) (A) (A) (A) (A) (A) (A) (A)
                 (A) (A) (A) (A) (A) (A) (A) (A) (A) (A) (A) (A)
                 (A) (A) (A) (A) (A) (A) (A) (A) (A) (A) (A) (A)
                 (A) (A) (A) (A) (A) (A) (A) (A) (A) (A) (A) (A)
                 (A) (A) (A) (A) (A) (A) (A) (A) (A) (A) (A) (A)
                 (A) (A) (A) (A) (A) (A) (A) (A) (A) (A) (A) (A)
                 (A) (A) (A) (A) (A) (A) (A) (A) (A) (A) (A) (A)
                 (A) (A) (A) (A) (A) (A) (A) (A) (A) (A) (A) (A)
                 (A) (A) (A) (A) (A) (A) (A) (A) (A) (A) (A) (A)
                 (A) (A) (A) (A) (A) (A) (A) (A) (A) (A) (A) (A)
                 (A) (A) (A) (A) (A) (A) (A) (A) (A) (A) (A) (A)
                 (A) (A) (A) (A) (A) (A) (A) (A) (A) (A) (A) (A)
                 (A)
 The electronic state is 1-A.
 Alpha  occ. eigenvalues --  -19.66570 -19.66466 -19.61072 -10.67630 -10.62527
 Alpha  occ. eigenvalues --  -10.59686 -10.56356 -10.56133 -10.55797 -10.55248
 Alpha  occ. eigenvalues --  -10.54648  -1.22723  -1.20202  -1.12899  -0.97144
 Alpha  occ. eigenvalues --   -0.87797  -0.85870  -0.80347  -0.74851  -0.69730
 Alpha  occ. eigenvalues --   -0.67093  -0.62168  -0.58723  -0.57178  -0.56164
 Alpha  occ. eigenvalues --   -0.55981  -0.53822  -0.52875  -0.52178  -0.49076
 Alpha  occ. eigenvalues --   -0.47592  -0.45773  -0.44993  -0.43009  -0.41083
 Alpha  occ. eigenvalues --   -0.40441  -0.39233  -0.34618  -0.32351  -0.28962
 Alpha virt. eigenvalues --   -0.02208   0.02446   0.06777   0.07766   0.08749
 Alpha virt. eigenvalues --    0.09160   0.10594   0.11734   0.13551   0.14711
 Alpha virt. eigenvalues --    0.14802   0.15196   0.16294   0.19097   0.20503
 Alpha virt. eigenvalues --    0.22059   0.22377   0.23826   0.24240   0.24568
 Alpha virt. eigenvalues --    0.25187   0.25867   0.26655   0.28069   0.29760
 Alpha virt. eigenvalues --    0.29820   0.31654   0.32216   0.33064   0.33838
 Alpha virt. eigenvalues --    0.34785   0.36523   0.37512   0.38810   0.39468
 Alpha virt. eigenvalues --    0.39935   0.40157   0.41598   0.41835   0.43606
 Alpha virt. eigenvalues --    0.44135   0.45447   0.45501   0.47543   0.48232
 Alpha virt. eigenvalues --    0.48835   0.50083   0.50171   0.50854   0.51780
 Alpha virt. eigenvalues --    0.52414   0.53739   0.54054   0.54829   0.55653
 Alpha virt. eigenvalues --    0.57656   0.59270   0.61095   0.61333   0.64025
 Alpha virt. eigenvalues --    0.64660   0.66279   0.68236   0.69451   0.70340
 Alpha virt. eigenvalues --    0.70976   0.72979   0.73639   0.75405   0.75785
 Alpha virt. eigenvalues --    0.76718   0.76960   0.78986   0.79775   0.81597
 Alpha virt. eigenvalues --    0.82632   0.84179   0.85727   0.87643   0.89456
 Alpha virt. eigenvalues --    0.90243   0.90692   0.93640   0.95035   0.96452
 Alpha virt. eigenvalues --    0.97242   0.99370   1.00184   1.00270   1.02198
 Alpha virt. eigenvalues --    1.03596   1.06412   1.09915   1.11756   1.13766
 Alpha virt. eigenvalues --    1.14225   1.15024   1.17135   1.22887   1.23506
 Alpha virt. eigenvalues --    1.26112   1.26177   1.27258   1.28580   1.30184
 Alpha virt. eigenvalues --    1.31136   1.34395   1.36168   1.39037   1.39104
 Alpha virt. eigenvalues --    1.42939   1.43785   1.46848   1.48494   1.49936
 Alpha virt. eigenvalues --    1.51477   1.52959   1.53854   1.55371   1.55704
 Alpha virt. eigenvalues --    1.56523   1.57578   1.58749   1.59250   1.62176
 Alpha virt. eigenvalues --    1.63070   1.66374   1.68242   1.69350   1.70065
 Alpha virt. eigenvalues --    1.72571   1.72822   1.73315   1.74358   1.76554
 Alpha virt. eigenvalues --    1.78596   1.83307   1.84900   1.87395   1.89353
 Alpha virt. eigenvalues --    1.90637   1.90859   1.91571   1.96037   1.96125
 Alpha virt. eigenvalues --    1.99128   1.99974   2.00277   2.02068   2.03074
 Alpha virt. eigenvalues --    2.06686   2.08181   2.09898   2.10870   2.12309
 Alpha virt. eigenvalues --    2.14073   2.14123   2.16932   2.20291   2.21535
 Alpha virt. eigenvalues --    2.23676   2.25700   2.26744   2.27106   2.29527
 Alpha virt. eigenvalues --    2.33097   2.35610   2.36725   2.37656   2.38290
 Alpha virt. eigenvalues --    2.42764   2.43154   2.44946   2.47657   2.49795
 Alpha virt. eigenvalues --    2.52431   2.54555   2.56379   2.57546   2.58082
 Alpha virt. eigenvalues --    2.59962   2.63358   2.64508   2.65044   2.66064
 Alpha virt. eigenvalues --    2.66876   2.69246   2.70464   2.71531   2.73979
 Alpha virt. eigenvalues --    2.74487   2.76437   2.79211   2.79613   2.81802
 Alpha virt. eigenvalues --    2.82243   2.83206   2.84799   2.85083   2.86046
 Alpha virt. eigenvalues --    2.86593   2.89344   2.89975   2.91368   2.92185
 Alpha virt. eigenvalues --    2.93260   2.95261   2.95866   3.00296   3.01145
 Alpha virt. eigenvalues --    3.03186   3.04593   3.04914   3.06799   3.07320
 Alpha virt. eigenvalues --    3.13483   3.13550   3.14988   3.15558   3.17713
 Alpha virt. eigenvalues --    3.17928   3.18958   3.19771   3.20776   3.23471
 Alpha virt. eigenvalues --    3.23507   3.25579   3.27000   3.28283   3.30606
 Alpha virt. eigenvalues --    3.30752   3.30978   3.31962   3.32468   3.33438
 Alpha virt. eigenvalues --    3.36171   3.37484   3.38273   3.38467   3.41162
 Alpha virt. eigenvalues --    3.42117   3.44007   3.46335   3.46948   3.48070
 Alpha virt. eigenvalues --    3.50291   3.52238   3.53055   3.53078   3.54840
 Alpha virt. eigenvalues --    3.56873   3.57159   3.60104   3.63295   3.66176
 Alpha virt. eigenvalues --    3.67008   3.72781   3.72965   3.80127   3.82320
 Alpha virt. eigenvalues --    3.84683   3.86604   3.87618   3.92368   3.94516
 Alpha virt. eigenvalues --    3.99765   4.05387   4.07921   4.09604   4.11758
 Alpha virt. eigenvalues --    4.13129   4.14663   4.15895   4.16937   4.18366
 Alpha virt. eigenvalues --    4.21187   4.21940   4.22988   4.26907   4.29647
 Alpha virt. eigenvalues --    4.37141   4.39026   4.43946   4.48095   4.51198
 Alpha virt. eigenvalues --    4.53962   4.56801   4.57691   4.60416   4.65598
 Alpha virt. eigenvalues --    4.72886   4.78386   4.81907   4.89357   4.90945
 Alpha virt. eigenvalues --    5.02878   5.10454   5.12497   5.17356   5.22568
 Alpha virt. eigenvalues --    5.22963   5.23899   5.28844   5.35774   5.36015
 Alpha virt. eigenvalues --    5.38928   5.47263   5.47672   5.51670   5.57184
 Alpha virt. eigenvalues --    5.63822   5.73758   5.80821   5.85118   5.90682
 Alpha virt. eigenvalues --    5.94359   6.02135   6.14437   6.27717   6.30214
 Alpha virt. eigenvalues --    6.32822   6.37119   6.44736   6.50748   6.55957
 Alpha virt. eigenvalues --    6.63517   6.69320   6.73167   6.81017   6.81918
 Alpha virt. eigenvalues --    6.83646   6.84890   6.93659   7.08655   7.14981
 Alpha virt. eigenvalues --    7.18439   7.35392   7.39857  22.27605  22.48189
 Alpha virt. eigenvalues --   22.69746  22.74968  22.93262  22.97489  23.31108
 Alpha virt. eigenvalues --   23.56736  43.98410  44.05421  44.40724
          Condensed to atoms (all electrons):
               1          2          3          4          5          6
     1  O    7.977265   0.408389  -0.182296   0.020022  -0.001343   0.000402
     2  C    0.408389   4.501234   0.174807  -0.017180   0.006575  -0.003473
     3  C   -0.182296   0.174807   5.546917   0.410649  -0.031732  -0.072578
     4  C    0.020022  -0.017180   0.410649   4.994198   0.464450   0.010681
     5  C   -0.001343   0.006575  -0.031732   0.464450   4.978176   0.472301
     6  C    0.000402  -0.003473  -0.072578   0.010681   0.472301   4.955136
     7  C   -0.000163   0.012207  -0.018774  -0.104004  -0.010711   0.408254
     8  C   -0.004392  -0.083423   0.421521  -0.019688  -0.051433   0.003502
     9  O   -0.000296   0.011046  -0.141740   0.003115  -0.000446   0.005510
    10  C    0.000019  -0.000095   0.006700  -0.002704   0.001709  -0.004483
    11  O   -0.091752   0.718184  -0.113872   0.003179   0.000364  -0.000306
    12  H    0.294631  -0.037207   0.030060  -0.003871  -0.000079   0.000005
    13  H    0.009743  -0.016924  -0.018171   0.412382  -0.045319   0.006795
    14  H   -0.000125   0.000030   0.007291  -0.037299   0.417144  -0.038290
    15  H   -0.000000   0.000065   0.000755   0.002136  -0.026785   0.397176
    16  H    0.000006  -0.000284   0.002071   0.001495   0.000541  -0.009994
    17  H   -0.000001   0.000054  -0.001825  -0.000171   0.000029  -0.000431
    18  H    0.000001  -0.000207   0.001039   0.000129  -0.000045   0.000240
    19  H   -0.000001   0.000054  -0.001824  -0.000171   0.000029  -0.000431
               7          8          9         10         11         12
     1  O   -0.000163  -0.004392  -0.000296   0.000019  -0.091752   0.294631
     2  C    0.012207  -0.083423   0.011046  -0.000095   0.718184  -0.037207
     3  C   -0.018774   0.421521  -0.141740   0.006700  -0.113872   0.030060
     4  C   -0.104004  -0.019688   0.003115  -0.002704   0.003179  -0.003871
     5  C   -0.010711  -0.051433  -0.000446   0.001709   0.000364  -0.000079
     6  C    0.408254   0.003502   0.005510  -0.004483  -0.000306   0.000005
     7  C    5.186099   0.447008  -0.076212   0.007969   0.002110   0.000017
     8  C    0.447008   4.748385   0.429241  -0.088914  -0.004095   0.000483
     9  O   -0.076212   0.429241   7.903045   0.230846  -0.020333   0.000101
    10  C    0.007969  -0.088914   0.230846   4.925285   0.001205   0.000000
    11  O    0.002110  -0.004095  -0.020333   0.001205   7.812244   0.007632
    12  H    0.000017   0.000483   0.000101   0.000000   0.007632   0.372146
    13  H   -0.003056   0.011617  -0.000027   0.000019   0.000303  -0.000055
    14  H    0.007637  -0.001515   0.000012   0.000001   0.000004  -0.000001
    15  H   -0.022089   0.001637  -0.000124  -0.000071  -0.000002   0.000000
    16  H    0.402600  -0.036531  -0.003989   0.003702   0.000010  -0.000001
    17  H    0.007096  -0.013752  -0.036421   0.415819  -0.000098   0.000000
    18  H   -0.001457   0.007430  -0.033559   0.403823   0.000320  -0.000001
    19  H    0.007097  -0.013753  -0.036422   0.415820  -0.000098   0.000000
              13         14         15         16         17         18
     1  O    0.009743  -0.000125  -0.000000   0.000006  -0.000001   0.000001
     2  C   -0.016924   0.000030   0.000065  -0.000284   0.000054  -0.000207
     3  C   -0.018171   0.007291   0.000755   0.002071  -0.001825   0.001039
     4  C    0.412382  -0.037299   0.002136   0.001495  -0.000171   0.000129
     5  C   -0.045319   0.417144  -0.026785   0.000541   0.000029  -0.000045
     6  C    0.006795  -0.038290   0.397176  -0.009994  -0.000431   0.000240
     7  C   -0.003056   0.007637  -0.022089   0.402600   0.007096  -0.001457
     8  C    0.011617  -0.001515   0.001637  -0.036531  -0.013752   0.007430
     9  O   -0.000027   0.000012  -0.000124  -0.003989  -0.036421  -0.033559
    10  C    0.000019   0.000001  -0.000071   0.003702   0.415819   0.403823
    11  O    0.000303   0.000004  -0.000002   0.000010  -0.000098   0.000320
    12  H   -0.000055  -0.000001   0.000000  -0.000001   0.000000  -0.000001
    13  H    0.474842  -0.003865  -0.000187   0.000034  -0.000000  -0.000000
    14  H   -0.003865   0.506312  -0.003427  -0.000233   0.000001  -0.000000
    15  H   -0.000187  -0.003427   0.503805  -0.002612  -0.000006   0.000001
    16  H    0.000034  -0.000233  -0.002612   0.487111  -0.003517   0.000140
    17  H   -0.000000   0.000001  -0.000006  -0.003517   0.559460  -0.018948
    18  H   -0.000000  -0.000000   0.000001   0.000140  -0.018948   0.497212
    19  H   -0.000000   0.000001  -0.000006  -0.003517  -0.059211  -0.018948
              19
     1  O   -0.000001
     2  C    0.000054
     3  C   -0.001824
     4  C   -0.000171
     5  C    0.000029
     6  C   -0.000431
     7  C    0.007097
     8  C   -0.013753
     9  O   -0.036422
    10  C    0.415820
    11  O   -0.000098
    12  H    0.000000
    13  H   -0.000000
    14  H    0.000001
    15  H   -0.000006
    16  H   -0.003517
    17  H   -0.059211
    18  H   -0.018948
    19  H    0.559459
 Mulliken charges:
               1
     1  O   -0.430111
     2  C    0.326148
     3  C   -0.018999
     4  C   -0.137348
     5  C   -0.173427
     6  C   -0.130018
     7  C   -0.251626
     8  C    0.246674
     9  O   -0.233345
    10  C   -0.316649
    11  O   -0.314998
    12  H    0.336139
    13  H    0.171870
    14  H    0.146320
    15  H    0.149734
    16  H    0.162965
    17  H    0.151922
    18  H    0.162827
    19  H    0.151922
 Sum of Mulliken charges =  -0.00000
 Mulliken charges with hydrogens summed into heavy atoms:
               1
     1  O   -0.093972
     2  C    0.326148
     3  C   -0.018999
     4  C    0.034521
     5  C   -0.027107
     6  C    0.019717
     7  C   -0.088661
     8  C    0.246674
     9  O   -0.233345
    10  C    0.150022
    11  O   -0.314998
 Electronic spatial extent (au):  <R**2>=           1727.6516
 Charge=              0.0000 electrons
 Dipole moment (field-independent basis, Debye):
    X=              2.2423    Y=              1.2986    Z=              0.0002  Tot=              2.5912
 Quadrupole moment (field-independent basis, Debye-Ang):
   XX=            -50.9817   YY=            -61.7764   ZZ=            -66.3874
   XY=             -4.6064   XZ=             -0.0001   YZ=             -0.0010
 Traceless Quadrupole moment (field-independent basis, Debye-Ang):
   XX=              8.7335   YY=             -2.0612   ZZ=             -6.6722
   XY=             -4.6064   XZ=             -0.0001   YZ=             -0.0010
 Octapole moment (field-independent basis, Debye-Ang**2):
  XXX=            -28.8481  YYY=              0.5849  ZZZ=              0.0003  XYY=             18.7494
  XXY=            -12.8103  XXZ=              0.0008  XZZ=             -7.1123  YZZ=            -10.7356
  YYZ=              0.0012  XYZ=              0.0016
 Hexadecapole moment (field-independent basis, Debye-Ang**3):
 XXXX=           -936.5164 YYYY=           -926.7574 ZZZZ=            -76.6748 XXXY=             23.2562
 XXXZ=             -0.0032 YYYX=            -42.0585 YYYZ=             -0.0033 ZZZX=             -0.0000
 ZZZY=              0.0009 XXYY=           -343.9039 XXZZ=           -210.8641 YYZZ=           -194.5172
 XXYZ=             -0.0046 YYXZ=             -0.0020 ZZXY=             -4.4862
 N-N= 5.935568128754D+02 E-N=-2.438237864159D+03  KE= 5.326535229322D+02
 Unable to Open any file for archive entry.
 1\1\GINC-NOTCH212\SP\RM062X\def2TZVP\C8H8O3\U6032257\05-Feb-2022\0\\# 
 M062X/def2tzvp int=(grid=ultrafine) nmr=giao guess=read geom=check\\Ac
 4.xyz\\0,1\O,0,-0.5179412642,3.0780246039,0.7480133165\C,0,-0.84268052
 63,2.0975781915,-0.1471704559\C,0,0.1254367506,0.9727787643,-0.1113620
 736\C,0,1.2099351579,1.0173366344,0.777062306\C,0,2.141122067,-0.01230
 85132,0.8454472733\C,0,1.9914373507,-1.1167004539,0.0086579909\C,0,0.9
 263362666,-1.1927302121,-0.8848515927\C,0,-0.0166929973,-0.1567567112,
 -0.9585107551\O,0,-1.067797775,-0.1799256886,-1.8065391791\C,0,-1.2309
 603721,-1.2991870749,-2.6636583964\O,0,-1.8219995424,2.2023888726,-0.8
 553172747\H,0,-1.2092159463,3.7503516229,0.6373233509\H,0,1.3080542878
 ,1.8838908684,1.4183253951\H,0,2.9709638335,0.0461885342,1.5411183\H,0
 ,2.7078395249,-1.9319847181,0.046226724\H,0,0.8314656048,-2.0603407242
 ,-1.5242215091\H,0,-1.3679121179,-2.2270969342,-2.0949461603\H,0,-2.13
 07699997,-1.094417665,-3.243569598\H,0,-0.3782203026,-1.414989397,-3.3
 438276617\\Version=ES64L-G16RevC.01\State=1-A\HF=-535.3375847\RMSD=3.5
 51e-09\Dipole=0.6332993,-0.7986778,-0.0173958\Quadrupole=-3.4480052,3.
 9710929,-0.5230876,-0.2797677,1.0159782,5.5866675\PG=C01 [X(C8H8O3)]\\
 @
 The archive entry for this job was punched.


 The impersonal hand of government can
 never replace the helping hand of a neighbor.
                        -- Hubert H. Humphrey
 Job cpu time:       0 days  0 hours 25 minutes 49.7 seconds.
 Elapsed time:       0 days  0 hours  0 minutes 34.1 seconds.
 File lengths (MBytes):  RWF=     89 Int=      0 D2E=      0 Chk=     15 Scr=      1
 Normal termination of Gaussian 16 at Sat Feb  5 09:20:10 2022.
