 Entering Gaussian System, Link 0=/uufs/chpc.utah.edu/sys/installdir/gaussian16/C01/AVX2/g16/g16
 Input=Ac4_conf-1.com
 Output=Ac4_conf-1.log
 Initial command:
 /uufs/chpc.utah.edu/sys/installdir/gaussian16/C01/AVX2/g16/l1.exe "/scratch/general/lustre/u6032257/3867926/notchpeak.peaks/Gau-40951.inp" -scrdir="/scratch/general/lustre/u6032257/3867926/notchpeak.peaks/"
 Entering Link 1 = /uufs/chpc.utah.edu/sys/installdir/gaussian16/C01/AVX2/g16/l1.exe PID=     40953.
  
 Copyright (c) 1988-2019, Gaussian, Inc.  All Rights Reserved.
  
 This is part of the Gaussian(R) 16 program.  It is based on
 the Gaussian(R) 09 system (copyright 2009, Gaussian, Inc.),
 the Gaussian(R) 03 system (copyright 2003, Gaussian, Inc.),
 the Gaussian(R) 98 system (copyright 1998, Gaussian, Inc.),
 the Gaussian(R) 94 system (copyright 1995, Gaussian, Inc.),
 the Gaussian 92(TM) system (copyright 1992, Gaussian, Inc.),
 the Gaussian 90(TM) system (copyright 1990, Gaussian, Inc.),
 the Gaussian 88(TM) system (copyright 1988, Gaussian, Inc.),
 the Gaussian 86(TM) system (copyright 1986, Carnegie Mellon
 University), and the Gaussian 82(TM) system (copyright 1983,
 Carnegie Mellon University). Gaussian is a federally registered
 trademark of Gaussian, Inc.
  
 This software contains proprietary and confidential information,
 including trade secrets, belonging to Gaussian, Inc.
  
 This software is provided under written license and may be
 used, copied, transmitted, or stored only in accord with that
 written license.
  
 The following legend is applicable only to US Government
 contracts under FAR:
  
                    RESTRICTED RIGHTS LEGEND
  
 Use, reproduction and disclosure by the US Government is
 subject to restrictions as set forth in subparagraphs (a)
 and (c) of the Commercial Computer Software - Restricted
 Rights clause in FAR 52.227-19.
  
 Gaussian, Inc.
 340 Quinnipiac St., Bldg. 40, Wallingford CT 06492
  
  
 ---------------------------------------------------------------
 Warning -- This program may not be used in any manner that
 competes with the business of Gaussian, Inc. or will provide
 assistance to any competitor of Gaussian, Inc.  The licensee
 of this program is prohibited from giving any competitor of
 Gaussian, Inc. access to this program.  By using this program,
 the user acknowledges that Gaussian, Inc. is engaged in the
 business of creating and licensing software in the field of
 computational chemistry and represents and warrants to the
 licensee that it is not a competitor of Gaussian, Inc. and that
 it will not use this program in any manner prohibited above.
 ---------------------------------------------------------------
  

 Cite this work as:
 Gaussian 16, Revision C.01,
 M. J. Frisch, G. W. Trucks, H. B. Schlegel, G. E. Scuseria, 
 M. A. Robb, J. R. Cheeseman, G. Scalmani, V. Barone, 
 G. A. Petersson, H. Nakatsuji, X. Li, M. Caricato, A. V. Marenich, 
 J. Bloino, B. G. Janesko, R. Gomperts, B. Mennucci, H. P. Hratchian, 
 J. V. Ortiz, A. F. Izmaylov, J. L. Sonnenberg, D. Williams-Young, 
 F. Ding, F. Lipparini, F. Egidi, J. Goings, B. Peng, A. Petrone, 
 T. Henderson, D. Ranasinghe, V. G. Zakrzewski, J. Gao, N. Rega, 
 G. Zheng, W. Liang, M. Hada, M. Ehara, K. Toyota, R. Fukuda, 
 J. Hasegawa, M. Ishida, T. Nakajima, Y. Honda, O. Kitao, H. Nakai, 
 T. Vreven, K. Throssell, J. A. Montgomery, Jr., J. E. Peralta, 
 F. Ogliaro, M. J. Bearpark, J. J. Heyd, E. N. Brothers, K. N. Kudin, 
 V. N. Staroverov, T. A. Keith, R. Kobayashi, J. Normand, 
 K. Raghavachari, A. P. Rendell, J. C. Burant, S. S. Iyengar, 
 J. Tomasi, M. Cossi, J. M. Millam, M. Klene, C. Adamo, R. Cammi, 
 J. W. Ochterski, R. L. Martin, K. Morokuma, O. Farkas, 
 J. B. Foresman, and D. J. Fox, Gaussian, Inc., Wallingford CT, 2019.
 
 ******************************************
 Gaussian 16:  ES64L-G16RevC.01  3-Jul-2019
                 5-Feb-2022 
 ******************************************
 %NProcShared=40
 Will use up to   40 processors via shared memory.
 %mem=16GB
 %chk=Ac4_conf-1.chk
 ----------------------------------------------------------------------
 # B3LYP/6-31G(d,p) empiricaldispersion=GD3BJ int=(grid=ultrafine) opt 
 freq=noraman
 ----------------------------------------------------------------------
 1/18=20,19=15,26=4,38=1/1,3;
 2/9=110,12=2,17=6,18=5,40=1/2;
 3/5=1,6=6,7=101,11=2,25=1,30=1,71=1,74=-5,75=-5,124=41/1,2,3;
 4//1;
 5/5=2,38=5/2;
 6/7=2,8=2,9=2,10=2,28=1/1;
 7//1,2,3,16;
 1/18=20,19=15,26=4/3(2);
 2/9=110/2;
 99//99;
 2/9=110/2;
 3/5=1,6=6,7=101,11=2,25=1,30=1,71=1,74=-5,75=-5,124=41/1,2,3;
 4/5=5,16=3,69=1/1;
 5/5=2,38=5/2;
 7//1,2,3,16;
 1/18=20,19=15,26=4/3(-5);
 2/9=110/2;
 6/7=2,8=2,9=2,10=2,19=2,28=1/1;
 99/9=1/99;
 -------
 Ac4.xyz
 -------
 Symbolic Z-matrix:
 Charge =  0 Multiplicity = 1
 O                    -1.7466    2.2786   -0.5254 
 C                    -0.5582    2.2691    0.1146 
 C                     0.2906    1.02      0.0106 
 C                     1.4403    0.9425    0.8171 
 C                     2.2728   -0.1716    0.7828 
 C                     1.9754   -1.2314   -0.0633 
 C                     0.8478   -1.1701   -0.8764 
 C                    -0.0072   -0.0532   -0.8606 
 O                    -1.1182    0.0221   -1.6815 
 C                    -1.4412   -1.0469   -2.5633 
 O                    -0.2131    3.2453    0.7731 
 H                    -2.099     3.1412   -0.3182 
 H                     1.7002    1.7519    1.4885 
 H                     3.1491   -0.2108    1.4142 
 H                     2.6192   -2.0983   -0.0929 
 H                     0.6566   -2.0101   -1.5231 
 H                    -2.348    -0.7947   -3.1128 
 H                    -1.6345   -1.972    -2.0181 
 H                    -0.6501   -1.2159   -3.2954 
 

 GradGradGradGradGradGradGradGradGradGradGradGradGradGradGradGradGradGrad
 Berny optimization.
 Initialization pass.
                           ----------------------------
                           !    Initial Parameters    !
                           ! (Angstroms and Degrees)  !
 --------------------------                            --------------------------
 ! Name  Definition              Value          Derivative Info.                !
 --------------------------------------------------------------------------------
 ! R1    R(1,2)                  1.3498         estimate D2E/DX2                !
 ! R2    R(1,12)                 0.9546         estimate D2E/DX2                !
 ! R3    R(2,3)                  1.5138         estimate D2E/DX2                !
 ! R4    R(2,11)                 1.2271         estimate D2E/DX2                !
 ! R5    R(3,4)                  1.4065         estimate D2E/DX2                !
 ! R6    R(3,8)                  1.414          estimate D2E/DX2                !
 ! R7    R(4,5)                  1.3912         estimate D2E/DX2                !
 ! R8    R(4,13)                 1.0833         estimate D2E/DX2                !
 ! R9    R(5,6)                  1.3883         estimate D2E/DX2                !
 ! R10   R(5,14)                 1.0808         estimate D2E/DX2                !
 ! R11   R(6,7)                  1.3915         estimate D2E/DX2                !
 ! R12   R(6,15)                 1.0802         estimate D2E/DX2                !
 ! R13   R(7,8)                  1.4067         estimate D2E/DX2                !
 ! R14   R(7,16)                 1.0772         estimate D2E/DX2                !
 ! R15   R(8,9)                  1.3834         estimate D2E/DX2                !
 ! R16   R(9,10)                 1.4229         estimate D2E/DX2                !
 ! R17   R(10,17)                1.0899         estimate D2E/DX2                !
 ! R18   R(10,18)                1.0911         estimate D2E/DX2                !
 ! R19   R(10,19)                1.091          estimate D2E/DX2                !
 ! A1    A(2,1,12)             103.207          estimate D2E/DX2                !
 ! A2    A(1,2,3)              117.8332         estimate D2E/DX2                !
 ! A3    A(1,2,11)             119.7659         estimate D2E/DX2                !
 ! A4    A(3,2,11)             122.3867         estimate D2E/DX2                !
 ! A5    A(2,3,4)              117.6721         estimate D2E/DX2                !
 ! A6    A(2,3,8)              123.4019         estimate D2E/DX2                !
 ! A7    A(4,3,8)              118.9221         estimate D2E/DX2                !
 ! A8    A(3,4,5)              121.274          estimate D2E/DX2                !
 ! A9    A(3,4,13)             120.6866         estimate D2E/DX2                !
 ! A10   A(5,4,13)             118.0389         estimate D2E/DX2                !
 ! A11   A(4,5,6)              119.8775         estimate D2E/DX2                !
 ! A12   A(4,5,14)             119.9884         estimate D2E/DX2                !
 ! A13   A(6,5,14)             120.1341         estimate D2E/DX2                !
 ! A14   A(5,6,7)              119.7394         estimate D2E/DX2                !
 ! A15   A(5,6,15)             120.1086         estimate D2E/DX2                !
 ! A16   A(7,6,15)             120.1516         estimate D2E/DX2                !
 ! A17   A(6,7,8)              121.3956         estimate D2E/DX2                !
 ! A18   A(6,7,16)             117.4047         estimate D2E/DX2                !
 ! A19   A(8,7,16)             121.1991         estimate D2E/DX2                !
 ! A20   A(3,8,7)              118.7857         estimate D2E/DX2                !
 ! A21   A(3,8,9)              119.5654         estimate D2E/DX2                !
 ! A22   A(7,8,9)              121.6464         estimate D2E/DX2                !
 ! A23   A(8,9,10)             120.6063         estimate D2E/DX2                !
 ! A24   A(9,10,17)            109.1154         estimate D2E/DX2                !
 ! A25   A(9,10,18)            111.5645         estimate D2E/DX2                !
 ! A26   A(9,10,19)            111.5685         estimate D2E/DX2                !
 ! A27   A(17,10,18)           107.5018         estimate D2E/DX2                !
 ! A28   A(17,10,19)           107.5066         estimate D2E/DX2                !
 ! A29   A(18,10,19)           109.4161         estimate D2E/DX2                !
 ! D1    D(12,1,2,3)           179.5645         estimate D2E/DX2                !
 ! D2    D(12,1,2,11)            0.9045         estimate D2E/DX2                !
 ! D3    D(1,2,3,4)           -171.7714         estimate D2E/DX2                !
 ! D4    D(1,2,3,8)              8.9602         estimate D2E/DX2                !
 ! D5    D(11,2,3,4)             6.8511         estimate D2E/DX2                !
 ! D6    D(11,2,3,8)          -172.4173         estimate D2E/DX2                !
 ! D7    D(2,3,4,5)            179.9104         estimate D2E/DX2                !
 ! D8    D(2,3,4,13)             0.1712         estimate D2E/DX2                !
 ! D9    D(8,3,4,5)             -0.7874         estimate D2E/DX2                !
 ! D10   D(8,3,4,13)           179.4734         estimate D2E/DX2                !
 ! D11   D(2,3,8,7)           -179.8636         estimate D2E/DX2                !
 ! D12   D(2,3,8,9)              0.6969         estimate D2E/DX2                !
 ! D13   D(4,3,8,7)              0.8766         estimate D2E/DX2                !
 ! D14   D(4,3,8,9)           -178.5629         estimate D2E/DX2                !
 ! D15   D(3,4,5,6)              0.2219         estimate D2E/DX2                !
 ! D16   D(3,4,5,14)          -179.7741         estimate D2E/DX2                !
 ! D17   D(13,4,5,6)           179.9679         estimate D2E/DX2                !
 ! D18   D(13,4,5,14)           -0.0282         estimate D2E/DX2                !
 ! D19   D(4,5,6,7)              0.2453         estimate D2E/DX2                !
 ! D20   D(4,5,6,15)          -179.9972         estimate D2E/DX2                !
 ! D21   D(14,5,6,7)          -179.7586         estimate D2E/DX2                !
 ! D22   D(14,5,6,15)           -0.0012         estimate D2E/DX2                !
 ! D23   D(5,6,7,8)             -0.136          estimate D2E/DX2                !
 ! D24   D(5,6,7,16)           179.5839         estimate D2E/DX2                !
 ! D25   D(15,6,7,8)          -179.8934         estimate D2E/DX2                !
 ! D26   D(15,6,7,16)           -0.1735         estimate D2E/DX2                !
 ! D27   D(6,7,8,3)             -0.4316         estimate D2E/DX2                !
 ! D28   D(6,7,8,9)            178.9958         estimate D2E/DX2                !
 ! D29   D(16,7,8,3)           179.8592         estimate D2E/DX2                !
 ! D30   D(16,7,8,9)            -0.7135         estimate D2E/DX2                !
 ! D31   D(3,8,9,10)          -179.7817         estimate D2E/DX2                !
 ! D32   D(7,8,9,10)             0.7953         estimate D2E/DX2                !
 ! D33   D(8,9,10,17)          179.6789         estimate D2E/DX2                !
 ! D34   D(8,9,10,18)           61.0448         estimate D2E/DX2                !
 ! D35   D(8,9,10,19)          -61.6786         estimate D2E/DX2                !
 --------------------------------------------------------------------------------
 Trust Radius=3.00D-01 FncErr=1.00D-07 GrdErr=1.00D-06 EigMax=2.50D+02 EigMin=1.00D-04
 Number of steps in this run=     93 maximum allowed number of steps=    114.
 GradGradGradGradGradGradGradGradGradGradGradGradGradGradGradGradGradGrad

                          Input orientation:                          
 ---------------------------------------------------------------------
 Center     Atomic      Atomic             Coordinates (Angstroms)
 Number     Number       Type             X           Y           Z
 ---------------------------------------------------------------------
      1          8           0       -1.746600    2.278600   -0.525400
      2          6           0       -0.558200    2.269100    0.114600
      3          6           0        0.290600    1.020000    0.010600
      4          6           0        1.440300    0.942500    0.817100
      5          6           0        2.272800   -0.171600    0.782800
      6          6           0        1.975400   -1.231400   -0.063300
      7          6           0        0.847800   -1.170100   -0.876400
      8          6           0       -0.007200   -0.053200   -0.860600
      9          8           0       -1.118200    0.022100   -1.681500
     10          6           0       -1.441200   -1.046900   -2.563300
     11          8           0       -0.213100    3.245300    0.773100
     12          1           0       -2.099000    3.141200   -0.318200
     13          1           0        1.700200    1.751900    1.488500
     14          1           0        3.149100   -0.210800    1.414200
     15          1           0        2.619200   -2.098300   -0.092900
     16          1           0        0.656600   -2.010100   -1.523100
     17          1           0       -2.348000   -0.794700   -3.112800
     18          1           0       -1.634500   -1.972000   -2.018100
     19          1           0       -0.650100   -1.215900   -3.295400
 ---------------------------------------------------------------------
                    Distance matrix (angstroms):
                    1          2          3          4          5
     1  O    0.000000
     2  C    1.349809   0.000000
     3  C    2.453885   1.513779   0.000000
     4  C    3.707263   2.499475   1.406506   0.000000
     5  C    4.885739   3.797113   2.438303   1.391205   0.000000
     6  C    5.136820   4.324844   2.812972   2.405676   1.388347
     7  C    4.329855   3.845389   2.427711   2.771656   2.404282
     8  C    2.928338   2.578312   1.414013   2.429270   2.813038
     9  O    2.612134   2.930629   2.417380   3.692704   4.196329
    10  C    3.912193   4.352780   3.727756   4.867017   5.075070
    11  O    2.229851   1.227063   2.405635   2.835235   4.225518
    12  H    0.954566   1.822619   3.212131   4.318545   5.594594
    13  H    4.026616   2.693598   2.169525   1.083261   2.127378
    14  H    5.824692   4.645744   3.414086   2.146305   1.080789
    15  H    6.197138   5.404915   3.893184   3.385908   2.144532
    16  H    5.016346   4.740185   3.415801   3.848190   3.362939
    17  H    4.062203   4.796495   4.473363   5.728280   6.075833
    18  H    4.506475   4.867624   4.095570   5.097751   5.133564
    19  H    4.592030   4.876656   4.100464   5.093242   5.125000
                    6          7          8          9         10
     6  C    0.000000
     7  C    1.391536   0.000000
     8  C    2.440194   1.406677   0.000000
     9  O    3.709474   2.436120   1.383426   0.000000
    10  C    4.237593   2.846108   2.437823   1.422906   0.000000
    11  O    5.052716   4.831368   3.686661   4.151299   5.573399
    12  H    5.982085   5.251907   3.856685   3.542505   4.797224
    13  H    3.374003   3.854533   3.419338   4.580883   5.841126
    14  H    2.145274   3.385718   3.893813   5.277068   6.131103
    15  H    1.080218   2.147856   3.416105   4.581256   4.867768
    16  H    2.115803   1.077209   2.170022   2.702747   2.531903
    17  H    5.308667   3.918616   3.331902   2.056256   1.089881
    18  H    4.171464   2.847514   2.769423   2.087175   1.091063
    19  H    4.164128   2.845587   2.773706   2.087207   1.091041
                   11         12         13         14         15
    11  O    0.000000
    12  H    2.181374   0.000000
    13  H    2.530367   4.430377   0.000000
    14  H    4.864157   6.463719   2.440701   0.000000
    15  H    6.109496   7.054398   4.262561   2.472812   0.000000
    16  H    5.800702   5.964982   4.930667   4.251796   2.430031
    17  H    5.998301   4.833539   6.636645   7.145123   5.957537
    18  H    6.085343   5.408349   6.106054   6.145351   4.670793
    19  H    6.053591   5.472417   6.100610   6.133880   4.660789
                   16         17         18         19
    16  H    0.000000
    17  H    3.609981   0.000000
    18  H    2.344273   1.758831   0.000000
    19  H    2.340783   1.758868   1.781074   0.000000
 Stoichiometry    C8H8O3
 Framework group  C1[X(C8H8O3)]
 Deg. of freedom    51
 Full point group                 C1      NOp   1
 Largest Abelian subgroup         C1      NOp   1
 Largest concise Abelian subgroup C1      NOp   1
                         Standard orientation:                         
 ---------------------------------------------------------------------
 Center     Atomic      Atomic             Coordinates (Angstroms)
 Number     Number       Type             X           Y           Z
 ---------------------------------------------------------------------
      1          8           0       -2.144852    1.289163   -0.157615
      2          6           0       -1.907531   -0.029317    0.007539
      3          6           0       -0.467263   -0.495160   -0.004512
      4          6           0       -0.229129   -1.881348   -0.010410
      5          6           0        1.064989   -2.391780   -0.023371
      6          6           0        2.150059   -1.525683   -0.026057
      7          6           0        1.935895   -0.150813   -0.010580
      8          6           0        0.636730    0.388322    0.005026
      9          8           0        0.417924    1.753859    0.041088
     10          6           0        1.512467    2.663038    0.046695
     11          8           0       -2.848563   -0.806293    0.135797
     12          1           0       -3.097129    1.345378   -0.122893
     13          1           0       -1.053645   -2.583933   -0.009187
     14          1           0        1.224002   -3.460777   -0.031391
     15          1           0        3.156483   -1.917957   -0.036153
     16          1           0        2.804510    0.486263   -0.006328
     17          1           0        1.129108    3.682980    0.071121
     18          1           0        2.121575    2.562903   -0.852959
     19          1           0        2.141735    2.527751    0.927655
 ---------------------------------------------------------------------
 Rotational constants (GHZ):           1.3706874           1.1423707           0.6267666
 Standard basis: 6-31G(d,p) (6D, 7F)
 There are   205 symmetry adapted cartesian basis functions of A   symmetry.
 There are   205 symmetry adapted basis functions of A   symmetry.
   205 basis functions,   364 primitive gaussians,   205 cartesian basis functions
    40 alpha electrons       40 beta electrons
       nuclear repulsion energy       590.6086222628 Hartrees.
 NAtoms=   19 NActive=   19 NUniq=   19 SFac= 1.00D+00 NAtFMM=   60 NAOKFM=F Big=F
 Integral buffers will be    131072 words long.
 Raffenetti 2 integral format.
 Two-electron integral symmetry is turned on.
 Nuclear repulsion after empirical dispersion term =      590.5752734675 Hartrees.
 One-electron integrals computed using PRISM.
 NBasis=   205 RedAO= T EigKep=  4.06D-04  NBF=   205
 NBsUse=   205 1.00D-06 EigRej= -1.00D+00 NBFU=   205
 ExpMin= 1.61D-01 ExpMax= 5.48D+03 ExpMxC= 8.25D+02 IAcc=3 IRadAn=         5 AccDes= 0.00D+00
 Harris functional with IExCor=  402 and IRadAn=       5 diagonalized for initial guess.
 HarFok:  IExCor=  402 AccDes= 0.00D+00 IRadAn=         5 IDoV= 1 UseB2=F ITyADJ=14
 ICtDFT=  3500011 ScaDFX=  1.000000  1.000000  1.000000  1.000000
 FoFCou: FMM=F IPFlag=           0 FMFlag=      100000 FMFlg1=           0
         NFxFlg=           0 DoJE=T BraDBF=F KetDBF=T FulRan=T
         wScrn=  0.000000 ICntrl=       500 IOpCl=  0 I1Cent=   200000004 NGrid=           0
         NMat0=    1 NMatS0=      1 NMatT0=    0 NMatD0=    1 NMtDS0=    0 NMtDT0=    0
 Petite list used in FoFCou.
 Requested convergence on RMS density matrix=1.00D-08 within 128 cycles.
 Requested convergence on MAX density matrix=1.00D-06.
 Requested convergence on             energy=1.00D-06.
 No special actions if energy rises.
 Integral accuracy reduced to 1.0D-05 until final iterations.
 Initial convergence to 1.0D-05 achieved.  Increase integral accuracy.
 SCF Done:  E(RB3LYP) =  -535.383319247     A.U. after   15 cycles
            NFock= 15  Conv=0.42D-08     -V/T= 2.0094

 **********************************************************************

            Population analysis using the SCF Density.

 **********************************************************************

 Orbital symmetries:
       Occupied  (A) (A) (A) (A) (A) (A) (A) (A) (A) (A) (A) (A)
                 (A) (A) (A) (A) (A) (A) (A) (A) (A) (A) (A) (A)
                 (A) (A) (A) (A) (A) (A) (A) (A) (A) (A) (A) (A)
                 (A) (A) (A) (A)
       Virtual   (A) (A) (A) (A) (A) (A) (A) (A) (A) (A) (A) (A)
                 (A) (A) (A) (A) (A) (A) (A) (A) (A) (A) (A) (A)
                 (A) (A) (A) (A) (A) (A) (A) (A) (A) (A) (A) (A)
                 (A) (A) (A) (A) (A) (A) (A) (A) (A) (A) (A) (A)
                 (A) (A) (A) (A) (A) (A) (A) (A) (A) (A) (A) (A)
                 (A) (A) (A) (A) (A) (A) (A) (A) (A) (A) (A) (A)
                 (A) (A) (A) (A) (A) (A) (A) (A) (A) (A) (A) (A)
                 (A) (A) (A) (A) (A) (A) (A) (A) (A) (A) (A) (A)
                 (A) (A) (A) (A) (A) (A) (A) (A) (A) (A) (A) (A)
                 (A) (A) (A) (A) (A) (A) (A) (A) (A) (A) (A) (A)
                 (A) (A) (A) (A) (A) (A) (A) (A) (A) (A) (A) (A)
                 (A) (A) (A) (A) (A) (A) (A) (A) (A) (A) (A) (A)
                 (A) (A) (A) (A) (A) (A) (A) (A) (A) (A) (A) (A)
                 (A) (A) (A) (A) (A) (A) (A) (A) (A)
 The electronic state is 1-A.
 Alpha  occ. eigenvalues --  -19.18538 -19.18363 -19.12513 -10.31701 -10.26709
 Alpha  occ. eigenvalues --  -10.24643 -10.21091 -10.20260 -10.20051 -10.19665
 Alpha  occ. eigenvalues --  -10.18999  -1.09974  -1.06214  -0.99718  -0.86119
 Alpha  occ. eigenvalues --   -0.77326  -0.75542  -0.70604  -0.65692  -0.60233
 Alpha  occ. eigenvalues --   -0.59022  -0.54149  -0.50635  -0.48503  -0.47282
 Alpha  occ. eigenvalues --   -0.46426  -0.46288  -0.44585  -0.43601  -0.42146
 Alpha  occ. eigenvalues --   -0.39432  -0.38066  -0.37743  -0.36174  -0.32721
 Alpha  occ. eigenvalues --   -0.32288  -0.30578  -0.26734  -0.25907  -0.23097
 Alpha virt. eigenvalues --   -0.04224   0.00186   0.05797   0.08320   0.09633
 Alpha virt. eigenvalues --    0.10398   0.12256   0.14663   0.15440   0.16210
 Alpha virt. eigenvalues --    0.17508   0.18324   0.19395   0.22622   0.24927
 Alpha virt. eigenvalues --    0.27088   0.29827   0.31915   0.33606   0.37351
 Alpha virt. eigenvalues --    0.39398   0.48290   0.49358   0.50467   0.52241
 Alpha virt. eigenvalues --    0.53949   0.54913   0.55282   0.55860   0.57885
 Alpha virt. eigenvalues --    0.58921   0.60144   0.60357   0.60728   0.63866
 Alpha virt. eigenvalues --    0.63927   0.65849   0.67479   0.69822   0.71303
 Alpha virt. eigenvalues --    0.74579   0.78460   0.79585   0.80419   0.81334
 Alpha virt. eigenvalues --    0.82184   0.82591   0.84081   0.85328   0.87821
 Alpha virt. eigenvalues --    0.90334   0.91774   0.93076   0.94203   0.97636
 Alpha virt. eigenvalues --    0.98501   0.99050   1.02529   1.04184   1.04471
 Alpha virt. eigenvalues --    1.05826   1.08532   1.10162   1.17659   1.18336
 Alpha virt. eigenvalues --    1.23253   1.25893   1.28065   1.28622   1.29516
 Alpha virt. eigenvalues --    1.33026   1.34771   1.39238   1.40625   1.41178
 Alpha virt. eigenvalues --    1.42224   1.44700   1.46205   1.50628   1.57680
 Alpha virt. eigenvalues --    1.58960   1.62901   1.64107   1.72788   1.73830
 Alpha virt. eigenvalues --    1.76462   1.78300   1.79728   1.84335   1.85001
 Alpha virt. eigenvalues --    1.86759   1.87583   1.87901   1.90407   1.92604
 Alpha virt. eigenvalues --    1.93892   1.94859   1.99098   1.99837   2.00724
 Alpha virt. eigenvalues --    2.01897   2.02867   2.03362   2.05325   2.07318
 Alpha virt. eigenvalues --    2.07872   2.13735   2.18795   2.25343   2.28501
 Alpha virt. eigenvalues --    2.28721   2.31260   2.32096   2.38179   2.38720
 Alpha virt. eigenvalues --    2.40894   2.42435   2.44601   2.46121   2.47736
 Alpha virt. eigenvalues --    2.50187   2.54552   2.55015   2.55698   2.56055
 Alpha virt. eigenvalues --    2.58071   2.58080   2.60436   2.65490   2.65693
 Alpha virt. eigenvalues --    2.69860   2.71399   2.73122   2.75076   2.75693
 Alpha virt. eigenvalues --    2.77741   2.84699   2.85380   2.87516   2.96441
 Alpha virt. eigenvalues --    3.02687   3.08277   3.11164   3.15538   3.17877
 Alpha virt. eigenvalues --    3.21884   3.25017   3.35025   3.38437   3.40600
 Alpha virt. eigenvalues --    3.44596   3.47555   3.49568   3.84683   3.93758
 Alpha virt. eigenvalues --    4.08042   4.11810   4.13995   4.23027   4.38008
 Alpha virt. eigenvalues --    4.41357   4.48576   4.50787   4.56291   4.85015
          Condensed to atoms (all electrons):
               1          2          3          4          5          6
     1  O    8.110122   0.262545  -0.075770   0.003562  -0.000036  -0.000003
     2  C    0.262545   4.435713   0.279420  -0.048571   0.007280  -0.000303
     3  C   -0.075770   0.279420   5.098377   0.512899  -0.026480  -0.033483
     4  C    0.003562  -0.048571   0.512899   4.917518   0.492208  -0.025818
     5  C   -0.000036   0.007280  -0.026480   0.492208   4.866014   0.531557
     6  C   -0.000003  -0.000303  -0.033483  -0.025818   0.531557   4.814500
     7  C    0.000055   0.006593  -0.051381  -0.053451  -0.028275   0.504437
     8  C    0.003507  -0.028725   0.448174  -0.036902  -0.043056  -0.008121
     9  O   -0.009439  -0.000564  -0.063910   0.003448  -0.000101   0.004203
    10  C    0.000224  -0.000195   0.004878  -0.000074  -0.000004   0.000296
    11  O   -0.097769   0.560797  -0.089199   0.002130   0.000883  -0.000009
    12  H    0.271830  -0.013152   0.011332  -0.000249   0.000000   0.000000
    13  H    0.000283  -0.009454  -0.038561   0.370863  -0.042130   0.005203
    14  H    0.000000  -0.000144   0.003971  -0.037656   0.370326  -0.042589
    15  H   -0.000000   0.000006   0.000665   0.004602  -0.039617   0.368171
    16  H    0.000001  -0.000096   0.003264   0.000745   0.005029  -0.039587
    17  H    0.000069  -0.000044   0.000047   0.000004  -0.000000  -0.000001
    18  H   -0.000016   0.000042  -0.000365  -0.000019   0.000001  -0.000093
    19  H   -0.000011   0.000020  -0.000314  -0.000010  -0.000004  -0.000091
               7          8          9         10         11         12
     1  O    0.000055   0.003507  -0.009439   0.000224  -0.097769   0.271830
     2  C    0.006593  -0.028725  -0.000564  -0.000195   0.560797  -0.013152
     3  C   -0.051381   0.448174  -0.063910   0.004878  -0.089199   0.011332
     4  C   -0.053451  -0.036902   0.003448  -0.000074   0.002130  -0.000249
     5  C   -0.028275  -0.043056  -0.000101  -0.000004   0.000883   0.000000
     6  C    0.504437  -0.008121   0.004203   0.000296  -0.000009   0.000000
     7  C    5.046363   0.437332  -0.065383  -0.006766  -0.000072   0.000015
     8  C    0.437332   4.687612   0.289450  -0.036575   0.003000  -0.000529
     9  O   -0.065383   0.289450   8.209583   0.250498   0.000011   0.000539
    10  C   -0.006766  -0.036575   0.250498   4.714388   0.000001  -0.000014
    11  O   -0.000072   0.003000   0.000011   0.000001   8.085735   0.012949
    12  H    0.000015  -0.000529   0.000539  -0.000014   0.012949   0.401543
    13  H    0.000150   0.005244  -0.000032   0.000002   0.012489  -0.000033
    14  H    0.005170   0.000907   0.000002  -0.000000   0.000001  -0.000000
    15  H   -0.037216   0.003661  -0.000045  -0.000008   0.000000   0.000000
    16  H    0.367842  -0.042221  -0.008862   0.005819   0.000000  -0.000000
    17  H    0.000026   0.002816  -0.030335   0.396722   0.000000  -0.000005
    18  H    0.004942  -0.005940  -0.033576   0.373648   0.000000   0.000001
    19  H    0.004903  -0.006030  -0.033638   0.373441  -0.000000   0.000001
              13         14         15         16         17         18
     1  O    0.000283   0.000000  -0.000000   0.000001   0.000069  -0.000016
     2  C   -0.009454  -0.000144   0.000006  -0.000096  -0.000044   0.000042
     3  C   -0.038561   0.003971   0.000665   0.003264   0.000047  -0.000365
     4  C    0.370863  -0.037656   0.004602   0.000745   0.000004  -0.000019
     5  C   -0.042130   0.370326  -0.039617   0.005029  -0.000000   0.000001
     6  C    0.005203  -0.042589   0.368171  -0.039587  -0.000001  -0.000093
     7  C    0.000150   0.005170  -0.037216   0.367842   0.000026   0.004942
     8  C    0.005244   0.000907   0.003661  -0.042221   0.002816  -0.005940
     9  O   -0.000032   0.000002  -0.000045  -0.008862  -0.030335  -0.033576
    10  C    0.000002  -0.000000  -0.000008   0.005819   0.396722   0.373648
    11  O    0.012489   0.000001   0.000000   0.000000   0.000000   0.000000
    12  H   -0.000033  -0.000000   0.000000  -0.000000  -0.000005   0.000001
    13  H    0.580195  -0.006116  -0.000197   0.000014  -0.000000  -0.000000
    14  H   -0.006116   0.622952  -0.005796  -0.000212  -0.000000   0.000000
    15  H   -0.000197  -0.005796   0.618061  -0.006619  -0.000000   0.000003
    16  H    0.000014  -0.000212  -0.006619   0.621770  -0.000143   0.001674
    17  H   -0.000000  -0.000000  -0.000000  -0.000143   0.571978  -0.035642
    18  H   -0.000000   0.000000   0.000003   0.001674  -0.035642   0.630377
    19  H    0.000000   0.000000   0.000005   0.001610  -0.036055  -0.048817
              19
     1  O   -0.000011
     2  C    0.000020
     3  C   -0.000314
     4  C   -0.000010
     5  C   -0.000004
     6  C   -0.000091
     7  C    0.004903
     8  C   -0.006030
     9  O   -0.033638
    10  C    0.373441
    11  O   -0.000000
    12  H    0.000001
    13  H    0.000000
    14  H    0.000000
    15  H    0.000005
    16  H    0.001610
    17  H   -0.036055
    18  H   -0.048817
    19  H    0.631726
 Mulliken charges:
               1
     1  O   -0.469153
     2  C    0.548833
     3  C    0.016436
     4  C   -0.105229
     5  C   -0.093595
     6  C   -0.078270
     7  C   -0.135283
     8  C    0.326396
     9  O   -0.511848
    10  C   -0.076280
    11  O   -0.490947
    12  H    0.315771
    13  H    0.122080
    14  H    0.089184
    15  H    0.094325
    16  H    0.089972
    17  H    0.130564
    18  H    0.113781
    19  H    0.113264
 Sum of Mulliken charges =  -0.00000
 Mulliken charges with hydrogens summed into heavy atoms:
               1
     1  O   -0.153382
     2  C    0.548833
     3  C    0.016436
     4  C    0.016851
     5  C   -0.004411
     6  C    0.016054
     7  C   -0.045311
     8  C    0.326396
     9  O   -0.511848
    10  C    0.281329
    11  O   -0.490947
 Electronic spatial extent (au):  <R**2>=           1741.8698
 Charge=             -0.0000 electrons
 Dipole moment (field-independent basis, Debye):
    X=              3.1259    Y=              1.5518    Z=             -0.1682  Tot=              3.4940
 Quadrupole moment (field-independent basis, Debye-Ang):
   XX=            -58.5794   YY=            -54.8010   ZZ=            -64.4822
   XY=             -2.9646   XZ=              0.8390   YZ=              0.5482
 Traceless Quadrupole moment (field-independent basis, Debye-Ang):
   XX=              0.7082   YY=              4.4865   ZZ=             -5.1947
   XY=             -2.9646   XZ=              0.8390   YZ=              0.5482
 Octapole moment (field-independent basis, Debye-Ang**2):
  XXX=             -0.3275  YYY=             17.1663  ZZZ=              0.2220  XYY=              8.8760
  XXY=             31.2251  XXZ=             -3.1576  XZZ=             -9.1346  YZZ=              7.9877
  YYZ=              0.0635  XYZ=             -0.5897
 Hexadecapole moment (field-independent basis, Debye-Ang**3):
 XXXX=          -1069.3697 YYYY=           -898.4069 ZZZZ=            -68.8640 XXXY=            -95.7044
 XXXZ=             11.0285 YYYX=             16.0710 YYYZ=              1.2592 ZZZX=              0.4595
 ZZZY=             -0.9709 XXYY=           -319.4694 XXZZ=           -202.8659 YYZZ=           -190.2908
 XXYZ=              1.6229 YYXZ=              1.0882 ZZXY=              5.4066
 N-N= 5.905752734675D+02 E-N=-2.430598116494D+03  KE= 5.304111387310D+02
 Calling FoFJK, ICntrl=      2127 FMM=F ISym2X=0 I1Cent= 0 IOpClX= 0 NMat=1 NMatS=1 NMatT=0.
 ***** Axes restored to original set *****
 -------------------------------------------------------------------
 Center     Atomic                   Forces (Hartrees/Bohr)
 Number     Number              X              Y              Z
 -------------------------------------------------------------------
      1        8           0.010228792   -0.021165226   -0.005098485
      2        6           0.013272376    0.005569430    0.012601720
      3        6          -0.014407496    0.011933227   -0.004165235
      4        6           0.000288264   -0.003185602   -0.001357809
      5        6          -0.000033170    0.003516402    0.002101447
      6        6          -0.005264336    0.005020742   -0.001057912
      7        6           0.000173663   -0.000614717   -0.000475783
      8        6          -0.008143494   -0.012577316   -0.013706778
      9        8           0.008012923    0.005915044    0.010154992
     10        6           0.005870865   -0.001966625    0.003391220
     11        8           0.000072685   -0.010797526   -0.005516157
     12        1          -0.008145732    0.016291398    0.003354080
     13        1          -0.005823679    0.003901734   -0.002181406
     14        1           0.002116811    0.000714950    0.002052557
     15        1           0.001213352   -0.003554763   -0.001105233
     16        1          -0.003992261   -0.001487476   -0.003930463
     17        1          -0.000837851    0.007438432    0.003773664
     18        1           0.001181733   -0.003604495    0.002538524
     19        1           0.004216554   -0.001347611   -0.001372943
 -------------------------------------------------------------------
 Cartesian Forces:  Max     0.021165226 RMS     0.006976918

 GradGradGradGradGradGradGradGradGradGradGradGradGradGradGradGradGradGrad
 Berny optimization.
 FormGI is forming the generalized inverse of G from B-inverse, IUseBI=4.
 Internal  Forces:  Max     0.025430493 RMS     0.005718660
 Search for a local minimum.
 Step number   1 out of a maximum of   93
 All quantities printed in internal units (Hartrees-Bohrs-Radians)
 Mixed Optimization -- RFO/linear search
 Second derivative matrix not updated -- first step.
 ITU=  0
     Eigenvalues ---    0.00584   0.01155   0.01389   0.01532   0.01911
     Eigenvalues ---    0.01945   0.01963   0.02092   0.02097   0.02101
     Eigenvalues ---    0.02208   0.02216   0.02227   0.02356   0.09946
     Eigenvalues ---    0.10330   0.16000   0.16000   0.16000   0.16000
     Eigenvalues ---    0.16000   0.16000   0.16000   0.16000   0.22000
     Eigenvalues ---    0.22482   0.24468   0.24997   0.24998   0.24999
     Eigenvalues ---    0.25000   0.25000   0.30974   0.34690   0.34693
     Eigenvalues ---    0.34826   0.35603   0.35899   0.35968   0.36334
     Eigenvalues ---    0.41087   0.41323   0.42026   0.44214   0.46115
     Eigenvalues ---    0.46195   0.47301   0.48481   0.55062   0.56659
     Eigenvalues ---    0.92321
 RFO step:  Lambda=-8.38355602D-03 EMin= 5.83671702D-03
 Linear search not attempted -- first point.
 Iteration  1 RMS(Cart)=  0.04706049 RMS(Int)=  0.00054313
 Iteration  2 RMS(Cart)=  0.00088373 RMS(Int)=  0.00005887
 Iteration  3 RMS(Cart)=  0.00000030 RMS(Int)=  0.00005887
 Variable       Old X    -DE/DX   Delta X   Delta X   Delta X     New X
                                 (Linear)    (Quad)   (Total)
    R1        2.55077  -0.00104   0.00000  -0.00186  -0.00186   2.54891
    R2        1.80387   0.01846   0.00000   0.03210   0.03210   1.83597
    R3        2.86063  -0.01662   0.00000  -0.05224  -0.05224   2.80839
    R4        2.31881  -0.01153   0.00000  -0.01238  -0.01238   2.30644
    R5        2.65791  -0.00809   0.00000  -0.01857  -0.01857   2.63934
    R6        2.67210  -0.00094   0.00000  -0.00299  -0.00298   2.66912
    R7        2.62900  -0.00103   0.00000  -0.00206  -0.00208   2.62692
    R8        2.04707   0.00017   0.00000   0.00046   0.00046   2.04752
    R9        2.62360   0.00667   0.00000   0.01457   0.01455   2.63815
   R10        2.04239   0.00289   0.00000   0.00787   0.00787   2.05026
   R11        2.62962   0.00081   0.00000   0.00241   0.00241   2.63203
   R12        2.04132   0.00361   0.00000   0.00980   0.00980   2.05111
   R13        2.65823  -0.00529   0.00000  -0.01174  -0.01173   2.64650
   R14        2.03563   0.00423   0.00000   0.01137   0.01137   2.04700
   R15        2.61430  -0.02543   0.00000  -0.05156  -0.05156   2.56273
   R16        2.68890  -0.00792   0.00000  -0.01848  -0.01848   2.67042
   R17        2.05958   0.00052   0.00000   0.00145   0.00145   2.06102
   R18        2.06181   0.00412   0.00000   0.01158   0.01158   2.07339
   R19        2.06177   0.00419   0.00000   0.01178   0.01178   2.07355
    A1        1.80130   0.00274   0.00000   0.01627   0.01627   1.81758
    A2        2.05658  -0.00821   0.00000  -0.03164  -0.03171   2.02486
    A3        2.09031   0.00845   0.00000   0.03285   0.03277   2.12308
    A4        2.13605  -0.00023   0.00000  -0.00073  -0.00081   2.13524
    A5        2.05377  -0.01009   0.00000  -0.03773  -0.03774   2.01603
    A6        2.15377   0.00943   0.00000   0.03780   0.03780   2.19157
    A7        2.07558   0.00066   0.00000  -0.00003  -0.00002   2.07556
    A8        2.11663   0.00085   0.00000   0.00275   0.00274   2.11937
    A9        2.10638  -0.00794   0.00000  -0.04598  -0.04598   2.06040
   A10        2.06017   0.00709   0.00000   0.04324   0.04324   2.10341
   A11        2.09226  -0.00282   0.00000  -0.01006  -0.01008   2.08217
   A12        2.09419   0.00046   0.00000  -0.00058  -0.00056   2.09363
   A13        2.09674   0.00235   0.00000   0.01063   0.01065   2.10738
   A14        2.08985   0.00185   0.00000   0.01170   0.01168   2.10153
   A15        2.09629   0.00063   0.00000   0.00339   0.00340   2.09969
   A16        2.09704  -0.00248   0.00000  -0.01508  -0.01507   2.08197
   A17        2.11875  -0.00493   0.00000  -0.01987  -0.01987   2.09889
   A18        2.04910   0.00650   0.00000   0.03391   0.03391   2.08301
   A19        2.11532  -0.00157   0.00000  -0.01403  -0.01403   2.10129
   A20        2.07320   0.00439   0.00000   0.01557   0.01560   2.08880
   A21        2.08681  -0.00587   0.00000  -0.02201  -0.02202   2.06478
   A22        2.12313   0.00148   0.00000   0.00645   0.00643   2.12956
   A23        2.10498  -0.01552   0.00000  -0.06008  -0.06008   2.04490
   A24        1.90442  -0.01194   0.00000  -0.07238  -0.07256   1.83186
   A25        1.94717   0.00102   0.00000   0.00681   0.00667   1.95383
   A26        1.94724   0.00106   0.00000   0.00706   0.00693   1.95416
   A27        1.87626   0.00511   0.00000   0.02888   0.02869   1.90495
   A28        1.87634   0.00513   0.00000   0.02905   0.02887   1.90522
   A29        1.90967  -0.00012   0.00000   0.00188   0.00178   1.91145
    D1        3.13399   0.00001   0.00000   0.00572   0.00587   3.13986
    D2        0.01579  -0.00037   0.00000  -0.01686  -0.01701  -0.00123
    D3       -2.99798  -0.00036   0.00000  -0.02095  -0.02088  -3.01885
    D4        0.15638  -0.00046   0.00000  -0.02483  -0.02475   0.13163
    D5        0.11957   0.00014   0.00000   0.00273   0.00266   0.12223
    D6       -3.00925   0.00005   0.00000  -0.00114  -0.00122  -3.01047
    D7        3.14003  -0.00007   0.00000  -0.00107  -0.00102   3.13901
    D8        0.00299  -0.00014   0.00000  -0.00317  -0.00307  -0.00008
    D9       -0.01374   0.00009   0.00000   0.00294   0.00289  -0.01085
   D10        3.13240   0.00003   0.00000   0.00084   0.00084   3.13324
   D11       -3.13921  -0.00009   0.00000  -0.00133  -0.00127  -3.14049
   D12        0.01216  -0.00013   0.00000  -0.00236  -0.00229   0.00987
   D13        0.01530  -0.00012   0.00000  -0.00500  -0.00502   0.01028
   D14       -3.11651  -0.00015   0.00000  -0.00603  -0.00604  -3.12255
   D15        0.00387   0.00002   0.00000   0.00058   0.00058   0.00445
   D16       -3.13765   0.00001   0.00000   0.00000   0.00001  -3.13764
   D17        3.14103   0.00005   0.00000   0.00240   0.00245  -3.13970
   D18       -0.00049   0.00004   0.00000   0.00183   0.00188   0.00139
   D19        0.00428  -0.00005   0.00000  -0.00172  -0.00170   0.00258
   D20       -3.14154   0.00000   0.00000   0.00026   0.00029  -3.14126
   D21       -3.13738  -0.00004   0.00000  -0.00114  -0.00112  -3.13850
   D22       -0.00002   0.00002   0.00000   0.00084   0.00087   0.00085
   D23       -0.00237  -0.00001   0.00000  -0.00061  -0.00061  -0.00299
   D24        3.13433   0.00004   0.00000   0.00203   0.00207   3.13640
   D25       -3.13973  -0.00008   0.00000  -0.00264  -0.00263   3.14083
   D26       -0.00303  -0.00002   0.00000   0.00000   0.00005  -0.00298
   D27       -0.00753   0.00011   0.00000   0.00401   0.00401  -0.00352
   D28        3.12407   0.00011   0.00000   0.00489   0.00491   3.12897
   D29        3.13913   0.00003   0.00000   0.00114   0.00117   3.14031
   D30       -0.01245   0.00003   0.00000   0.00202   0.00206  -0.01039
   D31       -3.13778  -0.00000   0.00000  -0.00056  -0.00056  -3.13834
   D32        0.01388  -0.00006   0.00000  -0.00165  -0.00165   0.01223
   D33        3.13599  -0.00001   0.00000   0.00008   0.00009   3.13608
   D34        1.06543   0.00068   0.00000   0.00650   0.00643   1.07186
   D35       -1.07649  -0.00066   0.00000  -0.00598  -0.00590  -1.08240
         Item               Value     Threshold  Converged?
 Maximum Force            0.025430     0.000450     NO 
 RMS     Force            0.005719     0.000300     NO 
 Maximum Displacement     0.148622     0.001800     NO 
 RMS     Displacement     0.047289     0.001200     NO 
 Predicted change in Energy=-4.328811D-03
 GradGradGradGradGradGradGradGradGradGradGradGradGradGradGradGradGradGrad

                          Input orientation:                          
 ---------------------------------------------------------------------
 Center     Atomic      Atomic             Coordinates (Angstroms)
 Number     Number       Type             X           Y           Z
 ---------------------------------------------------------------------
      1          8           0       -1.713166    2.277027   -0.527189
      2          6           0       -0.536399    2.257182    0.131713
      3          6           0        0.267725    1.015161   -0.007429
      4          6           0        1.406973    0.942868    0.797310
      5          6           0        2.246055   -0.165050    0.768037
      6          6           0        1.946656   -1.226385   -0.088045
      7          6           0        0.821157   -1.175672   -0.906944
      8          6           0       -0.023941   -0.059339   -0.876541
      9          8           0       -1.120804    0.033814   -1.668583
     10          6           0       -1.392128   -1.056445   -2.525698
     11          8           0       -0.161152    3.206392    0.800924
     12          1           0       -2.087038    3.149271   -0.319039
     13          1           0        1.621552    1.778377    1.452945
     14          1           0        3.122896   -0.197577    1.406166
     15          1           0        2.590427   -2.099528   -0.123816
     16          1           0        0.607823   -2.006732   -1.568164
     17          1           0       -2.303458   -0.777605   -3.056015
     18          1           0       -1.570588   -1.983302   -1.966306
     19          1           0       -0.586689   -1.216758   -3.253425
 ---------------------------------------------------------------------
                    Distance matrix (angstroms):
                    1          2          3          4          5
     1  O    0.000000
     2  C    1.348823   0.000000
     3  C    2.405491   1.486134   0.000000
     4  C    3.642738   2.438675   1.396681   0.000000
     5  C    4.828745   3.743550   2.430645   1.390107   0.000000
     6  C    5.085375   4.283584   2.801756   2.404324   1.396048
     7  C    4.299784   3.834874   2.432111   2.781345   2.420177
     8  C    2.904158   2.577879   1.412435   2.419444   2.805119
     9  O    2.585669   2.919925   2.377075   3.646460   4.160817
    10  C    3.899890   4.332924   3.659008   4.782741   4.987950
    11  O    2.244181   1.220513   2.374629   2.753646   4.142746
    12  H    0.971553   1.844853   3.193186   4.280486   5.562567
    13  H    3.910233   2.575202   2.132614   1.083502   2.153140
    14  H    5.766196   4.586994   3.408957   2.148421   1.084951
    15  H    6.151248   5.368729   3.887129   3.391933   2.157822
    16  H    4.982089   4.730728   3.418098   3.864486   3.396091
    17  H    4.009263   4.742788   4.372513   5.619203   5.974668
    18  H    4.499088   4.842823   4.025838   5.006587   5.034822
    19  H    4.572510   4.850767   4.030877   5.004711   5.030177
                    6          7          8          9         10
     6  C    0.000000
     7  C    1.392809   0.000000
     8  C    2.422184   1.400470   0.000000
     9  O    3.673623   2.411257   1.356140   0.000000
    10  C    4.137452   2.744669   2.363446   1.413127   0.000000
    11  O    4.988249   4.804605   3.673923   4.133358   5.545584
    12  H    5.955704   5.244842   3.855172   3.530007   4.800030
    13  H    3.392483   3.864728   3.392839   4.506435   5.740043
    14  H    2.162095   3.406634   3.890044   5.245628   6.048360
    15  H    1.085403   2.144089   3.400571   4.550899   4.766320
    16  H    2.142934   1.083228   2.160974   2.676203   2.412410
    17  H    5.203241   3.813159   3.234534   1.995504   1.090647
    18  H    4.058545   2.737691   2.698396   2.087990   1.097192
    19  H    4.054326   2.736729   2.702939   2.088284   1.097277
                   11         12         13         14         15
    11  O    0.000000
    12  H    2.228591   0.000000
    13  H    2.375372   4.332773   0.000000
    14  H    4.768469   6.428152   2.482059   0.000000
    15  H    6.048066   7.033255   4.296864   2.498356   0.000000
    16  H    5.777591   5.950374   4.947909   4.294796   2.454684
    17  H    5.944551   4.791474   6.501498   7.049313   5.856226
    18  H    6.047892   5.415119   6.002605   6.049064   4.552178
    19  H    6.015237   5.470272   5.999757   6.042478   4.546186
                   16         17         18         19
    16  H    0.000000
    17  H    3.492851   0.000000
    18  H    2.214619   1.782770   0.000000
    19  H    2.211566   1.783009   1.792295   0.000000
 Stoichiometry    C8H8O3
 Framework group  C1[X(C8H8O3)]
 Deg. of freedom    51
 Full point group                 C1      NOp   1
 Largest Abelian subgroup         C1      NOp   1
 Largest concise Abelian subgroup C1      NOp   1
                         Standard orientation:                         
 ---------------------------------------------------------------------
 Center     Atomic      Atomic             Coordinates (Angstroms)
 Number     Number       Type             X           Y           Z
 ---------------------------------------------------------------------
      1          8           0       -2.035799    1.420971   -0.138650
      2          6           0       -1.897643    0.086637    0.002028
      3          6           0       -0.503767   -0.428772   -0.005551
      4          6           0       -0.376795   -1.819646   -0.013550
      5          6           0        0.870306   -2.433667   -0.024230
      6          6           0        2.021035   -1.643247   -0.021600
      7          6           0        1.922060   -0.254055   -0.005321
      8          6           0        0.665291    0.363797    0.004971
      9          8           0        0.527472    1.712573    0.035396
     10          6           0        1.712607    2.482214    0.041235
     11          8           0       -2.864571   -0.647572    0.127083
     12          1           0       -2.996349    1.564266   -0.111715
     13          1           0       -1.282718   -2.414020   -0.013598
     14          1           0        0.941076   -3.516264   -0.033999
     15          1           0        3.003027   -2.105544   -0.030131
     16          1           0        2.826158    0.342556    0.001376
     17          1           0        1.374833    3.519052    0.060924
     18          1           0        2.313550    2.316611   -0.861690
     19          1           0        2.325038    2.286004    0.930306
 ---------------------------------------------------------------------
 Rotational constants (GHZ):           1.4111460           1.1576919           0.6395962
 Standard basis: 6-31G(d,p) (6D, 7F)
 There are   205 symmetry adapted cartesian basis functions of A   symmetry.
 There are   205 symmetry adapted basis functions of A   symmetry.
   205 basis functions,   364 primitive gaussians,   205 cartesian basis functions
    40 alpha electrons       40 beta electrons
       nuclear repulsion energy       595.2944008683 Hartrees.
 NAtoms=   19 NActive=   19 NUniq=   19 SFac= 1.00D+00 NAtFMM=   60 NAOKFM=F Big=F
 Integral buffers will be    131072 words long.
 Raffenetti 2 integral format.
 Two-electron integral symmetry is turned on.
 Nuclear repulsion after empirical dispersion term =      595.2606697672 Hartrees.
 One-electron integrals computed using PRISM.
 NBasis=   205 RedAO= T EigKep=  4.03D-04  NBF=   205
 NBsUse=   205 1.00D-06 EigRej= -1.00D+00 NBFU=   205
 Initial guess from the checkpoint file:  "Ac4_conf-1.chk"
 B after Tr=    -0.000000    0.000000   -0.000000
         Rot=    0.999385   -0.000334   -0.000113    0.035078 Ang=  -4.02 deg.
 ExpMin= 1.61D-01 ExpMax= 5.48D+03 ExpMxC= 8.25D+02 IAcc=3 IRadAn=         5 AccDes= 0.00D+00
 Harris functional with IExCor=  402 and IRadAn=       5 diagonalized for initial guess.
 HarFok:  IExCor=  402 AccDes= 0.00D+00 IRadAn=         5 IDoV= 1 UseB2=F ITyADJ=14
 ICtDFT=  3500011 ScaDFX=  1.000000  1.000000  1.000000  1.000000
 FoFCou: FMM=F IPFlag=           0 FMFlag=      100000 FMFlg1=           0
         NFxFlg=           0 DoJE=T BraDBF=F KetDBF=T FulRan=T
         wScrn=  0.000000 ICntrl=       500 IOpCl=  0 I1Cent=   200000004 NGrid=           0
         NMat0=    1 NMatS0=      1 NMatT0=    0 NMatD0=    1 NMtDS0=    0 NMtDT0=    0
 Petite list used in FoFCou.
 Requested convergence on RMS density matrix=1.00D-08 within 128 cycles.
 Requested convergence on MAX density matrix=1.00D-06.
 Requested convergence on             energy=1.00D-06.
 No special actions if energy rises.
 Integral accuracy reduced to 1.0D-05 until final iterations.
 Initial convergence to 1.0D-05 achieved.  Increase integral accuracy.
 SCF Done:  E(RB3LYP) =  -535.386945028     A.U. after   12 cycles
            NFock= 12  Conv=0.56D-08     -V/T= 2.0091
 Calling FoFJK, ICntrl=      2127 FMM=F ISym2X=0 I1Cent= 0 IOpClX= 0 NMat=1 NMatS=1 NMatT=0.
 ***** Axes restored to original set *****
 -------------------------------------------------------------------
 Center     Atomic                   Forces (Hartrees/Bohr)
 Number     Number              X              Y              Z
 -------------------------------------------------------------------
      1        8          -0.000207704    0.000464554    0.000657741
      2        6           0.005235916    0.002243993    0.001831067
      3        6          -0.003603870    0.001783468   -0.001136516
      4        6           0.004711742   -0.003435348    0.001691736
      5        6           0.000799343   -0.000818864    0.000050834
      6        6          -0.000188968    0.002356667    0.001271935
      7        6           0.002976885   -0.001807860    0.001134216
      8        6          -0.002029355   -0.000980751   -0.001902915
      9        8           0.003304514   -0.000171085    0.002792534
     10        6          -0.006156873    0.000004396   -0.004812856
     11        8          -0.003627133   -0.000456660   -0.001158967
     12        1          -0.001027300    0.000811325   -0.000191194
     13        1          -0.001320464    0.000730477   -0.000665306
     14        1          -0.000080969   -0.000473870   -0.000298734
     15        1           0.000155346   -0.000240102   -0.000017222
     16        1           0.000805908    0.001034727    0.001189520
     17        1          -0.000069657   -0.001240951   -0.000811527
     18        1           0.000384257    0.000268183   -0.000095799
     19        1          -0.000061619   -0.000072299    0.000471453
 -------------------------------------------------------------------
 Cartesian Forces:  Max     0.006156873 RMS     0.001994085

 GradGradGradGradGradGradGradGradGradGradGradGradGradGradGradGradGradGrad
 Berny optimization.
 Using GEDIIS/GDIIS optimizer.
 FormGI is forming the generalized inverse of G from B-inverse, IUseBI=4.
 Internal  Forces:  Max     0.012622979 RMS     0.002105933
 Search for a local minimum.
 Step number   2 out of a maximum of   93
 All quantities printed in internal units (Hartrees-Bohrs-Radians)
 Mixed Optimization -- RFO/linear search
 Update second derivatives using D2CorX and points    1    2
 DE= -3.63D-03 DEPred=-4.33D-03 R= 8.38D-01
 TightC=F SS=  1.41D+00  RLast= 1.81D-01 DXNew= 5.0454D-01 5.4275D-01
 Trust test= 8.38D-01 RLast= 1.81D-01 DXMaxT set to 5.05D-01
 ITU=  1  0
 Use linear search instead of GDIIS.
     Eigenvalues ---    0.00583   0.01177   0.01389   0.01529   0.01911
     Eigenvalues ---    0.01945   0.01963   0.02092   0.02099   0.02106
     Eigenvalues ---    0.02208   0.02217   0.02227   0.02356   0.09942
     Eigenvalues ---    0.10707   0.14762   0.16000   0.16000   0.16000
     Eigenvalues ---    0.16000   0.16000   0.16000   0.16340   0.21503
     Eigenvalues ---    0.22568   0.23364   0.24490   0.24999   0.25000
     Eigenvalues ---    0.25000   0.28660   0.32734   0.34691   0.34775
     Eigenvalues ---    0.34826   0.35604   0.35903   0.35941   0.36524
     Eigenvalues ---    0.41313   0.41486   0.43018   0.45023   0.46071
     Eigenvalues ---    0.46183   0.47347   0.52755   0.55123   0.56239
     Eigenvalues ---    0.91693
 RFO step:  Lambda=-9.32833342D-04 EMin= 5.83122965D-03
 Quartic linear search produced a step of -0.13161.
 Iteration  1 RMS(Cart)=  0.03286621 RMS(Int)=  0.00045897
 Iteration  2 RMS(Cart)=  0.00079596 RMS(Int)=  0.00009442
 Iteration  3 RMS(Cart)=  0.00000027 RMS(Int)=  0.00009442
 Variable       Old X    -DE/DX   Delta X   Delta X   Delta X     New X
                                 (Linear)    (Quad)   (Total)
    R1        2.54891   0.00087   0.00025   0.00091   0.00115   2.55006
    R2        1.83597   0.00108  -0.00422   0.00961   0.00538   1.84135
    R3        2.80839   0.00246   0.00688  -0.00630   0.00057   2.80896
    R4        2.30644  -0.00211   0.00163  -0.00501  -0.00339   2.30305
    R5        2.63934   0.00404   0.00244   0.00349   0.00594   2.64528
    R6        2.66912   0.00354   0.00039   0.00684   0.00723   2.67635
    R7        2.62692  -0.00067   0.00027  -0.00197  -0.00170   2.62523
    R8        2.04752  -0.00010  -0.00006  -0.00013  -0.00019   2.04733
    R9        2.63815  -0.00223  -0.00192  -0.00089  -0.00281   2.63534
   R10        2.05026  -0.00023  -0.00104   0.00143   0.00039   2.05065
   R11        2.63203   0.00055  -0.00032   0.00135   0.00104   2.63307
   R12        2.05111   0.00029  -0.00129   0.00315   0.00186   2.05297
   R13        2.64650   0.00325   0.00154   0.00364   0.00518   2.65168
   R14        2.04700  -0.00168  -0.00150  -0.00115  -0.00264   2.04436
   R15        2.56273   0.00345   0.00679  -0.00665   0.00014   2.56287
   R16        2.67042   0.00512   0.00243   0.00594   0.00837   2.67879
   R17        2.06102   0.00014  -0.00019   0.00070   0.00051   2.06153
   R18        2.07339  -0.00034  -0.00152   0.00207   0.00054   2.07394
   R19        2.07355  -0.00035  -0.00155   0.00209   0.00054   2.07410
    A1        1.81758   0.00140  -0.00214   0.01180   0.00966   1.82723
    A2        2.02486  -0.00065   0.00417  -0.01038  -0.00665   2.01822
    A3        2.12308  -0.00322  -0.00431  -0.00282  -0.00757   2.11552
    A4        2.13524   0.00387   0.00011   0.01317   0.01282   2.14806
    A5        2.01603  -0.00043   0.00497  -0.01171  -0.00675   2.00928
    A6        2.19157   0.00107  -0.00497   0.01276   0.00778   2.19934
    A7        2.07556  -0.00063   0.00000  -0.00100  -0.00100   2.07456
    A8        2.11937   0.00163  -0.00036   0.00695   0.00659   2.12596
    A9        2.06040  -0.00250   0.00605  -0.02426  -0.01821   2.04220
   A10        2.10341   0.00087  -0.00569   0.01731   0.01162   2.11503
   A11        2.08217  -0.00098   0.00133  -0.00816  -0.00683   2.07534
   A12        2.09363   0.00102   0.00007   0.00547   0.00554   2.09917
   A13        2.10738  -0.00004  -0.00140   0.00269   0.00129   2.10867
   A14        2.10153   0.00151  -0.00154   0.00714   0.00560   2.10713
   A15        2.09969  -0.00073  -0.00045  -0.00105  -0.00149   2.09820
   A16        2.08197  -0.00077   0.00198  -0.00609  -0.00411   2.07786
   A17        2.09889   0.00140   0.00261   0.00012   0.00274   2.10162
   A18        2.08301  -0.00128  -0.00446   0.00313  -0.00134   2.08167
   A19        2.10129  -0.00013   0.00185  -0.00324  -0.00140   2.09989
   A20        2.08880  -0.00293  -0.00205  -0.00501  -0.00706   2.08174
   A21        2.06478  -0.00291   0.00290  -0.01625  -0.01335   2.05143
   A22        2.12956   0.00584  -0.00085   0.02127   0.02042   2.14998
   A23        2.04490   0.01262   0.00791   0.02835   0.03625   2.08116
   A24        1.83186   0.00260   0.00955  -0.00360   0.00598   1.83783
   A25        1.95383  -0.00062  -0.00088  -0.00241  -0.00328   1.95055
   A26        1.95416  -0.00061  -0.00091  -0.00230  -0.00321   1.95096
   A27        1.90495  -0.00044  -0.00378   0.00660   0.00285   1.90780
   A28        1.90522  -0.00046  -0.00380   0.00652   0.00275   1.90796
   A29        1.91145  -0.00037  -0.00023  -0.00411  -0.00435   1.90710
    D1        3.13986  -0.00046  -0.00077  -0.02805  -0.02860   3.11126
    D2       -0.00123   0.00046   0.00224   0.02378   0.02579   0.02457
    D3       -3.01885   0.00032   0.00275  -0.00262   0.00022  -3.01863
    D4        0.13163   0.00024   0.00326  -0.00845  -0.00510   0.12653
    D5        0.12223  -0.00061  -0.00035  -0.05485  -0.05530   0.06693
    D6       -3.01047  -0.00069   0.00016  -0.06068  -0.06062  -3.07109
    D7        3.13901  -0.00002   0.00013  -0.00105  -0.00089   3.13812
    D8       -0.00008  -0.00008   0.00040  -0.00427  -0.00383  -0.00392
    D9       -0.01085   0.00006  -0.00038   0.00445   0.00408  -0.00677
   D10        3.13324   0.00001  -0.00011   0.00123   0.00114   3.13438
   D11       -3.14049  -0.00002   0.00017  -0.00046  -0.00027  -3.14076
   D12        0.00987  -0.00006   0.00030  -0.00173  -0.00140   0.00847
   D13        0.01028  -0.00010   0.00066  -0.00643  -0.00575   0.00453
   D14       -3.12255  -0.00014   0.00079  -0.00769  -0.00688  -3.12943
   D15        0.00445  -0.00001  -0.00008  -0.00047  -0.00054   0.00391
   D16       -3.13764  -0.00001  -0.00000  -0.00071  -0.00073  -3.13837
   D17       -3.13970   0.00004  -0.00032   0.00277   0.00248  -3.13722
   D18        0.00139   0.00004  -0.00025   0.00252   0.00230   0.00368
   D19        0.00258  -0.00001   0.00022  -0.00158  -0.00137   0.00121
   D20       -3.14126  -0.00000  -0.00004   0.00001  -0.00004  -3.14129
   D21       -3.13850  -0.00002   0.00015  -0.00134  -0.00119  -3.13969
   D22        0.00085  -0.00000  -0.00011   0.00026   0.00015   0.00099
   D23       -0.00299  -0.00001   0.00008  -0.00041  -0.00034  -0.00333
   D24        3.13640   0.00001  -0.00027   0.00196   0.00169   3.13809
   D25        3.14083  -0.00002   0.00035  -0.00200  -0.00166   3.13917
   D26       -0.00298   0.00000  -0.00001   0.00038   0.00037  -0.00261
   D27       -0.00352   0.00006  -0.00053   0.00443   0.00391   0.00039
   D28        3.12897   0.00005  -0.00065   0.00554   0.00492   3.13389
   D29        3.14031   0.00004  -0.00015   0.00202   0.00186  -3.14102
   D30       -0.01039   0.00003  -0.00027   0.00313   0.00287  -0.00752
   D31       -3.13834  -0.00006   0.00007  -0.00243  -0.00235  -3.14070
   D32        0.01223  -0.00006   0.00022  -0.00358  -0.00338   0.00886
   D33        3.13608   0.00001  -0.00001   0.00048   0.00047   3.13655
   D34        1.07186  -0.00070  -0.00085  -0.00400  -0.00482   1.06704
   D35       -1.08240   0.00071   0.00078   0.00493   0.00569  -1.07671
         Item               Value     Threshold  Converged?
 Maximum Force            0.012623     0.000450     NO 
 RMS     Force            0.002106     0.000300     NO 
 Maximum Displacement     0.100858     0.001800     NO 
 RMS     Displacement     0.033089     0.001200     NO 
 Predicted change in Energy=-5.583342D-04
 GradGradGradGradGradGradGradGradGradGradGradGradGradGradGradGradGradGrad

                          Input orientation:                          
 ---------------------------------------------------------------------
 Center     Atomic      Atomic             Coordinates (Angstroms)
 Number     Number       Type             X           Y           Z
 ---------------------------------------------------------------------
      1          8           0       -1.696005    2.268246   -0.547175
      2          6           0       -0.522134    2.254345    0.118257
      3          6           0        0.279250    1.009797   -0.017309
      4          6           0        1.416539    0.943681    0.796143
      5          6           0        2.262425   -0.158241    0.783993
      6          6           0        1.969426   -1.223680   -0.066766
      7          6           0        0.848577   -1.187067   -0.893690
      8          6           0       -0.007951   -0.075678   -0.880474
      9          8           0       -1.108305    0.022881   -1.667127
     10          6           0       -1.430343   -1.043292   -2.544072
     11          8           0       -0.186936    3.187341    0.827090
     12          1           0       -2.094207    3.130108   -0.327892
     13          1           0        1.611297    1.793283    1.439575
     14          1           0        3.135927   -0.184486    1.427323
     15          1           0        2.616289   -2.096092   -0.093242
     16          1           0        0.645497   -2.025249   -1.546808
     17          1           0       -2.343246   -0.731364   -3.053394
     18          1           0       -1.620139   -1.976103   -1.997901
     19          1           0       -0.640061   -1.212731   -3.286631
 ---------------------------------------------------------------------
                    Distance matrix (angstroms):
                    1          2          3          4          5
     1  O    0.000000
     2  C    1.349432   0.000000
     3  C    2.401267   1.486436   0.000000
     4  C    3.639630   2.436354   1.399822   0.000000
     5  C    4.830012   3.744001   2.437085   1.389210   0.000000
     6  C    5.085246   4.282378   2.801350   2.397447   1.394561
     7  C    4.305132   3.840079   2.432774   2.778166   2.423235
     8  C    2.907679   2.586669   1.416261   2.424728   2.816358
     9  O    2.577082   2.917298   2.370910   3.645601   4.171644
    10  C    3.876140   4.334427   3.677284   4.817659   5.049344
    11  O    2.238443   1.218721   2.381603   2.757915   4.146582
    12  H    0.974401   1.854029   3.197730   4.285937   5.570437
    13  H    3.887288   2.551467   2.123843   1.083401   2.159213
    14  H    5.767331   4.587261   3.416706   2.151150   1.085158
    15  H    6.152185   5.368494   3.887681   3.386831   2.156392
    16  H    4.991593   4.738220   3.418335   3.859854   3.395999
    17  H    3.962034   4.721258   4.373436   5.635662   6.022144
    18  H    4.486075   4.855969   4.055370   5.055021   5.110564
    19  H    4.553772   4.860842   4.058723   5.054578   5.109438
                    6          7          8          9         10
     6  C    0.000000
     7  C    1.393358   0.000000
     8  C    2.426942   1.403211   0.000000
     9  O    3.686122   2.427255   1.356214   0.000000
    10  C    4.210466   2.817430   2.393123   1.417556   0.000000
    11  O    4.990589   4.813399   3.687153   4.133261   5.550590
    12  H    5.961273   5.255294   3.864567   3.524262   4.771734
    13  H    3.391074   3.861133   3.390811   4.492455   5.759095
    14  H    2.161701   3.409434   3.901504   5.256627   6.112312
    15  H    1.086386   2.142859   3.404179   4.565057   4.846667
    16  H    2.141454   1.081829   2.161440   2.699098   2.503575
    17  H    5.268915   3.880686   3.256549   2.003921   1.090917
    18  H    4.144925   2.817165   2.731193   2.089814   1.097480
    19  H    4.144524   2.818310   2.735333   2.090163   1.097565
                   11         12         13         14         15
    11  O    0.000000
    12  H    2.230458   0.000000
    13  H    2.356305   4.317615   0.000000
    14  H    4.771887   6.435963   2.497242   0.000000
    15  H    6.051424   7.039673   4.299624   2.497275   0.000000
    16  H    5.787869   5.964013   4.942918   4.293729   2.449876
    17  H    5.921492   4.733006   6.496077   7.099101   5.934809
    18  H    6.057706   5.393243   6.038766   6.128803   4.646444
    19  H    6.040584   5.452425   6.036701   6.126723   4.645629
                   16         17         18         19
    16  H    0.000000
    17  H    3.588388   0.000000
    18  H    2.310629   1.785028   0.000000
    19  H    2.310807   1.785204   1.790004   0.000000
 Stoichiometry    C8H8O3
 Framework group  C1[X(C8H8O3)]
 Deg. of freedom    51
 Full point group                 C1      NOp   1
 Largest Abelian subgroup         C1      NOp   1
 Largest concise Abelian subgroup C1      NOp   1
                         Standard orientation:                         
 ---------------------------------------------------------------------
 Center     Atomic      Atomic             Coordinates (Angstroms)
 Number     Number       Type             X           Y           Z
 ---------------------------------------------------------------------
      1          8           0       -2.039875    1.397780   -0.119090
      2          6           0       -1.892553    0.063660    0.020142
      3          6           0       -0.491810   -0.433559    0.006510
      4          6           0       -0.355761   -1.826715   -0.003798
      5          6           0        0.890316   -2.440632   -0.021175
      6          6           0        2.034591   -1.643496   -0.023724
      7          6           0        1.934276   -0.253846   -0.007670
      8          6           0        0.676186    0.367429    0.007353
      9          8           0        0.513312    1.713600    0.032070
     10          6           0        1.658027    2.549718    0.032657
     11          8           0       -2.859695   -0.674547    0.090634
     12          1           0       -3.003603    1.541583   -0.116737
     13          1           0       -1.268551   -2.410265    0.002802
     14          1           0        0.966790   -3.523040   -0.031887
     15          1           0        3.019762   -2.101190   -0.037473
     16          1           0        2.837427    0.341698   -0.006739
     17          1           0        1.269908    3.569124    0.049204
     18          1           0        2.266127    2.407543   -0.869818
     19          1           0        2.282570    2.384536    0.919962
 ---------------------------------------------------------------------
 Rotational constants (GHZ):           1.3902717           1.1630900           0.6365416
 Standard basis: 6-31G(d,p) (6D, 7F)
 There are   205 symmetry adapted cartesian basis functions of A   symmetry.
 There are   205 symmetry adapted basis functions of A   symmetry.
   205 basis functions,   364 primitive gaussians,   205 cartesian basis functions
    40 alpha electrons       40 beta electrons
       nuclear repulsion energy       594.2868794485 Hartrees.
 NAtoms=   19 NActive=   19 NUniq=   19 SFac= 1.00D+00 NAtFMM=   60 NAOKFM=F Big=F
 Integral buffers will be    131072 words long.
 Raffenetti 2 integral format.
 Two-electron integral symmetry is turned on.
 Nuclear repulsion after empirical dispersion term =      594.2532755165 Hartrees.
 One-electron integrals computed using PRISM.
 NBasis=   205 RedAO= T EigKep=  4.05D-04  NBF=   205
 NBsUse=   205 1.00D-06 EigRej= -1.00D+00 NBFU=   205
 Initial guess from the checkpoint file:  "Ac4_conf-1.chk"
 B after Tr=     0.000000   -0.000000   -0.000000
         Rot=    0.999984    0.000163    0.000073   -0.005717 Ang=   0.66 deg.
 ExpMin= 1.61D-01 ExpMax= 5.48D+03 ExpMxC= 8.25D+02 IAcc=3 IRadAn=         5 AccDes= 0.00D+00
 Harris functional with IExCor=  402 and IRadAn=       5 diagonalized for initial guess.
 HarFok:  IExCor=  402 AccDes= 0.00D+00 IRadAn=         5 IDoV= 1 UseB2=F ITyADJ=14
 ICtDFT=  3500011 ScaDFX=  1.000000  1.000000  1.000000  1.000000
 FoFCou: FMM=F IPFlag=           0 FMFlag=      100000 FMFlg1=           0
         NFxFlg=           0 DoJE=T BraDBF=F KetDBF=T FulRan=T
         wScrn=  0.000000 ICntrl=       500 IOpCl=  0 I1Cent=   200000004 NGrid=           0
         NMat0=    1 NMatS0=      1 NMatT0=    0 NMatD0=    1 NMtDS0=    0 NMtDT0=    0
 Petite list used in FoFCou.
 Requested convergence on RMS density matrix=1.00D-08 within 128 cycles.
 Requested convergence on MAX density matrix=1.00D-06.
 Requested convergence on             energy=1.00D-06.
 No special actions if energy rises.
 Integral accuracy reduced to 1.0D-05 until final iterations.
 Initial convergence to 1.0D-05 achieved.  Increase integral accuracy.
 SCF Done:  E(RB3LYP) =  -535.387233030     A.U. after   11 cycles
            NFock= 11  Conv=0.93D-08     -V/T= 2.0092
 Calling FoFJK, ICntrl=      2127 FMM=F ISym2X=0 I1Cent= 0 IOpClX= 0 NMat=1 NMatS=1 NMatT=0.
 ***** Axes restored to original set *****
 -------------------------------------------------------------------
 Center     Atomic                   Forces (Hartrees/Bohr)
 Number     Number              X              Y              Z
 -------------------------------------------------------------------
      1        8          -0.001373088    0.002760467   -0.001781263
      2        6          -0.002671859   -0.001705247    0.005122585
      3        6           0.000843841    0.000252222   -0.001414911
      4        6           0.001744290   -0.000850614    0.000394556
      5        6           0.000093204   -0.000108140    0.000054644
      6        6           0.000036259    0.000083225    0.000134058
      7        6          -0.000529577    0.000515486    0.000194525
      8        6          -0.001594927    0.000490364   -0.001176426
      9        8           0.001896581   -0.000545103    0.001047797
     10        6          -0.000088007   -0.000565045   -0.000442216
     11        8           0.000860575    0.001679501   -0.001510238
     12        1           0.001148048   -0.001696905   -0.000166964
     13        1          -0.000011691    0.000160698    0.000125383
     14        1          -0.000343855   -0.000258785   -0.000368137
     15        1          -0.000182943    0.000213315   -0.000081477
     16        1          -0.000412775   -0.000113012   -0.000399721
     17        1           0.000365158   -0.000659778   -0.000120610
     18        1           0.000282465    0.000311765   -0.000042272
     19        1          -0.000061699    0.000035585    0.000430687
 -------------------------------------------------------------------
 Cartesian Forces:  Max     0.005122585 RMS     0.001168241

 GradGradGradGradGradGradGradGradGradGradGradGradGradGradGradGradGradGrad
 Berny optimization.
 Using GEDIIS/GDIIS optimizer.
 FormGI is forming the generalized inverse of G from B-inverse, IUseBI=4.
 Internal  Forces:  Max     0.004003015 RMS     0.001046278
 Search for a local minimum.
 Step number   3 out of a maximum of   93
 All quantities printed in internal units (Hartrees-Bohrs-Radians)
 Mixed Optimization -- RFO/linear search
 Update second derivatives using D2CorX and points    1    2    3
 DE= -2.88D-04 DEPred=-5.58D-04 R= 5.16D-01
 TightC=F SS=  1.41D+00  RLast= 1.09D-01 DXNew= 8.4853D-01 3.2755D-01
 Trust test= 5.16D-01 RLast= 1.09D-01 DXMaxT set to 5.05D-01
 ITU=  1  1  0
 Use linear search instead of GDIIS.
     Eigenvalues ---    0.00569   0.01389   0.01511   0.01630   0.01911
     Eigenvalues ---    0.01956   0.01975   0.02092   0.02100   0.02110
     Eigenvalues ---    0.02208   0.02217   0.02227   0.02355   0.09677
     Eigenvalues ---    0.10677   0.13543   0.16000   0.16000   0.16000
     Eigenvalues ---    0.16000   0.16000   0.16111   0.16512   0.20964
     Eigenvalues ---    0.22460   0.23509   0.24496   0.24991   0.25000
     Eigenvalues ---    0.26200   0.31973   0.34197   0.34691   0.34782
     Eigenvalues ---    0.35003   0.35626   0.35918   0.35936   0.36918
     Eigenvalues ---    0.40647   0.42012   0.42288   0.44450   0.46016
     Eigenvalues ---    0.46234   0.47328   0.54971   0.55374   0.57643
     Eigenvalues ---    0.91627
 RFO step:  Lambda=-4.70709364D-04 EMin= 5.68770366D-03
 Quartic linear search produced a step of -0.32294.
 Iteration  1 RMS(Cart)=  0.02132890 RMS(Int)=  0.00073940
 Iteration  2 RMS(Cart)=  0.00087119 RMS(Int)=  0.00045858
 Iteration  3 RMS(Cart)=  0.00000054 RMS(Int)=  0.00045858
 Variable       Old X    -DE/DX   Delta X   Delta X   Delta X     New X
                                 (Linear)    (Quad)   (Total)
    R1        2.55006   0.00117  -0.00037   0.00221   0.00184   2.55190
    R2        1.84135  -0.00201  -0.00174   0.00329   0.00155   1.84290
    R3        2.80896   0.00212  -0.00018   0.00305   0.00286   2.81182
    R4        2.30305   0.00064   0.00109  -0.00278  -0.00169   2.30136
    R5        2.64528   0.00186  -0.00192   0.00702   0.00510   2.65038
    R6        2.67635   0.00117  -0.00233   0.00762   0.00529   2.68163
    R7        2.62523  -0.00001   0.00055  -0.00142  -0.00087   2.62435
    R8        2.04733   0.00020   0.00006   0.00021   0.00027   2.04760
    R9        2.63534  -0.00065   0.00091  -0.00277  -0.00187   2.63347
   R10        2.05065  -0.00049  -0.00013  -0.00027  -0.00040   2.05025
   R11        2.63307  -0.00059  -0.00034   0.00000  -0.00033   2.63273
   R12        2.05297  -0.00028  -0.00060   0.00136   0.00076   2.05373
   R13        2.65168  -0.00107  -0.00167   0.00231   0.00063   2.65232
   R14        2.04436   0.00041   0.00085  -0.00109  -0.00024   2.04412
   R15        2.56287  -0.00255  -0.00004  -0.00491  -0.00496   2.55792
   R16        2.67879   0.00065  -0.00270   0.00724   0.00453   2.68333
   R17        2.06153  -0.00044  -0.00016  -0.00032  -0.00049   2.06105
   R18        2.07394  -0.00033  -0.00018   0.00022   0.00005   2.07398
   R19        2.07410  -0.00034  -0.00018   0.00022   0.00004   2.07414
    A1        1.82723  -0.00081  -0.00312   0.00519   0.00207   1.82931
    A2        2.01822   0.00079   0.00215  -0.00234  -0.00257   2.01564
    A3        2.11552  -0.00090   0.00244  -0.00516  -0.00508   2.11044
    A4        2.14806   0.00025  -0.00414   0.01310   0.00656   2.15463
    A5        2.00928   0.00034   0.00218  -0.00609  -0.00391   2.00536
    A6        2.19934   0.00090  -0.00251   0.00960   0.00709   2.20643
    A7        2.07456  -0.00123   0.00032  -0.00349  -0.00317   2.07139
    A8        2.12596   0.00019  -0.00213   0.00639   0.00427   2.13023
    A9        2.04220  -0.00013   0.00588  -0.01683  -0.01095   2.03124
   A10        2.11503  -0.00006  -0.00375   0.01044   0.00669   2.12172
   A11        2.07534   0.00011   0.00221  -0.00572  -0.00351   2.07183
   A12        2.09917   0.00024  -0.00179   0.00556   0.00377   2.10294
   A13        2.10867  -0.00035  -0.00042   0.00016  -0.00026   2.10841
   A14        2.10713   0.00003  -0.00181   0.00446   0.00265   2.10978
   A15        2.09820   0.00006   0.00048  -0.00059  -0.00010   2.09809
   A16        2.07786  -0.00009   0.00133  -0.00387  -0.00255   2.07531
   A17        2.10162   0.00062  -0.00088   0.00288   0.00200   2.10362
   A18        2.08167   0.00012   0.00043   0.00099   0.00142   2.08309
   A19        2.09989  -0.00074   0.00045  -0.00387  -0.00342   2.09648
   A20        2.08174   0.00029   0.00228  -0.00452  -0.00224   2.07950
   A21        2.05143   0.00367   0.00431  -0.00247   0.00185   2.05328
   A22        2.14998  -0.00396  -0.00659   0.00700   0.00040   2.15039
   A23        2.08116  -0.00400  -0.01171   0.01773   0.00603   2.08718
   A24        1.83783   0.00120  -0.00193   0.00796   0.00603   1.84386
   A25        1.95055  -0.00043   0.00106  -0.00448  -0.00343   1.94712
   A26        1.95096  -0.00044   0.00104  -0.00444  -0.00341   1.94754
   A27        1.90780  -0.00009  -0.00092   0.00341   0.00249   1.91029
   A28        1.90796  -0.00009  -0.00089   0.00335   0.00246   1.91042
   A29        1.90710  -0.00011   0.00141  -0.00496  -0.00356   1.90354
    D1        3.11126   0.00141   0.00924   0.05352   0.06230  -3.10962
    D2        0.02457  -0.00149  -0.00833  -0.05768  -0.06556  -0.04100
    D3       -3.01863  -0.00144  -0.00007  -0.06696  -0.06718  -3.08580
    D4        0.12653  -0.00143   0.00165  -0.07023  -0.06872   0.05781
    D5        0.06693   0.00147   0.01786   0.04589   0.06389   0.13082
    D6       -3.07109   0.00149   0.01958   0.04262   0.06234  -3.00875
    D7        3.13812  -0.00008   0.00029  -0.00310  -0.00282   3.13530
    D8       -0.00392  -0.00001   0.00124  -0.00297  -0.00175  -0.00566
    D9       -0.00677  -0.00009  -0.00132  -0.00005  -0.00137  -0.00815
   D10        3.13438  -0.00002  -0.00037   0.00008  -0.00030   3.13408
   D11       -3.14076   0.00010   0.00009   0.00276   0.00284  -3.13791
[...]
   XY=    -6.2141   YY=    24.8623   ZY=    -0.0002
   XZ=    -0.0016   YZ=     0.0000   ZZ=    21.5026
   Eigenvalues:    21.5026    22.2974    31.8484
     13  H    Isotropic =    22.4922   Anisotropy =     8.8000
   XX=    23.1961   YX=    -4.0274   ZX=     0.0003
   XY=    -3.7983   YY=    25.3932   ZY=    -0.0002
   XZ=     0.0007   YZ=    -0.0005   ZZ=    18.8871
   Eigenvalues:    18.8871    20.2305    28.3588
     14  H    Isotropic =    24.1597   Anisotropy =     5.5109
   XX=    27.8199   YX=     0.2175   ZX=    -0.0001
   XY=     0.2807   YY=    23.3286   ZY=     0.0001
   XZ=    -0.0000   YZ=    -0.0004   ZZ=    21.3305
   Eigenvalues:    21.3305    23.3149    27.8336
     15  H    Isotropic =    23.5468   Anisotropy =     6.6725
   XX=    22.6776   YX=     2.0397   ZX=    -0.0001
   XY=     2.1886   YY=    27.1546   ZY=    -0.0004
   XZ=     0.0001   YZ=    -0.0003   ZZ=    20.8083
   Eigenvalues:    20.8083    21.8371    27.9952
     16  H    Isotropic =    24.3816   Anisotropy =     9.2407
   XX=    24.1652   YX=    -3.3067   ZX=    -0.0000
   XY=    -4.1428   YY=    28.3663   ZY=     0.0002
   XZ=    -0.0003   YZ=    -0.0001   ZZ=    20.6131
   Eigenvalues:    20.6131    21.9895    30.5420
     17  H    Isotropic =    27.7041   Anisotropy =     8.0215
   XX=    27.3291   YX=     2.6429   ZX=     0.0004
   XY=     0.5985   YY=    32.5927   ZY=     0.0012
   XZ=     0.0003   YZ=     0.0019   ZZ=    23.1903
   Eigenvalues:    23.1903    26.8701    33.0517
     18  H    Isotropic =    28.2573   Anisotropy =     8.2623
   XX=    30.1550   YX=     1.2414   ZX=    -3.5153
   XY=     3.1169   YY=    27.3682   ZY=    -1.9228
   XZ=    -3.2722   YZ=    -2.2042   ZZ=    27.2487
   Eigenvalues:    24.8151    26.1913    33.7655
     19  H    Isotropic =    28.2578   Anisotropy =     8.2615
   XX=    30.1543   YX=     1.2398   ZX=     3.5153
   XY=     3.1162   YY=    27.3681   ZY=     1.9231
   XZ=     3.2729   YZ=     2.2045   ZZ=    27.2509
   Eigenvalues:    24.8158    26.1921    33.7654
 End of Minotr F.D. properties file   721 does not exist.
 End of Minotr F.D. properties file   722 does not exist.
 End of Minotr F.D. properties file   788 does not exist.

 **********************************************************************

            Population analysis using the SCF Density.

 **********************************************************************

 Orbital symmetries:
       Occupied  (A) (A) (A) (A) (A) (A) (A) (A) (A) (A) (A) (A)
                 (A) (A) (A) (A) (A) (A) (A) (A) (A) (A) (A) (A)
                 (A) (A) (A) (A) (A) (A) (A) (A) (A) (A) (A) (A)
                 (A) (A) (A) (A)
       Virtual   (A) (A) (A) (A) (A) (A) (A) (A) (A) (A) (A) (A)
                 (A) (A) (A) (A) (A) (A) (A) (A) (A) (A) (A) (A)
                 (A) (A) (A) (A) (A) (A) (A) (A) (A) (A) (A) (A)
                 (A) (A) (A) (A) (A) (A) (A) (A) (A) (A) (A) (A)
                 (A) (A) (A) (A) (A) (A) (A) (A) (A) (A) (A) (A)
                 (A) (A) (A) (A) (A) (A) (A) (A) (A) (A) (A) (A)
                 (A) (A) (A) (A) (A) (A) (A) (A) (A) (A) (A) (A)
                 (A) (A) (A) (A) (A) (A) (A) (A) (A) (A) (A) (A)
                 (A) (A) (A) (A) (A) (A) (A) (A) (A) (A) (A) (A)
                 (A) (A) (A) (A) (A) (A) (A) (A) (A) (A) (A) (A)
                 (A) (A) (A) (A) (A) (A) (A) (A) (A) (A) (A) (A)
                 (A) (A) (A) (A) (A) (A) (A) (A) (A) (A) (A) (A)
                 (A) (A) (A) (A) (A) (A) (A) (A) (A) (A) (A) (A)
                 (A) (A) (A) (A) (A) (A) (A) (A) (A) (A) (A) (A)
                 (A) (A) (A) (A) (A) (A) (A) (A) (A) (A) (A) (A)
                 (A) (A) (A) (A) (A) (A) (A) (A) (A) (A) (A) (A)
                 (A) (A) (A) (A) (A) (A) (A) (A) (A) (A) (A) (A)
                 (A) (A) (A) (A) (A) (A) (A) (A) (A) (A) (A) (A)
                 (A) (A) (A) (A) (A) (A) (A) (A) (A) (A) (A) (A)
                 (A) (A) (A) (A) (A) (A) (A) (A) (A) (A) (A) (A)
                 (A) (A) (A) (A) (A) (A) (A) (A) (A) (A) (A) (A)
                 (A) (A) (A) (A) (A) (A) (A) (A) (A) (A) (A) (A)
                 (A) (A) (A) (A) (A) (A) (A) (A) (A) (A) (A) (A)
                 (A) (A) (A) (A) (A) (A) (A) (A) (A) (A) (A) (A)
                 (A) (A) (A) (A) (A) (A) (A) (A) (A) (A) (A) (A)
                 (A) (A) (A) (A) (A) (A) (A) (A) (A) (A) (A) (A)
                 (A) (A) (A) (A) (A) (A) (A) (A) (A) (A) (A) (A)
                 (A) (A) (A) (A) (A) (A) (A) (A) (A) (A) (A) (A)
                 (A) (A) (A) (A) (A) (A) (A) (A) (A) (A) (A) (A)
                 (A)
 The electronic state is 1-A.
 Alpha  occ. eigenvalues --  -19.66728 -19.66725 -19.61074 -10.67841 -10.62661
 Alpha  occ. eigenvalues --  -10.60018 -10.56317 -10.56114 -10.55507 -10.55303
 Alpha  occ. eigenvalues --  -10.54574  -1.23096  -1.20362  -1.12995  -0.97100
 Alpha  occ. eigenvalues --   -0.87768  -0.85803  -0.80403  -0.75187  -0.68947
 Alpha  occ. eigenvalues --   -0.67709  -0.62709  -0.59079  -0.57663  -0.56258
 Alpha  occ. eigenvalues --   -0.55296  -0.54014  -0.53054  -0.52038  -0.49013
 Alpha  occ. eigenvalues --   -0.47945  -0.45861  -0.44941  -0.42866  -0.40776
 Alpha  occ. eigenvalues --   -0.39935  -0.39115  -0.35863  -0.32152  -0.29077
 Alpha virt. eigenvalues --   -0.02232   0.02477   0.06643   0.07754   0.08655
 Alpha virt. eigenvalues --    0.09035   0.10719   0.11800   0.13166   0.14478
 Alpha virt. eigenvalues --    0.14627   0.15130   0.16725   0.19331   0.20586
 Alpha virt. eigenvalues --    0.21723   0.22264   0.23692   0.23979   0.24295
 Alpha virt. eigenvalues --    0.25282   0.26115   0.26543   0.28255   0.29709
 Alpha virt. eigenvalues --    0.29842   0.31969   0.32960   0.33049   0.33540
 Alpha virt. eigenvalues --    0.35213   0.36529   0.36579   0.38144   0.39423
 Alpha virt. eigenvalues --    0.39941   0.40857   0.41785   0.42313   0.43162
 Alpha virt. eigenvalues --    0.44122   0.44497   0.45510   0.46454   0.48481
 Alpha virt. eigenvalues --    0.48981   0.49830   0.50451   0.50988   0.52131
 Alpha virt. eigenvalues --    0.52577   0.52714   0.53826   0.54280   0.56170
 Alpha virt. eigenvalues --    0.57211   0.58981   0.61363   0.61859   0.62289
 Alpha virt. eigenvalues --    0.64668   0.66747   0.67706   0.68476   0.69560
 Alpha virt. eigenvalues --    0.70527   0.72715   0.74540   0.74629   0.76218
 Alpha virt. eigenvalues --    0.77587   0.77651   0.79175   0.79736   0.82214
 Alpha virt. eigenvalues --    0.84001   0.84821   0.85407   0.87710   0.89361
 Alpha virt. eigenvalues --    0.89681   0.91891   0.93862   0.96176   0.96511
 Alpha virt. eigenvalues --    0.97299   0.99206   1.00380   1.01315   1.01509
 Alpha virt. eigenvalues --    1.02906   1.06795   1.08551   1.11682   1.14009
 Alpha virt. eigenvalues --    1.14105   1.16130   1.19185   1.21187   1.23761
 Alpha virt. eigenvalues --    1.24192   1.26610   1.26943   1.27882   1.29661
 Alpha virt. eigenvalues --    1.32287   1.34548   1.36151   1.39204   1.39372
 Alpha virt. eigenvalues --    1.43081   1.44591   1.45869   1.48362   1.50044
 Alpha virt. eigenvalues --    1.52240   1.52351   1.53349   1.54590   1.55762
 Alpha virt. eigenvalues --    1.56234   1.57004   1.58408   1.59307   1.60503
 Alpha virt. eigenvalues --    1.62915   1.64429   1.68246   1.68933   1.71772
 Alpha virt. eigenvalues --    1.72758   1.73136   1.73904   1.75157   1.76359
 Alpha virt. eigenvalues --    1.80184   1.83220   1.85242   1.86385   1.87999
 Alpha virt. eigenvalues --    1.89364   1.90410   1.93543   1.95292   1.96327
 Alpha virt. eigenvalues --    1.98804   1.99640   1.99975   2.02989   2.04142
 Alpha virt. eigenvalues --    2.06965   2.07890   2.09628   2.10840   2.11576
 Alpha virt. eigenvalues --    2.13833   2.16537   2.17103   2.21198   2.21477
 Alpha virt. eigenvalues --    2.22177   2.25410   2.27038   2.27201   2.30302
 Alpha virt. eigenvalues --    2.33725   2.35628   2.35761   2.37322   2.39228
 Alpha virt. eigenvalues --    2.41267   2.43008   2.46002   2.49371   2.50921
 Alpha virt. eigenvalues --    2.52187   2.52527   2.56796   2.57489   2.58091
 Alpha virt. eigenvalues --    2.60233   2.63752   2.64207   2.64560   2.66006
 Alpha virt. eigenvalues --    2.66212   2.68793   2.71011   2.72064   2.73055
 Alpha virt. eigenvalues --    2.74134   2.77075   2.77842   2.78531   2.82245
 Alpha virt. eigenvalues --    2.82922   2.84404   2.84532   2.84725   2.85258
 Alpha virt. eigenvalues --    2.88335   2.89367   2.89726   2.91318   2.92196
 Alpha virt. eigenvalues --    2.93790   2.95964   2.97834   2.99613   3.00668
 Alpha virt. eigenvalues --    3.03717   3.03899   3.06029   3.06578   3.06913
 Alpha virt. eigenvalues --    3.11894   3.13599   3.14637   3.15952   3.16051
 Alpha virt. eigenvalues --    3.18417   3.19072   3.20664   3.21632   3.22379
 Alpha virt. eigenvalues --    3.22441   3.25086   3.27932   3.29522   3.30193
 Alpha virt. eigenvalues --    3.31301   3.32434   3.32667   3.32856   3.34290
 Alpha virt. eigenvalues --    3.35920   3.36931   3.38341   3.38845   3.40381
 Alpha virt. eigenvalues --    3.42137   3.44331   3.44485   3.46227   3.48896
 Alpha virt. eigenvalues --    3.50339   3.50640   3.52140   3.52175   3.55986
 Alpha virt. eigenvalues --    3.57277   3.58862   3.61587   3.63715   3.63802
 Alpha virt. eigenvalues --    3.65919   3.73586   3.74636   3.79966   3.81371
 Alpha virt. eigenvalues --    3.85687   3.86524   3.88963   3.90792   3.92759
 Alpha virt. eigenvalues --    3.98169   4.06895   4.08884   4.11490   4.11832
 Alpha virt. eigenvalues --    4.12991   4.13864   4.16161   4.16178   4.18387
 Alpha virt. eigenvalues --    4.21801   4.21966   4.22800   4.26538   4.30400
 Alpha virt. eigenvalues --    4.37353   4.39251   4.43137   4.45654   4.51375
 Alpha virt. eigenvalues --    4.54144   4.56920   4.57897   4.58464   4.62219
 Alpha virt. eigenvalues --    4.74217   4.77037   4.82334   4.86246   4.91043
 Alpha virt. eigenvalues --    5.05891   5.10188   5.12199   5.17336   5.23008
 Alpha virt. eigenvalues --    5.25264   5.25929   5.28145   5.34646   5.35636
 Alpha virt. eigenvalues --    5.38790   5.46930   5.48993   5.52069   5.59128
 Alpha virt. eigenvalues --    5.66344   5.73586   5.79265   5.85578   5.90569
 Alpha virt. eigenvalues --    5.95379   6.01574   6.12255   6.24780   6.32545
 Alpha virt. eigenvalues --    6.32782   6.36474   6.45037   6.47555   6.54875
 Alpha virt. eigenvalues --    6.63132   6.70142   6.74375   6.81183   6.81624
 Alpha virt. eigenvalues --    6.84043   6.84478   6.94618   7.08423   7.14570
 Alpha virt. eigenvalues --    7.19272   7.35657   7.39407  22.27323  22.48168
 Alpha virt. eigenvalues --   22.70112  22.75268  22.92455  22.97687  23.29897
 Alpha virt. eigenvalues --   23.56990  44.00378  44.04108  44.40308
          Condensed to atoms (all electrons):
               1          2          3          4          5          6
     1  O    7.917694   0.412236  -0.132270   0.006912  -0.000066   0.000037
     2  C    0.412236   4.510395   0.235009  -0.074249   0.011279  -0.001889
     3  C   -0.132270   0.235009   5.501258   0.432845  -0.047443  -0.054711
     4  C    0.006912  -0.074249   0.432845   4.984324   0.495761  -0.010058
     5  C   -0.000066   0.011279  -0.047443   0.495761   4.941568   0.487771
     6  C    0.000037  -0.001889  -0.054711  -0.010058   0.487771   4.943071
     7  C   -0.000036   0.003886  -0.032492  -0.084738  -0.025426   0.421857
     8  C    0.004453  -0.067815   0.430485  -0.033428  -0.047569  -0.011446
     9  O   -0.018639   0.002788  -0.131688   0.003748  -0.000431   0.005465
    10  C    0.001704   0.000631   0.005665  -0.002405   0.001454  -0.003917
    11  O   -0.090416   0.678829  -0.161549   0.028191   0.001407   0.000636
    12  H    0.288483  -0.035748   0.028424  -0.001308   0.000024  -0.000015
    13  H    0.000985  -0.022120  -0.023679   0.410762  -0.041526   0.006377
    14  H    0.000002  -0.000543   0.005403  -0.034640   0.414579  -0.037258
    15  H   -0.000001   0.000113   0.001749   0.001199  -0.025112   0.394896
    16  H   -0.000011  -0.000010  -0.000515   0.002252  -0.000463  -0.007351
    17  H    0.000201  -0.000193   0.000966   0.000137  -0.000049   0.000249
    18  H   -0.000082   0.000019  -0.001644  -0.000184   0.000045  -0.000484
    19  H   -0.000082   0.000020  -0.001637  -0.000185   0.000044  -0.000486
               7          8          9         10         11         12
     1  O   -0.000036   0.004453  -0.018639   0.001704  -0.090416   0.288483
     2  C    0.003886  -0.067815   0.002788   0.000631   0.678829  -0.035748
     3  C   -0.032492   0.430485  -0.131688   0.005665  -0.161549   0.028424
     4  C   -0.084738  -0.033428   0.003748  -0.002405   0.028191  -0.001308
     5  C   -0.025426  -0.047569  -0.000431   0.001454   0.001407   0.000024
     6  C    0.421857  -0.011446   0.005465  -0.003917   0.000636  -0.000015
     7  C    5.190725   0.451687  -0.080036   0.007048  -0.001199   0.000170
     8  C    0.451687   4.720809   0.418046  -0.089350   0.000738  -0.000949
     9  O   -0.080036   0.418046   7.928183   0.232781  -0.000074   0.000803
    10  C    0.007048  -0.089350   0.232781   4.926029   0.000018  -0.000035
    11  O   -0.001199   0.000738  -0.000074   0.000018   7.881849   0.006450
    12  H    0.000170  -0.000949   0.000803  -0.000035   0.006450   0.382023
    13  H   -0.002780   0.012497  -0.000017   0.000018   0.017364  -0.000075
    14  H    0.006645   0.000181   0.000014   0.000001  -0.000121  -0.000001
    15  H   -0.019825   0.000014  -0.000134  -0.000067   0.000001   0.000000
    16  H    0.399908  -0.032277  -0.004102   0.003666   0.000002  -0.000000
    17  H   -0.001405   0.007445  -0.033912   0.403363   0.000001  -0.000013
    18  H    0.006573  -0.013065  -0.036849   0.416559  -0.000001   0.000003
    19  H    0.006560  -0.013041  -0.036861   0.416557  -0.000001   0.000003
              13         14         15         16         17         18
     1  O    0.000985   0.000002  -0.000001  -0.000011   0.000201  -0.000082
     2  C   -0.022120  -0.000543   0.000113  -0.000010  -0.000193   0.000019
     3  C   -0.023679   0.005403   0.001749  -0.000515   0.000966  -0.001644
     4  C    0.410762  -0.034640   0.001199   0.002252   0.000137  -0.000184
     5  C   -0.041526   0.414579  -0.025112  -0.000463  -0.000049   0.000045
     6  C    0.006377  -0.037258   0.394896  -0.007351   0.000249  -0.000484
     7  C   -0.002780   0.006645  -0.019825   0.399908  -0.001405   0.006573
     8  C    0.012497   0.000181   0.000014  -0.032277   0.007445  -0.013065
     9  O   -0.000017   0.000014  -0.000134  -0.004102  -0.033912  -0.036849
    10  C    0.000018   0.000001  -0.000067   0.003666   0.403363   0.416559
    11  O    0.017364  -0.000121   0.000001   0.000002   0.000001  -0.000001
    12  H   -0.000075  -0.000001   0.000000  -0.000000  -0.000013   0.000003
    13  H    0.465842  -0.002819  -0.000199   0.000042  -0.000000  -0.000000
    14  H   -0.002819   0.504939  -0.003235  -0.000262  -0.000000   0.000001
    15  H   -0.000199  -0.003235   0.503074  -0.002293   0.000001  -0.000006
    16  H    0.000042  -0.000262  -0.002293   0.485583   0.000173  -0.003597
    17  H   -0.000000  -0.000000   0.000001   0.000173   0.502827  -0.019305
    18  H   -0.000000   0.000001  -0.000006  -0.003597  -0.019305   0.557006
    19  H   -0.000000   0.000001  -0.000006  -0.003599  -0.019297  -0.058596
              19
     1  O   -0.000082
     2  C    0.000020
     3  C   -0.001637
     4  C   -0.000185
     5  C    0.000044
     6  C   -0.000486
     7  C    0.006560
     8  C   -0.013041
     9  O   -0.036861
    10  C    0.416557
    11  O   -0.000001
    12  H    0.000003
    13  H   -0.000000
    14  H    0.000001
    15  H   -0.000006
    16  H   -0.003599
    17  H   -0.019297
    18  H   -0.058596
    19  H    0.556996
 Mulliken charges:
               1
     1  O   -0.391106
     2  C    0.347363
     3  C   -0.054176
     4  C   -0.124938
     5  C   -0.165846
     6  C   -0.132743
     7  C   -0.247121
     8  C    0.262584
     9  O   -0.249083
    10  C   -0.319721
    11  O   -0.362125
    12  H    0.331762
    13  H    0.179327
    14  H    0.147112
    15  H    0.149831
    16  H    0.162853
    17  H    0.158812
    18  H    0.153606
    19  H    0.153609
 Sum of Mulliken charges =  -0.00000
 Mulliken charges with hydrogens summed into heavy atoms:
               1
     1  O   -0.059344
     2  C    0.347363
     3  C   -0.054176
     4  C    0.054389
     5  C   -0.018734
     6  C    0.017088
     7  C   -0.084268
     8  C    0.262584
     9  O   -0.249083
    10  C    0.146306
    11  O   -0.362125
 Electronic spatial extent (au):  <R**2>=           1722.1303
 Charge=             -0.0000 electrons
 Dipole moment (field-independent basis, Debye):
    X=              3.3108    Y=              1.4605    Z=              0.0005  Tot=              3.6186
 Quadrupole moment (field-independent basis, Debye-Ang):
   XX=            -60.0091   YY=            -55.6433   ZZ=            -66.3569
   XY=             -3.1193   XZ=             -0.0013   YZ=             -0.0002
 Traceless Quadrupole moment (field-independent basis, Debye-Ang):
   XX=              0.6607   YY=              5.0265   ZZ=             -5.6871
   XY=             -3.1193   XZ=             -0.0013   YZ=             -0.0002
 Octapole moment (field-independent basis, Debye-Ang**2):
  XXX=              9.5327  YYY=             14.8697  ZZZ=             -0.0008  XYY=              4.9520
  XXY=             32.9476  XXZ=              0.0037  XZZ=             -8.6295  YZZ=              9.6539
  YYZ=              0.0030  XYZ=              0.0007
 Hexadecapole moment (field-independent basis, Debye-Ang**3):
 XXXX=          -1114.6069 YYYY=           -904.4037 ZZZZ=            -76.5687 XXXY=            -95.8705
 XXXZ=             -0.0199 YYYX=              5.9112 YYYZ=              0.0003 ZZZX=             -0.0003
 ZZZY=              0.0009 XXYY=           -307.6301 XXZZ=           -208.6802 YYZZ=           -195.2205
 XXYZ=             -0.0016 YYXZ=             -0.0001 ZZXY=              6.0372
 N-N= 5.940720530211D+02 E-N=-2.439212784336D+03  KE= 5.326559058078D+02
 Unable to Open any file for archive entry.
 1\1\GINC-NOTCH141\SP\RM062X\def2TZVP\C8H8O3\U6032257\05-Feb-2022\0\\# 
 M062X/def2tzvp int=(grid=ultrafine) nmr=giao guess=read geom=check\\Ac
 4.xyz\\0,1\O,0,-1.6447945222,2.3291007269,-0.6238344101\C,0,-0.5401641
 47,2.249527876,0.1502468624\C,0,0.2673186441,1.0087326894,-0.003429040
 8\C,0,1.4112366098,0.9368087925,0.8041744015\C,0,2.2640229814,-0.15864
 99032,0.7725857037\C,0,1.971219828,-1.2155845338,-0.0881189685\C,0,0.8
 433799958,-1.1763910761,-0.9036222097\C,0,-0.0208099561,-0.0712046068,
 -0.874651071\O,0,-1.1284672076,0.0107312969,-1.6491191809\C,0,-1.42990
 45836,-1.0628991109,-2.5268400632\O,0,-0.2433707547,3.1484238348,0.918
 1426445\H,0,-2.0393788319,3.1878635772,-0.3951614905\H,0,1.6027338976,
 1.7789637087,1.4589076567\H,0,3.1423622207,-0.1887543291,1.4079182896\
 H,0,2.6228940403,-2.0832568642,-0.1308094662\H,0,0.6384097021,-2.00954
 64307,-1.5627887666\H,0,-2.3495423283,-0.7755886755,-3.0368205254\H,0,
 -1.5955867578,-1.9984734419,-1.9788885744\H,0,-0.6356588306,-1.2141035
 303,-3.2679917911\\Version=ES64L-G16RevC.01\State=1-A\HF=-535.3379264\
 RMSD=2.293e-09\Dipole=-0.0825039,-1.186076,-0.7831026\Quadrupole=2.231
 7467,-0.5295527,-1.702194,-2.6727586,3.1828687,0.2590386\PG=C01 [X(C8H
 8O3)]\\@
 The archive entry for this job was punched.


 THERE IS NO SUBJECT, HOWEVER COMPLEX,
 WHICH, IF STUDIED WITH PATIENCE AND INTELLIGIENCE
 WILL NOT BECOME
 MORE COMPLEX
                        QUOTED BY D. GORDON ROHMAN
 Job cpu time:       0 days  0 hours 23 minutes 12.3 seconds.
 Elapsed time:       0 days  0 hours  0 minutes 39.4 seconds.
 File lengths (MBytes):  RWF=     89 Int=      0 D2E=      0 Chk=     15 Scr=      1
 Normal termination of Gaussian 16 at Sat Feb  5 09:20:47 2022.
