 Entering Gaussian System, Link 0=/uufs/chpc.utah.edu/sys/installdir/gaussian16/C01/AVX2/g16/g16
 Input=Ac4_conf-4.com
 Output=Ac4_conf-4.log
 Initial command:
 /uufs/chpc.utah.edu/sys/installdir/gaussian16/C01/AVX2/g16/l1.exe "/scratch/general/lustre/u6032257/3867929/notchpeak.peaks/Gau-184324.inp" -scrdir="/scratch/general/lustre/u6032257/3867929/notchpeak.peaks/"
 Entering Link 1 = /uufs/chpc.utah.edu/sys/installdir/gaussian16/C01/AVX2/g16/l1.exe PID=    184326.
  
 Copyright (c) 1988-2019, Gaussian, Inc.  All Rights Reserved.
  
 This is part of the Gaussian(R) 16 program.  It is based on
 the Gaussian(R) 09 system (copyright 2009, Gaussian, Inc.),
 the Gaussian(R) 03 system (copyright 2003, Gaussian, Inc.),
 the Gaussian(R) 98 system (copyright 1998, Gaussian, Inc.),
 the Gaussian(R) 94 system (copyright 1995, Gaussian, Inc.),
 the Gaussian 92(TM) system (copyright 1992, Gaussian, Inc.),
 the Gaussian 90(TM) system (copyright 1990, Gaussian, Inc.),
 the Gaussian 88(TM) system (copyright 1988, Gaussian, Inc.),
 the Gaussian 86(TM) system (copyright 1986, Carnegie Mellon
 University), and the Gaussian 82(TM) system (copyright 1983,
 Carnegie Mellon University). Gaussian is a federally registered
 trademark of Gaussian, Inc.
  
 This software contains proprietary and confidential information,
 including trade secrets, belonging to Gaussian, Inc.
  
 This software is provided under written license and may be
 used, copied, transmitted, or stored only in accord with that
 written license.
  
 The following legend is applicable only to US Government
 contracts under FAR:
  
                    RESTRICTED RIGHTS LEGEND
  
 Use, reproduction and disclosure by the US Government is
 subject to restrictions as set forth in subparagraphs (a)
 and (c) of the Commercial Computer Software - Restricted
 Rights clause in FAR 52.227-19.
  
 Gaussian, Inc.
 340 Quinnipiac St., Bldg. 40, Wallingford CT 06492
  
  
 ---------------------------------------------------------------
 Warning -- This program may not be used in any manner that
 competes with the business of Gaussian, Inc. or will provide
 assistance to any competitor of Gaussian, Inc.  The licensee
 of this program is prohibited from giving any competitor of
 Gaussian, Inc. access to this program.  By using this program,
 the user acknowledges that Gaussian, Inc. is engaged in the
 business of creating and licensing software in the field of
 computational chemistry and represents and warrants to the
 licensee that it is not a competitor of Gaussian, Inc. and that
 it will not use this program in any manner prohibited above.
 ---------------------------------------------------------------
  

 Cite this work as:
 Gaussian 16, Revision C.01,
 M. J. Frisch, G. W. Trucks, H. B. Schlegel, G. E. Scuseria, 
 M. A. Robb, J. R. Cheeseman, G. Scalmani, V. Barone, 
 G. A. Petersson, H. Nakatsuji, X. Li, M. Caricato, A. V. Marenich, 
 J. Bloino, B. G. Janesko, R. Gomperts, B. Mennucci, H. P. Hratchian, 
 J. V. Ortiz, A. F. Izmaylov, J. L. Sonnenberg, D. Williams-Young, 
 F. Ding, F. Lipparini, F. Egidi, J. Goings, B. Peng, A. Petrone, 
 T. Henderson, D. Ranasinghe, V. G. Zakrzewski, J. Gao, N. Rega, 
 G. Zheng, W. Liang, M. Hada, M. Ehara, K. Toyota, R. Fukuda, 
 J. Hasegawa, M. Ishida, T. Nakajima, Y. Honda, O. Kitao, H. Nakai, 
 T. Vreven, K. Throssell, J. A. Montgomery, Jr., J. E. Peralta, 
 F. Ogliaro, M. J. Bearpark, J. J. Heyd, E. N. Brothers, K. N. Kudin, 
 V. N. Staroverov, T. A. Keith, R. Kobayashi, J. Normand, 
 K. Raghavachari, A. P. Rendell, J. C. Burant, S. S. Iyengar, 
 J. Tomasi, M. Cossi, J. M. Millam, M. Klene, C. Adamo, R. Cammi, 
 J. W. Ochterski, R. L. Martin, K. Morokuma, O. Farkas, 
 J. B. Foresman, and D. J. Fox, Gaussian, Inc., Wallingford CT, 2019.
 
 ******************************************
 Gaussian 16:  ES64L-G16RevC.01  3-Jul-2019
                 5-Feb-2022 
 ******************************************
 %NProcShared=40
 Will use up to   40 processors via shared memory.
 %mem=16GB
 %chk=Ac4_conf-4.chk
 ----------------------------------------------------------------------
 # B3LYP/6-31G(d,p) empiricaldispersion=GD3BJ int=(grid=ultrafine) opt 
 freq=noraman
 ----------------------------------------------------------------------
 1/18=20,19=15,26=4,38=1/1,3;
 2/9=110,12=2,17=6,18=5,40=1/2;
 3/5=1,6=6,7=101,11=2,25=1,30=1,71=1,74=-5,75=-5,124=41/1,2,3;
 4//1;
 5/5=2,38=5/2;
 6/7=2,8=2,9=2,10=2,28=1/1;
 7//1,2,3,16;
 1/18=20,19=15,26=4/3(2);
 2/9=110/2;
 99//99;
 2/9=110/2;
 3/5=1,6=6,7=101,11=2,25=1,30=1,71=1,74=-5,75=-5,124=41/1,2,3;
 4/5=5,16=3,69=1/1;
 5/5=2,38=5/2;
 7//1,2,3,16;
 1/18=20,19=15,26=4/3(-5);
 2/9=110/2;
 6/7=2,8=2,9=2,10=2,19=2,28=1/1;
 99/9=1/99;
 -------
 Ac4.xyz
 -------
 Symbolic Z-matrix:
 Charge =  0 Multiplicity = 1
 O                    -1.5474    2.3333   -0.8759 
 C                    -0.6417    2.1514    0.1083 
 C                     0.2815    0.9609   -0.007 
 C                     1.3194    0.8286    0.9328 
 C                     2.2318   -0.2221    0.8556 
 C                     2.1281   -1.1606   -0.1659 
 C                     1.1005   -1.0514   -1.0982 
 C                     0.1677   -0.0165   -1.0193 
 O                    -0.8183   -0.0115   -1.9717 
 C                    -2.0174   -0.6594   -1.5653 
 O                    -0.5801    2.9461    1.0403 
 H                    -1.9807    3.1466   -0.6242 
 H                     1.4386    1.5523    1.7299 
 H                     3.0268   -0.301     1.5836 
 H                     2.8399   -1.9701   -0.2359 
 H                     1.014    -1.7778   -1.8918 
 H                    -2.769    -0.5512   -2.347 
 H                    -2.4291   -0.2337   -0.6488 
 H                    -1.8545   -1.7266   -1.4061 
 

 GradGradGradGradGradGradGradGradGradGradGradGradGradGradGradGradGradGrad
 Berny optimization.
 Initialization pass.
                           ----------------------------
                           !    Initial Parameters    !
                           ! (Angstroms and Degrees)  !
 --------------------------                            --------------------------
 ! Name  Definition              Value          Derivative Info.                !
 --------------------------------------------------------------------------------
 ! R1    R(1,2)                  1.3498         estimate D2E/DX2                !
 ! R2    R(1,12)                 0.9553         estimate D2E/DX2                !
 ! R3    R(2,3)                  1.5109         estimate D2E/DX2                !
 ! R4    R(2,11)                 1.2264         estimate D2E/DX2                !
 ! R5    R(3,4)                  1.4064         estimate D2E/DX2                !
 ! R6    R(3,8)                  1.4117         estimate D2E/DX2                !
 ! R7    R(4,5)                  1.3937         estimate D2E/DX2                !
 ! R8    R(4,13)                 1.0832         estimate D2E/DX2                !
 ! R9    R(5,6)                  1.391          estimate D2E/DX2                !
 ! R10   R(5,14)                 1.0808         estimate D2E/DX2                !
 ! R11   R(6,7)                  1.3918         estimate D2E/DX2                !
 ! R12   R(6,15)                 1.0802         estimate D2E/DX2                !
 ! R13   R(7,8)                  1.3955         estimate D2E/DX2                !
 ! R14   R(7,16)                 1.0793         estimate D2E/DX2                !
 ! R15   R(8,9)                  1.3709         estimate D2E/DX2                !
 ! R16   R(9,10)                 1.4222         estimate D2E/DX2                !
 ! R17   R(10,17)                1.0898         estimate D2E/DX2                !
 ! R18   R(10,18)                1.0912         estimate D2E/DX2                !
 ! R19   R(10,19)                1.0912         estimate D2E/DX2                !
 ! A1    A(2,1,12)             103.1182         estimate D2E/DX2                !
 ! A2    A(1,2,3)              117.4205         estimate D2E/DX2                !
 ! A3    A(1,2,11)             120.0328         estimate D2E/DX2                !
 ! A4    A(3,2,11)             122.5403         estimate D2E/DX2                !
 ! A5    A(2,3,4)              118.2974         estimate D2E/DX2                !
 ! A6    A(2,3,8)              123.4342         estimate D2E/DX2                !
 ! A7    A(4,3,8)              118.2631         estimate D2E/DX2                !
 ! A8    A(3,4,5)              121.1333         estimate D2E/DX2                !
 ! A9    A(3,4,13)             120.6703         estimate D2E/DX2                !
 ! A10   A(5,4,13)             118.1906         estimate D2E/DX2                !
 ! A11   A(4,5,6)              120.0333         estimate D2E/DX2                !
 ! A12   A(4,5,14)             119.9502         estimate D2E/DX2                !
 ! A13   A(6,5,14)             120.0129         estimate D2E/DX2                !
 ! A14   A(5,6,7)              119.6046         estimate D2E/DX2                !
 ! A15   A(5,6,15)             120.2689         estimate D2E/DX2                !
 ! A16   A(7,6,15)             120.1265         estimate D2E/DX2                !
 ! A17   A(6,7,8)              120.9204         estimate D2E/DX2                !
 ! A18   A(6,7,16)             119.9271         estimate D2E/DX2                !
 ! A19   A(8,7,16)             119.1511         estimate D2E/DX2                !
 ! A20   A(3,8,7)              120.0068         estimate D2E/DX2                !
 ! A21   A(3,8,9)              123.6159         estimate D2E/DX2                !
 ! A22   A(7,8,9)              116.3724         estimate D2E/DX2                !
 ! A23   A(8,9,10)             113.9678         estimate D2E/DX2                !
 ! A24   A(9,10,17)            109.346          estimate D2E/DX2                !
 ! A25   A(9,10,18)            112.3572         estimate D2E/DX2                !
 ! A26   A(9,10,19)            111.1826         estimate D2E/DX2                !
 ! A27   A(17,10,18)           107.6689         estimate D2E/DX2                !
 ! A28   A(17,10,19)           107.7399         estimate D2E/DX2                !
 ! A29   A(18,10,19)           108.3802         estimate D2E/DX2                !
 ! D1    D(12,1,2,3)          -177.3456         estimate D2E/DX2                !
 ! D2    D(12,1,2,11)            1.7563         estimate D2E/DX2                !
 ! D3    D(1,2,3,4)            173.6401         estimate D2E/DX2                !
 ! D4    D(1,2,3,8)             -5.4986         estimate D2E/DX2                !
 ! D5    D(11,2,3,4)            -5.4376         estimate D2E/DX2                !
 ! D6    D(11,2,3,8)           175.4237         estimate D2E/DX2                !
 ! D7    D(2,3,4,5)           -177.8599         estimate D2E/DX2                !
 ! D8    D(2,3,4,13)             1.2448         estimate D2E/DX2                !
 ! D9    D(8,3,4,5)              1.324          estimate D2E/DX2                !
 ! D10   D(8,3,4,13)          -179.5713         estimate D2E/DX2                !
 ! D11   D(2,3,8,7)            176.7975         estimate D2E/DX2                !
 ! D12   D(2,3,8,9)             -2.3691         estimate D2E/DX2                !
 ! D13   D(4,3,8,7)             -2.3414         estimate D2E/DX2                !
 ! D14   D(4,3,8,9)            178.492          estimate D2E/DX2                !
 ! D15   D(3,4,5,6)              0.2061         estimate D2E/DX2                !
 ! D16   D(3,4,5,14)           179.5208         estimate D2E/DX2                !
 ! D17   D(13,4,5,6)          -178.9202         estimate D2E/DX2                !
 ! D18   D(13,4,5,14)            0.3945         estimate D2E/DX2                !
 ! D19   D(4,5,6,7)             -0.731          estimate D2E/DX2                !
 ! D20   D(4,5,6,15)           179.3042         estimate D2E/DX2                !
 ! D21   D(14,5,6,7)           179.9547         estimate D2E/DX2                !
 ! D22   D(14,5,6,15)           -0.0101         estimate D2E/DX2                !
 ! D23   D(5,6,7,8)             -0.3107         estimate D2E/DX2                !
 ! D24   D(5,6,7,16)          -179.8812         estimate D2E/DX2                !
 ! D25   D(15,6,7,8)           179.6541         estimate D2E/DX2                !
 ! D26   D(15,6,7,16)            0.0837         estimate D2E/DX2                !
 ! D27   D(6,7,8,3)              1.8734         estimate D2E/DX2                !
 ! D28   D(6,7,8,9)           -178.9012         estimate D2E/DX2                !
 ! D29   D(16,7,8,3)          -178.5529         estimate D2E/DX2                !
 ! D30   D(16,7,8,9)             0.6725         estimate D2E/DX2                !
 ! D31   D(3,8,9,10)           -86.5015         estimate D2E/DX2                !
 ! D32   D(7,8,9,10)            94.304          estimate D2E/DX2                !
 ! D33   D(8,9,10,17)          176.0838         estimate D2E/DX2                !
 ! D34   D(8,9,10,18)           56.5965         estimate D2E/DX2                !
 ! D35   D(8,9,10,19)          -65.0747         estimate D2E/DX2                !
 --------------------------------------------------------------------------------
 Trust Radius=3.00D-01 FncErr=1.00D-07 GrdErr=1.00D-06 EigMax=2.50D+02 EigMin=1.00D-04
 Number of steps in this run=     93 maximum allowed number of steps=    114.
 GradGradGradGradGradGradGradGradGradGradGradGradGradGradGradGradGradGrad

                          Input orientation:                          
 ---------------------------------------------------------------------
 Center     Atomic      Atomic             Coordinates (Angstroms)
 Number     Number       Type             X           Y           Z
 ---------------------------------------------------------------------
      1          8           0       -1.547400    2.333300   -0.875900
      2          6           0       -0.641700    2.151400    0.108300
      3          6           0        0.281500    0.960900   -0.007000
      4          6           0        1.319400    0.828600    0.932800
      5          6           0        2.231800   -0.222100    0.855600
      6          6           0        2.128100   -1.160600   -0.165900
      7          6           0        1.100500   -1.051400   -1.098200
      8          6           0        0.167700   -0.016500   -1.019300
      9          8           0       -0.818300   -0.011500   -1.971700
     10          6           0       -2.017400   -0.659400   -1.565300
     11          8           0       -0.580100    2.946100    1.040300
     12          1           0       -1.980700    3.146600   -0.624200
     13          1           0        1.438600    1.552300    1.729900
     14          1           0        3.026800   -0.301000    1.583600
     15          1           0        2.839900   -1.970100   -0.235900
     16          1           0        1.014000   -1.777800   -1.891800
     17          1           0       -2.769000   -0.551200   -2.347000
     18          1           0       -2.429100   -0.233700   -0.648800
     19          1           0       -1.854500   -1.726600   -1.406100
 ---------------------------------------------------------------------
                    Distance matrix (angstroms):
                    1          2          3          4          5
     1  O    0.000000
     2  C    1.349826   0.000000
     3  C    2.446088   1.510921   0.000000
     4  C    3.708647   2.505097   1.406401   0.000000
     5  C    4.879602   3.801179   2.438696   1.393702   0.000000
     6  C    5.120619   4.326236   2.817081   2.412064   1.391042
     7  C    4.303137   3.840421   2.431220   2.776199   2.405185
     8  C    2.912678   2.574180   1.411741   2.418946   2.796074
     9  O    2.688950   3.005948   2.452584   3.702924   4.164263
    10  C    3.106835   3.548814   3.215371   4.425933   4.909958
    11  O    2.232267   1.226363   2.404207   2.846658   4.240093
    12  H    0.955279   1.822059   3.205584   4.322966   5.593130
    13  H    4.039350   2.704839   2.169206   1.083198   2.131211
    14  H    5.823400   4.652813   3.414538   2.148197   1.080849
    15  H    6.178774   5.406179   3.897251   3.392713   2.148642
    16  H    4.949138   4.709602   3.404336   3.855510   3.383999
    17  H    3.460749   4.225867   4.131295   5.419959   5.947517
    18  H    2.723685   3.075175   3.030896   4.204901   4.897687
    19  H    4.105875   4.336263   3.707106   4.698206   4.906797
                    6          7          8          9         10
     6  C    0.000000
     7  C    1.391787   0.000000
     8  C    2.424959   1.395478   0.000000
     9  O    3.641788   2.350784   1.370871   0.000000
    10  C    4.403941   3.176971   2.342242   1.422243   0.000000
    11  O    5.065003   4.835039   3.684855   4.228035   4.674892
    12  H    5.970280   5.228927   3.844077   3.624986   3.920797
    13  H    3.380724   3.858978   3.410927   4.608786   5.262499
    14  H    2.146468   3.386116   3.876916   5.244880   5.957178
    15  H    1.080208   2.147809   3.401606   4.497949   5.203710
    16  H    2.144967   1.079324   2.140013   2.546276   3.247585
    17  H    5.395383   4.096673   3.266940   2.058484   1.089800
    18  H    4.675512   3.650845   2.632075   2.096214   1.091187
    19  H    4.209460   3.046756   2.676443   2.082110   1.091236
                   11         12         13         14         15
    11  O    0.000000
    12  H    2.184592   0.000000
    13  H    2.548210   4.446931   0.000000
    14  H    4.883499   6.468028   2.445098   0.000000
    15  H    6.123243   7.040567   4.270283   2.476168   0.000000
    16  H    5.783908   5.901250   4.938275   4.279101   2.472427
    17  H    5.338182   4.154899   6.224928   7.007390   6.158716
    18  H    4.047590   3.409999   4.879253   5.895336   5.563087
    19  H    5.426149   4.937142   5.606263   5.898960   4.844177
                   16         17         18         19
    16  H    0.000000
    17  H    4.002854   0.000000
    18  H    3.972937   1.760745   0.000000
    19  H    2.909780   1.761581   1.769864   0.000000
 Stoichiometry    C8H8O3
 Framework group  C1[X(C8H8O3)]
 Deg. of freedom    51
 Full point group                 C1      NOp   1
 Largest Abelian subgroup         C1      NOp   1
 Largest concise Abelian subgroup C1      NOp   1
                         Standard orientation:                         
 ---------------------------------------------------------------------
 Center     Atomic      Atomic             Coordinates (Angstroms)
 Number     Number       Type             X           Y           Z
 ---------------------------------------------------------------------
      1          8           0        2.391865   -0.043503   -0.410695
      2          6           0        1.494179   -0.987900   -0.058127
      3          6           0        0.036785   -0.589778   -0.038500
      4          6           0       -0.924523   -1.589991    0.192638
      5          6           0       -2.286976   -1.296823    0.179350
      6          6           0       -2.717181    0.002370   -0.069690
      7          6           0       -1.779333    1.006939   -0.289575
      8          6           0       -0.411835    0.730757   -0.257453
      9          8           0        0.429073    1.793646   -0.463430
     10          6           0        0.877686    2.415963    0.734169
     11          8           0        1.871827   -2.122353    0.214572
     12          1           0        3.221508   -0.516833   -0.396253
     13          1           0       -0.623364   -2.614902    0.372029
     14          1           0       -3.009578   -2.081914    0.351726
     15          1           0       -3.772549    0.231612   -0.091987
     16          1           0       -2.107309    2.017177   -0.481388
     17          1           0        1.591596    3.201488    0.487294
     18          1           0        1.376097    1.714333    1.404983
     19          1           0        0.048668    2.877506    1.273153
 ---------------------------------------------------------------------
 Rotational constants (GHZ):           1.5056339           1.1169314           0.6763575
 Standard basis: 6-31G(d,p) (6D, 7F)
 There are   205 symmetry adapted cartesian basis functions of A   symmetry.
 There are   205 symmetry adapted basis functions of A   symmetry.
   205 basis functions,   364 primitive gaussians,   205 cartesian basis functions
    40 alpha electrons       40 beta electrons
       nuclear repulsion energy       597.2480306031 Hartrees.
 NAtoms=   19 NActive=   19 NUniq=   19 SFac= 1.00D+00 NAtFMM=   60 NAOKFM=F Big=F
 Integral buffers will be    131072 words long.
 Raffenetti 2 integral format.
 Two-electron integral symmetry is turned on.
 Nuclear repulsion after empirical dispersion term =      597.2138322216 Hartrees.
 One-electron integrals computed using PRISM.
 NBasis=   205 RedAO= T EigKep=  3.88D-04  NBF=   205
 NBsUse=   205 1.00D-06 EigRej= -1.00D+00 NBFU=   205
 ExpMin= 1.61D-01 ExpMax= 5.48D+03 ExpMxC= 8.25D+02 IAcc=3 IRadAn=         5 AccDes= 0.00D+00
 Harris functional with IExCor=  402 and IRadAn=       5 diagonalized for initial guess.
 HarFok:  IExCor=  402 AccDes= 0.00D+00 IRadAn=         5 IDoV= 1 UseB2=F ITyADJ=14
 ICtDFT=  3500011 ScaDFX=  1.000000  1.000000  1.000000  1.000000
 FoFCou: FMM=F IPFlag=           0 FMFlag=      100000 FMFlg1=           0
         NFxFlg=           0 DoJE=T BraDBF=F KetDBF=T FulRan=T
         wScrn=  0.000000 ICntrl=       500 IOpCl=  0 I1Cent=   200000004 NGrid=           0
         NMat0=    1 NMatS0=      1 NMatT0=    0 NMatD0=    1 NMtDS0=    0 NMtDT0=    0
 Petite list used in FoFCou.
 Requested convergence on RMS density matrix=1.00D-08 within 128 cycles.
 Requested convergence on MAX density matrix=1.00D-06.
 Requested convergence on             energy=1.00D-06.
 No special actions if energy rises.
 Integral accuracy reduced to 1.0D-05 until final iterations.
 Initial convergence to 1.0D-05 achieved.  Increase integral accuracy.
 SCF Done:  E(RB3LYP) =  -535.381278472     A.U. after   15 cycles
            NFock= 15  Conv=0.41D-08     -V/T= 2.0092

 **********************************************************************

            Population analysis using the SCF Density.

 **********************************************************************

 Orbital symmetries:
       Occupied  (A) (A) (A) (A) (A) (A) (A) (A) (A) (A) (A) (A)
                 (A) (A) (A) (A) (A) (A) (A) (A) (A) (A) (A) (A)
                 (A) (A) (A) (A) (A) (A) (A) (A) (A) (A) (A) (A)
                 (A) (A) (A) (A)
       Virtual   (A) (A) (A) (A) (A) (A) (A) (A) (A) (A) (A) (A)
                 (A) (A) (A) (A) (A) (A) (A) (A) (A) (A) (A) (A)
                 (A) (A) (A) (A) (A) (A) (A) (A) (A) (A) (A) (A)
                 (A) (A) (A) (A) (A) (A) (A) (A) (A) (A) (A) (A)
                 (A) (A) (A) (A) (A) (A) (A) (A) (A) (A) (A) (A)
                 (A) (A) (A) (A) (A) (A) (A) (A) (A) (A) (A) (A)
                 (A) (A) (A) (A) (A) (A) (A) (A) (A) (A) (A) (A)
                 (A) (A) (A) (A) (A) (A) (A) (A) (A) (A) (A) (A)
                 (A) (A) (A) (A) (A) (A) (A) (A) (A) (A) (A) (A)
                 (A) (A) (A) (A) (A) (A) (A) (A) (A) (A) (A) (A)
                 (A) (A) (A) (A) (A) (A) (A) (A) (A) (A) (A) (A)
                 (A) (A) (A) (A) (A) (A) (A) (A) (A) (A) (A) (A)
                 (A) (A) (A) (A) (A) (A) (A) (A) (A) (A) (A) (A)
                 (A) (A) (A) (A) (A) (A) (A) (A) (A)
 The electronic state is 1-A.
 Alpha  occ. eigenvalues --  -19.19470 -19.16685 -19.13349 -10.32435 -10.25806
 Alpha  occ. eigenvalues --  -10.23584 -10.21503 -10.20464 -10.20440 -10.19727
 Alpha  occ. eigenvalues --  -10.19622  -1.10833  -1.05794  -1.00579  -0.86312
 Alpha  occ. eigenvalues --   -0.77178  -0.75759  -0.69703  -0.66031  -0.60540
 Alpha  occ. eigenvalues --   -0.59353  -0.53704  -0.50488  -0.49069  -0.47179
 Alpha  occ. eigenvalues --   -0.46596  -0.46336  -0.44279  -0.43866  -0.42961
 Alpha  occ. eigenvalues --   -0.40076  -0.38214  -0.37121  -0.36377  -0.34250
 Alpha  occ. eigenvalues --   -0.31488  -0.27640  -0.27289  -0.26252  -0.25002
 Alpha virt. eigenvalues --   -0.04858  -0.00806   0.05273   0.08389   0.09512
 Alpha virt. eigenvalues --    0.11769   0.13201   0.14576   0.15770   0.16254
 Alpha virt. eigenvalues --    0.17525   0.17907   0.18967   0.22404   0.25359
 Alpha virt. eigenvalues --    0.26708   0.29390   0.32406   0.33968   0.36399
 Alpha virt. eigenvalues --    0.40176   0.49113   0.49465   0.50649   0.51395
 Alpha virt. eigenvalues --    0.52980   0.54237   0.54732   0.55975   0.56759
 Alpha virt. eigenvalues --    0.59197   0.59783   0.60101   0.61532   0.62960
 Alpha virt. eigenvalues --    0.63628   0.65408   0.67194   0.69392   0.71354
 Alpha virt. eigenvalues --    0.75332   0.76775   0.78843   0.80705   0.81265
 Alpha virt. eigenvalues --    0.82266   0.83913   0.84400   0.86107   0.88496
 Alpha virt. eigenvalues --    0.89763   0.89975   0.91703   0.94011   0.97262
 Alpha virt. eigenvalues --    0.98062   0.99550   1.03585   1.04379   1.05162
 Alpha virt. eigenvalues --    1.06474   1.08618   1.12762   1.16048   1.18114
 Alpha virt. eigenvalues --    1.22481   1.25354   1.27986   1.28683   1.30457
 Alpha virt. eigenvalues --    1.34031   1.35789   1.38677   1.39252   1.40645
 Alpha virt. eigenvalues --    1.41701   1.43279   1.45916   1.51132   1.53889
 Alpha virt. eigenvalues --    1.58438   1.63076   1.67047   1.69939   1.72678
 Alpha virt. eigenvalues --    1.73743   1.78034   1.78796   1.83856   1.84938
 Alpha virt. eigenvalues --    1.87307   1.88512   1.89551   1.92733   1.92890
 Alpha virt. eigenvalues --    1.93995   1.95096   1.96944   1.98875   1.99899
 Alpha virt. eigenvalues --    2.02415   2.03056   2.04206   2.05527   2.08123
 Alpha virt. eigenvalues --    2.09619   2.10244   2.23634   2.26506   2.27382
 Alpha virt. eigenvalues --    2.29363   2.29483   2.32431   2.37936   2.38553
 Alpha virt. eigenvalues --    2.40371   2.41930   2.44098   2.46380   2.47504
 Alpha virt. eigenvalues --    2.50850   2.51867   2.54366   2.55284   2.56342
 Alpha virt. eigenvalues --    2.58383   2.58894   2.61887   2.65047   2.66307
 Alpha virt. eigenvalues --    2.69583   2.71195   2.73251   2.76599   2.77871
 Alpha virt. eigenvalues --    2.82241   2.85726   2.86631   2.89240   2.95653
 Alpha virt. eigenvalues --    3.03995   3.07467   3.08807   3.15685   3.19453
 Alpha virt. eigenvalues --    3.21602   3.24360   3.34998   3.36337   3.42704
 Alpha virt. eigenvalues --    3.44566   3.46316   3.49101   3.84982   3.92279
 Alpha virt. eigenvalues --    4.08293   4.09937   4.13804   4.20660   4.37457
 Alpha virt. eigenvalues --    4.41953   4.45834   4.50866   4.57187   4.85195
          Condensed to atoms (all electrons):
               1          2          3          4          5          6
     1  O    8.118152   0.253089  -0.074765   0.003644  -0.000036  -0.000003
     2  C    0.253089   4.448496   0.289444  -0.054748   0.007101  -0.000242
     3  C   -0.074765   0.289444   5.136686   0.479336  -0.026220  -0.032141
     4  C    0.003644  -0.054748   0.479336   4.956433   0.490129  -0.026790
     5  C   -0.000036   0.007101  -0.026220   0.490129   4.864770   0.527586
     6  C   -0.000003  -0.000242  -0.032141  -0.026790   0.527586   4.849630
     7  C    0.000053   0.005523  -0.056719  -0.046894  -0.031772   0.489538
     8  C   -0.000096  -0.032448   0.409359  -0.025372  -0.041455  -0.017166
     9  O   -0.005719  -0.005746  -0.065510   0.004705  -0.000095   0.005425
    10  C   -0.000163   0.000825  -0.006312  -0.000081   0.000045  -0.000195
    11  O   -0.096143   0.561834  -0.087985   0.002353   0.000853  -0.000010
    12  H    0.271969  -0.012944   0.011380  -0.000232   0.000000   0.000000
    13  H    0.000263  -0.007937  -0.035313   0.368440  -0.040804   0.004738
    14  H    0.000000  -0.000146   0.003679  -0.036704   0.371618  -0.041683
    15  H   -0.000000   0.000007   0.000590   0.004534  -0.040986   0.365472
    16  H    0.000003  -0.000097   0.006337   0.000297   0.005170  -0.042500
    17  H   -0.000054  -0.000123   0.000072   0.000009  -0.000001   0.000009
    18  H    0.003830   0.001490   0.005682  -0.000519  -0.000001   0.000066
    19  H    0.000152   0.000110  -0.000762  -0.000003  -0.000002  -0.000570
               7          8          9         10         11         12
     1  O    0.000053  -0.000096  -0.005719  -0.000163  -0.096143   0.271969
     2  C    0.005523  -0.032448  -0.005746   0.000825   0.561834  -0.012944
     3  C   -0.056719   0.409359  -0.065510  -0.006312  -0.087985   0.011380
     4  C   -0.046894  -0.025372   0.004705  -0.000081   0.002353  -0.000232
     5  C   -0.031772  -0.041455  -0.000095   0.000045   0.000853   0.000000
     6  C    0.489538  -0.017166   0.005425  -0.000195  -0.000010   0.000000
     7  C    4.960690   0.507967  -0.067329  -0.005935  -0.000068   0.000014
     8  C    0.507967   4.719160   0.258417  -0.033679   0.002937  -0.000487
     9  O   -0.067329   0.258417   8.239717   0.260677   0.000026   0.000488
    10  C   -0.005935  -0.033679   0.260677   4.720187   0.000017   0.000005
    11  O   -0.000068   0.002937   0.000026   0.000017   8.077306   0.012886
    12  H    0.000014  -0.000487   0.000488   0.000005   0.012886   0.398493
    13  H    0.000372   0.004102  -0.000040  -0.000003   0.011694  -0.000031
    14  H    0.004409   0.000966   0.000002   0.000000   0.000001  -0.000000
    15  H   -0.033556   0.003819  -0.000076  -0.000003   0.000000   0.000000
    16  H    0.361949  -0.035307  -0.001772   0.000231   0.000000  -0.000000
    17  H   -0.000064   0.003124  -0.027913   0.391507   0.000000  -0.000016
    18  H    0.000084  -0.002588  -0.038466   0.370603  -0.000121  -0.000117
    19  H    0.005692   0.000348  -0.041091   0.371660   0.000000   0.000005
              13         14         15         16         17         18
     1  O    0.000263   0.000000  -0.000000   0.000003  -0.000054   0.003830
     2  C   -0.007937  -0.000146   0.000007  -0.000097  -0.000123   0.001490
     3  C   -0.035313   0.003679   0.000590   0.006337   0.000072   0.005682
     4  C    0.368440  -0.036704   0.004534   0.000297   0.000009  -0.000519
     5  C   -0.040804   0.371618  -0.040986   0.005170  -0.000001  -0.000001
     6  C    0.004738  -0.041683   0.365472  -0.042500   0.000009   0.000066
     7  C    0.000372   0.004409  -0.033556   0.361949  -0.000064   0.000084
     8  C    0.004102   0.000966   0.003819  -0.035307   0.003124  -0.002588
     9  O   -0.000040   0.000002  -0.000076  -0.001772  -0.027913  -0.038466
    10  C   -0.000003   0.000000  -0.000003   0.000231   0.391507   0.370603
    11  O    0.011694   0.000001   0.000000   0.000000   0.000000  -0.000121
    12  H   -0.000031  -0.000000   0.000000  -0.000000  -0.000016  -0.000117
    13  H    0.577572  -0.005795  -0.000196   0.000015  -0.000000   0.000007
    14  H   -0.005795   0.616241  -0.005686  -0.000188  -0.000000   0.000000
    15  H   -0.000196  -0.005686   0.616455  -0.006523  -0.000000  -0.000001
    16  H    0.000015  -0.000188  -0.006523   0.614398  -0.000109   0.000201
    17  H   -0.000000  -0.000000  -0.000000  -0.000109   0.583477  -0.033850
    18  H    0.000007   0.000000  -0.000001   0.000201  -0.033850   0.635906
    19  H   -0.000001  -0.000000   0.000010   0.000533  -0.037890  -0.048887
              19
     1  O    0.000152
     2  C    0.000110
     3  C   -0.000762
     4  C   -0.000003
     5  C   -0.000002
     6  C   -0.000570
     7  C    0.005692
     8  C    0.000348
     9  O   -0.041091
    10  C    0.371660
    11  O    0.000000
    12  H    0.000005
    13  H   -0.000001
    14  H   -0.000000
    15  H    0.000010
    16  H    0.000533
    17  H   -0.037890
    18  H   -0.048887
    19  H    0.651170
 Mulliken charges:
               1
     1  O   -0.474175
     2  C    0.546514
     3  C    0.043162
     4  C   -0.118537
     5  C   -0.085899
     6  C   -0.081165
     7  C   -0.093951
     8  C    0.278398
     9  O   -0.515700
    10  C   -0.069388
    11  O   -0.485580
    12  H    0.318588
    13  H    0.122917
    14  H    0.093287
    15  H    0.096139
    16  H    0.097362
    17  H    0.121820
    18  H    0.106681
    19  H    0.099526
 Sum of Mulliken charges =  -0.00000
 Mulliken charges with hydrogens summed into heavy atoms:
               1
     1  O   -0.155588
     2  C    0.546514
     3  C    0.043162
     4  C    0.004380
     5  C    0.007388
     6  C    0.014974
     7  C    0.003411
     8  C    0.278398
     9  O   -0.515700
    10  C    0.258640
    11  O   -0.485580
 Electronic spatial extent (au):  <R**2>=           1654.9553
 Charge=             -0.0000 electrons
 Dipole moment (field-independent basis, Debye):
    X=             -1.0962    Y=              1.6312    Z=              0.9089  Tot=              2.1653
 Quadrupole moment (field-independent basis, Debye-Ang):
   XX=            -52.3829   YY=            -63.5155   ZZ=            -64.3417
   XY=              4.0581   XZ=             -0.1354   YZ=              3.5273
 Traceless Quadrupole moment (field-independent basis, Debye-Ang):
   XX=              7.6971   YY=             -3.4355   ZZ=             -4.2616
   XY=              4.0581   XZ=             -0.1354   YZ=              3.5273
 Octapole moment (field-independent basis, Debye-Ang**2):
  XXX=             28.4640  YYY=             21.2012  ZZZ=             -1.7411  XYY=             -9.0655
  XXY=              4.2517  XXZ=             -4.3584  XZZ=             11.7100  YZZ=              0.7319
  YYZ=              4.6908  XYZ=              7.9726
 Hexadecapole moment (field-independent basis, Debye-Ang**3):
 XXXX=           -931.8435 YYYY=           -840.8976 ZZZZ=           -117.6498 XXXY=            -10.1410
 XXXZ=            -20.5234 YYYX=             47.1661 YYYZ=              9.9799 ZZZX=             -2.8964
 ZZZY=             -1.0271 XXYY=           -332.3356 XXZZ=           -215.8954 YYZZ=           -164.3412
 XXYZ=              3.1408 YYXZ=             -3.2536 ZZXY=             -6.2198
 N-N= 5.972138322216D+02 E-N=-2.443891308159D+03  KE= 5.305226507710D+02
 Calling FoFJK, ICntrl=      2127 FMM=F ISym2X=0 I1Cent= 0 IOpClX= 0 NMat=1 NMatS=1 NMatT=0.
 ***** Axes restored to original set *****
 -------------------------------------------------------------------
 Center     Atomic                   Forces (Hartrees/Bohr)
 Number     Number              X              Y              Z
 -------------------------------------------------------------------
      1        8           0.010653673   -0.018923060   -0.005519148
      2        6           0.010888806    0.003387448    0.017614713
      3        6          -0.011850691    0.006448136   -0.004842729
      4        6           0.003322581   -0.001469797   -0.000374786
      5        6          -0.003284885    0.003690773    0.000438950
      6        6          -0.003187862    0.002722818   -0.002071808
      7        6           0.004261780   -0.001848762    0.004673951
      8        6           0.002713794   -0.004522630   -0.001164325
      9        8          -0.003115240    0.005162859   -0.001708261
     10        6          -0.005147590   -0.002438387    0.001679470
     11        8           0.001793443   -0.009216792   -0.008473486
     12        1          -0.009944807    0.014773765    0.003316792
     13        1          -0.005013108    0.003580090   -0.001820271
     14        1           0.001648488    0.000529527    0.002531011
     15        1           0.002300801   -0.002953184   -0.000725515
     16        1          -0.002832161   -0.001267745   -0.003638213
     17        1           0.003170775    0.003613836   -0.004157627
     18        1           0.000936176    0.003162128    0.002934356
     19        1           0.002686027   -0.004431023    0.001306927
 -------------------------------------------------------------------
 Cartesian Forces:  Max     0.018923060 RMS     0.005952198

 GradGradGradGradGradGradGradGradGradGradGradGradGradGradGradGradGradGrad
 Berny optimization.
 FormGI is forming the generalized inverse of G from B-inverse, IUseBI=4.
 Internal  Forces:  Max     0.017962906 RMS     0.004263680
 Search for a local minimum.
 Step number   1 out of a maximum of   93
 All quantities printed in internal units (Hartrees-Bohrs-Radians)
 Mixed Optimization -- RFO/linear search
 Second derivative matrix not updated -- first step.
 ITU=  0
     Eigenvalues ---    0.00621   0.01180   0.01398   0.01554   0.01992
     Eigenvalues ---    0.02043   0.02077   0.02086   0.02133   0.02172
     Eigenvalues ---    0.02188   0.02192   0.02203   0.02355   0.09936
     Eigenvalues ---    0.10274   0.15998   0.15999   0.16000   0.16000
     Eigenvalues ---    0.16000   0.16000   0.16000   0.16000   0.22000
     Eigenvalues ---    0.22483   0.24466   0.24996   0.24998   0.24999
     Eigenvalues ---    0.25000   0.25000   0.31258   0.34670   0.34676
     Eigenvalues ---    0.34836   0.35611   0.35892   0.35969   0.36076
     Eigenvalues ---    0.41268   0.41762   0.42124   0.44838   0.46034
     Eigenvalues ---    0.46527   0.46987   0.50810   0.55058   0.56501
     Eigenvalues ---    0.92619
 RFO step:  Lambda=-5.67848872D-03 EMin= 6.21482268D-03
 Linear search not attempted -- first point.
 Iteration  1 RMS(Cart)=  0.09036918 RMS(Int)=  0.00274781
 Iteration  2 RMS(Cart)=  0.00401151 RMS(Int)=  0.00014929
 Iteration  3 RMS(Cart)=  0.00000983 RMS(Int)=  0.00014910
 Iteration  4 RMS(Cart)=  0.00000000 RMS(Int)=  0.00014910
 Variable       Old X    -DE/DX   Delta X   Delta X   Delta X     New X
                                 (Linear)    (Quad)   (Total)
    R1        2.55080   0.00057   0.00000   0.00103   0.00103   2.55183
    R2        1.80522   0.01796   0.00000   0.03148   0.03148   1.83669
    R3        2.85523  -0.01552   0.00000  -0.04875  -0.04875   2.80648
    R4        2.31749  -0.01232   0.00000  -0.01322  -0.01322   2.30427
    R5        2.65771  -0.00610   0.00000  -0.01431  -0.01432   2.64339
    R6        2.66780  -0.00141   0.00000  -0.00363  -0.00365   2.66415
    R7        2.63371  -0.00280   0.00000  -0.00624  -0.00623   2.62748
    R8        2.04695   0.00050   0.00000   0.00138   0.00138   2.04833
    R9        2.62869   0.00527   0.00000   0.01147   0.01149   2.64018
   R10        2.04251   0.00288   0.00000   0.00790   0.00790   2.05040
   R11        2.63010   0.00111   0.00000   0.00309   0.00310   2.63320
   R12        2.04130   0.00378   0.00000   0.01034   0.01034   2.05163
   R13        2.63707   0.00138   0.00000   0.00327   0.00326   2.64033
   R14        2.03963   0.00376   0.00000   0.01025   0.01025   2.04988
   R15        2.59057   0.00104   0.00000   0.00202   0.00202   2.59259
   R16        2.68765  -0.00084   0.00000  -0.00197  -0.00197   2.68568
   R17        2.05942   0.00115   0.00000   0.00326   0.00326   2.06268
   R18        2.06205   0.00335   0.00000   0.00949   0.00949   2.07154
   R19        2.06214   0.00492   0.00000   0.01398   0.01398   2.07611
    A1        1.79975   0.00402   0.00000   0.02425   0.02425   1.82401
    A2        2.04937  -0.00840   0.00000  -0.03272  -0.03289   2.01648
    A3        2.09497   0.00747   0.00000   0.02937   0.02920   2.12417
    A4        2.13873   0.00094   0.00000   0.00382   0.00366   2.14239
    A5        2.06468  -0.01021   0.00000  -0.03896  -0.03891   2.02576
    A6        2.15433   0.00663   0.00000   0.02692   0.02696   2.18129
    A7        2.06408   0.00359   0.00000   0.01209   0.01200   2.07608
    A8        2.11418   0.00024   0.00000  -0.00081  -0.00089   2.11328
    A9        2.10609  -0.00668   0.00000  -0.03909  -0.03908   2.06701
   A10        2.06281   0.00644   0.00000   0.04008   0.04008   2.10289
   A11        2.09498  -0.00126   0.00000  -0.00494  -0.00498   2.09000
   A12        2.09353  -0.00043   0.00000  -0.00388  -0.00388   2.08965
   A13        2.09462   0.00169   0.00000   0.00890   0.00891   2.10353
   A14        2.08749   0.00045   0.00000   0.00490   0.00487   2.09236
   A15        2.09909   0.00031   0.00000   0.00077   0.00078   2.09987
   A16        2.09660  -0.00076   0.00000  -0.00566  -0.00565   2.09095
   A17        2.11046  -0.00210   0.00000  -0.00662  -0.00674   2.10372
   A18        2.09312   0.00406   0.00000   0.02156   0.02151   2.11463
   A19        2.07958  -0.00196   0.00000  -0.01480  -0.01484   2.06474
   A20        2.09451  -0.00089   0.00000  -0.00347  -0.00362   2.09089
   A21        2.15750  -0.00571   0.00000  -0.02247  -0.02249   2.13501
   A22        2.03108   0.00660   0.00000   0.02567   0.02563   2.05671
   A23        1.98911   0.00117   0.00000   0.00459   0.00459   1.99370
   A24        1.90845  -0.00821   0.00000  -0.05107  -0.05142   1.85702
   A25        1.96100  -0.00248   0.00000  -0.01535  -0.01565   1.94536
   A26        1.94050  -0.00003   0.00000   0.00173   0.00161   1.94212
   A27        1.87918   0.00425   0.00000   0.02199   0.02145   1.90063
   A28        1.88042   0.00461   0.00000   0.02869   0.02854   1.90896
   A29        1.89159   0.00238   0.00000   0.01704   0.01696   1.90855
    D1       -3.09526  -0.00092   0.00000  -0.03872  -0.03889  -3.13415
    D2        0.03065  -0.00038   0.00000  -0.00577  -0.00560   0.02505
    D3        3.03059   0.00097   0.00000   0.06894   0.06883   3.09942
    D4       -0.09597   0.00083   0.00000   0.06444   0.06438  -0.03159
    D5       -0.09490   0.00035   0.00000   0.03486   0.03492  -0.05998
    D6        3.06172   0.00021   0.00000   0.03036   0.03047   3.09219
    D7       -3.10424  -0.00073   0.00000  -0.02625  -0.02618  -3.13042
    D8        0.02173  -0.00029   0.00000  -0.01220  -0.01245   0.00928
    D9        0.02311  -0.00056   0.00000  -0.02182  -0.02184   0.00127
   D10       -3.13411  -0.00013   0.00000  -0.00777  -0.00811   3.14096
   D11        3.08570   0.00095   0.00000   0.03985   0.03993   3.12563
   D12       -0.04135   0.00150   0.00000   0.06277   0.06256   0.02122
   D13       -0.04087   0.00092   0.00000   0.03576   0.03576  -0.00510
   D14        3.11527   0.00147   0.00000   0.05867   0.05840  -3.10952
   D15        0.00360   0.00006   0.00000   0.00190   0.00189   0.00549
   D16        3.13323   0.00025   0.00000   0.00910   0.00910  -3.14086
   D17       -3.12275  -0.00026   0.00000  -0.01112  -0.01142  -3.13416
   D18        0.00689  -0.00006   0.00000  -0.00392  -0.00421   0.00267
   D19       -0.01276   0.00014   0.00000   0.00447   0.00436  -0.00840
   D20        3.12945   0.00005   0.00000   0.00190   0.00183   3.13127
   D21        3.14080  -0.00004   0.00000  -0.00265  -0.00282   3.13798
   D22       -0.00018  -0.00013   0.00000  -0.00522  -0.00535  -0.00552
   D23       -0.00542   0.00025   0.00000   0.00996   0.01001   0.00458
   D24       -3.13952  -0.00036   0.00000  -0.01211  -0.01227   3.13140
   D25        3.13556   0.00035   0.00000   0.01252   0.01253  -3.13510
   D26        0.00146  -0.00026   0.00000  -0.00954  -0.00975  -0.00829
   D27        0.03270  -0.00087   0.00000  -0.03072  -0.03049   0.00221
   D28       -3.12242  -0.00148   0.00000  -0.05239  -0.05250   3.10827
   D29       -3.11634  -0.00024   0.00000  -0.00866  -0.00869  -3.12502
   D30        0.01174  -0.00085   0.00000  -0.03034  -0.03070  -0.01896
   D31       -1.50974   0.00138   0.00000   0.05192   0.05188  -1.45785
   D32        1.64592   0.00196   0.00000   0.07428   0.07431   1.72023
   D33        3.07324  -0.00027   0.00000   0.01672   0.01704   3.09028
   D34        0.98780   0.00148   0.00000   0.03317   0.03278   1.02058
   D35       -1.13577   0.00018   0.00000   0.02077   0.02084  -1.11493
         Item               Value     Threshold  Converged?
 Maximum Force            0.017963     0.000450     NO 
 RMS     Force            0.004264     0.000300     NO 
 Maximum Displacement     0.346160     0.001800     NO 
 RMS     Displacement     0.091517     0.001200     NO 
 Predicted change in Energy=-3.005045D-03
 GradGradGradGradGradGradGradGradGradGradGradGradGradGradGradGradGradGrad

                          Input orientation:                          
 ---------------------------------------------------------------------
 Center     Atomic      Atomic             Coordinates (Angstroms)
 Number     Number       Type             X           Y           Z
 ---------------------------------------------------------------------
      1          8           0       -1.597909    2.186856   -0.809039
      2          6           0       -0.625637    2.088568    0.122906
      3          6           0        0.288687    0.927749   -0.025766
      4          6           0        1.331728    0.843993    0.902543
      5          6           0        2.256490   -0.193042    0.851568
      6          6           0        2.151660   -1.167014   -0.144596
      7          6           0        1.116356   -1.100059   -1.074816
      8          6           0        0.182454   -0.062070   -1.024029
      9          8           0       -0.790312   -0.027539   -1.990856
     10          6           0       -2.037564   -0.573357   -1.583111
     11          8           0       -0.526209    2.894288    1.032731
     12          1           0       -2.087311    2.990788   -0.566472
     13          1           0        1.405780    1.609807    1.666056
     14          1           0        3.056533   -0.236966    1.583200
     15          1           0        2.874313   -1.975427   -0.198776
     16          1           0        1.020765   -1.839787   -1.862433
     17          1           0       -2.723603   -0.433695   -2.420532
     18          1           0       -2.436680   -0.050520   -0.706171
     19          1           0       -1.949443   -1.645273   -1.359006
 ---------------------------------------------------------------------
                    Distance matrix (angstroms):
                    1          2          3          4          5
     1  O    0.000000
     2  C    1.350368   0.000000
     3  C    2.399606   1.485123   0.000000
     4  C    3.649051   2.447055   1.398824   0.000000
     5  C    4.824720   3.747445   2.428608   1.390404   0.000000
     6  C    5.074367   4.287627   2.805855   2.411004   1.397123
     7  C    4.271029   3.825758   2.428487   2.781308   2.415272
     8  C    2.876384   2.567823   1.409807   2.419393   2.799400
     9  O    2.636750   2.995499   2.436881   3.692476   4.170103
    10  C    2.900217   3.462640   3.176489   4.420350   4.950879
    11  O    2.245244   1.219366   2.377340   2.769944   4.160269
    12  H    0.971936   1.850873   3.192782   4.296110   5.569220
    13  H    3.934619   2.595608   2.139009   1.083931   2.153453
    14  H    5.767283   4.593358   3.406803   2.146326   1.085027
    15  H    6.139853   5.373006   3.891508   3.397294   2.159127
    16  H    4.917413   4.699381   3.401256   3.865808   3.406551
    17  H    3.275879   4.151186   4.081951   5.396390   5.963713
    18  H    2.391646   2.922831   2.974489   4.193926   4.946989
    19  H    3.887319   4.229668   3.661584   4.698631   4.968449
                    6          7          8          9         10
     6  C    0.000000
     7  C    1.393430   0.000000
     8  C    2.423236   1.397202   0.000000
     9  O    3.655445   2.371668   1.371940   0.000000
    10  C    4.468932   3.237745   2.345734   1.421201   0.000000
    11  O    5.005123   4.805683   3.670493   4.212945   4.599064
    12  H    5.952661   5.220817   3.831597   3.580694   3.706637
    13  H    3.397871   3.865167   3.395328   4.569105   5.213435
    14  H    2.160801   3.402097   3.884399   5.255087   6.007371
    15  H    1.085677   2.150378   3.404127   4.520541   5.292327
    16  H    2.163912   1.084747   2.136812   2.565294   3.321934
    17  H    5.430086   4.123140   3.245534   2.021682   1.091526
    18  H    4.755501   3.723103   2.638376   2.088414   1.096210
    19  H    4.303786   3.126843   2.676513   2.088033   1.098632
                   11         12         13         14         15
    11  O    0.000000
    12  H    2.236918   0.000000
    13  H    2.404906   4.369551   0.000000
    14  H    4.789969   6.441941   2.478391   0.000000
    15  H    6.065830   7.029666   4.299778   2.496175   0.000000
    16  H    5.760779   5.888472   4.949563   4.311122   2.494352
    17  H    5.275323   3.945818   6.158563   7.034098   6.216897
    18  H    3.917343   3.064495   4.811303   5.954104   5.671804
    19  H    5.324811   4.705335   5.568129   5.974922   4.972299
                   16         17         18         19
    16  H    0.000000
    17  H    4.038423   0.000000
    18  H    4.061077   1.779939   0.000000
    19  H    3.018842   1.787200   1.790762   0.000000
 Stoichiometry    C8H8O3
 Framework group  C1[X(C8H8O3)]
 Deg. of freedom    51
 Full point group                 C1      NOp   1
 Largest Abelian subgroup         C1      NOp   1
 Largest concise Abelian subgroup C1      NOp   1
                         Standard orientation:                         
 ---------------------------------------------------------------------
 Center     Atomic      Atomic             Coordinates (Angstroms)
 Number     Number       Type             X           Y           Z
 ---------------------------------------------------------------------
      1          8           0        2.339651   -0.162374   -0.317281
      2          6           0        1.383247   -1.082059   -0.066353
      3          6           0       -0.010402   -0.569077   -0.052797
      4          6           0       -1.013948   -1.521359    0.153996
      5          6           0       -2.355786   -1.157582    0.172969
      6          6           0       -2.714741    0.178265   -0.023544
      7          6           0       -1.727032    1.139807   -0.227293
      8          6           0       -0.377340    0.778868   -0.242422
      9          8           0        0.546418    1.763204   -0.487319
     10          6           0        1.159406    2.291556    0.680971
     11          8           0        1.658534   -2.249663    0.152211
     12          1           0        3.171730   -0.664195   -0.295371
     13          1           0       -0.722393   -2.555326    0.298260
     14          1           0       -3.116148   -1.914280    0.335885
     15          1           0       -3.760214    0.470957   -0.020084
     16          1           0       -1.982779    2.181142   -0.391280
     17          1           0        1.900117    3.016806    0.339228
     18          1           0        1.667813    1.508934    1.256038
     19          1           0        0.424628    2.796103    1.323252
 ---------------------------------------------------------------------
 Rotational constants (GHZ):           1.5284560           1.1396760           0.6832121
 Standard basis: 6-31G(d,p) (6D, 7F)
 There are   205 symmetry adapted cartesian basis functions of A   symmetry.
 There are   205 symmetry adapted basis functions of A   symmetry.
   205 basis functions,   364 primitive gaussians,   205 cartesian basis functions
    40 alpha electrons       40 beta electrons
       nuclear repulsion energy       600.4523807836 Hartrees.
 NAtoms=   19 NActive=   19 NUniq=   19 SFac= 1.00D+00 NAtFMM=   60 NAOKFM=F Big=F
 Integral buffers will be    131072 words long.
 Raffenetti 2 integral format.
 Two-electron integral symmetry is turned on.
 Nuclear repulsion after empirical dispersion term =      600.4178664475 Hartrees.
 One-electron integrals computed using PRISM.
 NBasis=   205 RedAO= T EigKep=  3.88D-04  NBF=   205
 NBsUse=   205 1.00D-06 EigRej= -1.00D+00 NBFU=   205
 Initial guess from the checkpoint file:  "Ac4_conf-4.chk"
 B after Tr=    -0.000000   -0.000000    0.000000
         Rot=    0.999280   -0.003976   -0.005023    0.037394 Ang=  -4.35 deg.
 ExpMin= 1.61D-01 ExpMax= 5.48D+03 ExpMxC= 8.25D+02 IAcc=3 IRadAn=         5 AccDes= 0.00D+00
 Harris functional with IExCor=  402 and IRadAn=       5 diagonalized for initial guess.
 HarFok:  IExCor=  402 AccDes= 0.00D+00 IRadAn=         5 IDoV= 1 UseB2=F ITyADJ=14
 ICtDFT=  3500011 ScaDFX=  1.000000  1.000000  1.000000  1.000000
 FoFCou: FMM=F IPFlag=           0 FMFlag=      100000 FMFlg1=           0
         NFxFlg=           0 DoJE=T BraDBF=F KetDBF=T FulRan=T
         wScrn=  0.000000 ICntrl=       500 IOpCl=  0 I1Cent=   200000004 NGrid=           0
         NMat0=    1 NMatS0=      1 NMatT0=    0 NMatD0=    1 NMtDS0=    0 NMtDT0=    0
 Petite list used in FoFCou.
 Requested convergence on RMS density matrix=1.00D-08 within 128 cycles.
 Requested convergence on MAX density matrix=1.00D-06.
 Requested convergence on             energy=1.00D-06.
 No special actions if energy rises.
 Integral accuracy reduced to 1.0D-05 until final iterations.
 Initial convergence to 1.0D-05 achieved.  Increase integral accuracy.
 SCF Done:  E(RB3LYP) =  -535.383783907     A.U. after   13 cycles
            NFock= 13  Conv=0.62D-08     -V/T= 2.0091
 Calling FoFJK, ICntrl=      2127 FMM=F ISym2X=0 I1Cent= 0 IOpClX= 0 NMat=1 NMatS=1 NMatT=0.
 ***** Axes restored to original set *****
 -------------------------------------------------------------------
 Center     Atomic                   Forces (Hartrees/Bohr)
 Number     Number              X              Y              Z
 -------------------------------------------------------------------
      1        8          -0.000348157    0.003732145   -0.000039850
      2        6           0.002617143    0.000602652    0.007477446
      3        6          -0.003605569    0.000139407   -0.003623221
      4        6           0.004795598   -0.002946435    0.002509192
      5        6          -0.000026956    0.000276859    0.000246551
      6        6          -0.000983404    0.001194449   -0.000105254
      7        6           0.001144174   -0.000097412    0.000370410
      8        6           0.000868651   -0.000529992   -0.001381334
      9        8           0.004120382   -0.001064332    0.000217733
     10        6          -0.005327605   -0.001773002    0.000946449
     11        8          -0.001740578    0.000521876   -0.003896019
     12        1          -0.000808177    0.000429934   -0.000082226
     13        1          -0.001301449    0.000596271   -0.000805496
     14        1           0.000187868   -0.000283703   -0.000302183
     15        1          -0.000090430   -0.000085006    0.000049796
     16        1          -0.000629694    0.000243112   -0.000060532
     17        1           0.000049482   -0.000249565    0.000130006
     18        1           0.000308232   -0.001076252   -0.001345062
     19        1           0.000770488    0.000368994   -0.000306406
 -------------------------------------------------------------------
 Cartesian Forces:  Max     0.007477446 RMS     0.001988995

 GradGradGradGradGradGradGradGradGradGradGradGradGradGradGradGradGradGrad
 Berny optimization.
 Using GEDIIS/GDIIS optimizer.
 FormGI is forming the generalized inverse of G from B-inverse, IUseBI=4.
 Internal  Forces:  Max     0.008426693 RMS     0.002155369
 Search for a local minimum.
 Step number   2 out of a maximum of   93
 All quantities printed in internal units (Hartrees-Bohrs-Radians)
 Mixed Optimization -- RFO/linear search
 Update second derivatives using D2CorX and points    1    2
 DE= -2.51D-03 DEPred=-3.01D-03 R= 8.34D-01
 TightC=F SS=  1.41D+00  RLast= 2.43D-01 DXNew= 5.0454D-01 7.2753D-01
 Trust test= 8.34D-01 RLast= 2.43D-01 DXMaxT set to 5.05D-01
 ITU=  1  0
 Use linear search instead of GDIIS.
     Eigenvalues ---    0.00637   0.01214   0.01397   0.01558   0.01995
     Eigenvalues ---    0.02037   0.02090   0.02126   0.02172   0.02188
     Eigenvalues ---    0.02190   0.02202   0.02341   0.02565   0.10034
     Eigenvalues ---    0.10621   0.13080   0.15999   0.16000   0.16000
     Eigenvalues ---    0.16000   0.16000   0.16000   0.16143   0.21511
     Eigenvalues ---    0.22304   0.22652   0.24489   0.24991   0.24999
     Eigenvalues ---    0.25000   0.27930   0.33789   0.34632   0.34831
     Eigenvalues ---    0.35404   0.35626   0.35914   0.36009   0.36174
     Eigenvalues ---    0.41645   0.41869   0.44661   0.45894   0.46212
     Eigenvalues ---    0.46549   0.47471   0.50803   0.54927   0.56396
     Eigenvalues ---    0.91403
 RFO step:  Lambda=-1.83905681D-03 EMin= 6.36646832D-03
 Quartic linear search produced a step of -0.13347.
 Iteration  1 RMS(Cart)=  0.08580121 RMS(Int)=  0.00201249
 Iteration  2 RMS(Cart)=  0.00286789 RMS(Int)=  0.00042094
 Iteration  3 RMS(Cart)=  0.00000331 RMS(Int)=  0.00042093
 Iteration  4 RMS(Cart)=  0.00000000 RMS(Int)=  0.00042093
 Variable       Old X    -DE/DX   Delta X   Delta X   Delta X     New X
                                 (Linear)    (Quad)   (Total)
    R1        2.55183   0.00122  -0.00014   0.00241   0.00227   2.55410
    R2        1.83669   0.00074  -0.00420   0.01638   0.01218   1.84887
    R3        2.80648   0.00465   0.00651  -0.01092  -0.00441   2.80207
    R4        2.30427  -0.00270   0.00176  -0.00891  -0.00715   2.29712
    R5        2.64339   0.00419   0.00191   0.00157   0.00350   2.64690
    R6        2.66415   0.00466   0.00049   0.00791   0.00842   2.67257
    R7        2.62748  -0.00110   0.00083  -0.00511  -0.00429   2.62320
    R8        2.04833  -0.00023  -0.00018   0.00010  -0.00008   2.04825
    R9        2.64018  -0.00146  -0.00153   0.00244   0.00088   2.64106
   R10        2.05040  -0.00005  -0.00105   0.00371   0.00266   2.05306
   R11        2.63320  -0.00113  -0.00041  -0.00097  -0.00141   2.63179
   R12        2.05163   0.00000  -0.00138   0.00503   0.00365   2.05528
   R13        2.64033  -0.00011  -0.00043   0.00144   0.00101   2.64134
   R14        2.04988  -0.00007  -0.00137   0.00482   0.00346   2.05333
   R15        2.59259   0.00021  -0.00027   0.00134   0.00107   2.59366
   R16        2.68568   0.00457   0.00026   0.00840   0.00867   2.69435
   R17        2.06268  -0.00016  -0.00044   0.00118   0.00075   2.06343
   R18        2.07154  -0.00170  -0.00127   0.00038  -0.00088   2.07065
   R19        2.07611  -0.00036  -0.00187   0.00590   0.00404   2.08015
    A1        1.82401   0.00092  -0.00324   0.01688   0.01364   1.83764
    A2        2.01648   0.00353   0.00439  -0.00334  -0.00101   2.01547
    A3        2.12417  -0.00523  -0.00390  -0.00314  -0.00909   2.11508
    A4        2.14239   0.00173  -0.00049   0.00830   0.00572   2.14811
    A5        2.02576  -0.00542   0.00519  -0.03845  -0.03341   1.99235
    A6        2.18129   0.00843  -0.00360   0.04141   0.03760   2.21889
    A7        2.07608  -0.00302  -0.00160  -0.00324  -0.00490   2.07119
    A8        2.11328   0.00203   0.00012   0.00791   0.00808   2.12137
    A9        2.06701  -0.00268   0.00522  -0.03239  -0.02720   2.03981
   A10        2.10289   0.00065  -0.00535   0.02447   0.01909   2.12198
   A11        2.09000  -0.00058   0.00066  -0.00609  -0.00542   2.08458
   A12        2.08965   0.00073   0.00052   0.00226   0.00277   2.09242
   A13        2.10353  -0.00015  -0.00119   0.00382   0.00262   2.10615
   A14        2.09236   0.00072  -0.00065   0.00312   0.00246   2.09482
   A15        2.09987  -0.00033  -0.00010   0.00022   0.00012   2.09999
   A16        2.09095  -0.00040   0.00075  -0.00334  -0.00257   2.08838
   A17        2.10372   0.00169   0.00090   0.00231   0.00324   2.10695
   A18        2.11463  -0.00018  -0.00287   0.01136   0.00849   2.12312
   A19        2.06474  -0.00151   0.00198  -0.01368  -0.01170   2.05304
   A20        2.09089  -0.00084   0.00048  -0.00401  -0.00347   2.08742
   A21        2.13501   0.00628   0.00300   0.01022   0.01318   2.14820
   A22        2.05671  -0.00544  -0.00342  -0.00668  -0.01015   2.04656
   A23        1.99370   0.00365  -0.00061   0.01481   0.01420   2.00790
   A24        1.85702   0.00034   0.00686  -0.02346  -0.01660   1.84042
   A25        1.94536   0.00095   0.00209  -0.00234  -0.00024   1.94512
   A26        1.94212  -0.00157  -0.00022  -0.00834  -0.00858   1.93354
   A27        1.90063  -0.00002  -0.00286   0.01164   0.00882   1.90945
   A28        1.90896   0.00012  -0.00381   0.01364   0.00978   1.91874
   A29        1.90855   0.00020  -0.00226   0.00896   0.00669   1.91525
    D1       -3.13415   0.00090   0.00519   0.03769   0.04247  -3.09168
    D2        0.02505  -0.00128   0.00075  -0.07538  -0.07422  -0.04917
    D3        3.09942  -0.00171  -0.00919  -0.06853  -0.07788   3.02155
    D4       -0.03159  -0.00100  -0.00859  -0.03714  -0.04578  -0.07737
    D5       -0.05998   0.00041  -0.00466   0.04571   0.04110  -0.01888
    D6        3.09219   0.00112  -0.00407   0.07710   0.07320  -3.11780
    D7       -3.13042   0.00087   0.00349   0.02355   0.02636  -3.10406
    D8        0.00928   0.00052   0.00166   0.01871   0.01991   0.02918
    D9        0.00127   0.00027   0.00292  -0.00553  -0.00250  -0.00124
   D10        3.14096  -0.00007   0.00108  -0.01038  -0.00896   3.13200
   D11        3.12563  -0.00118  -0.00533  -0.02617  -0.03205   3.09358
   D12        0.02122  -0.00100  -0.00835  -0.01097  -0.01966   0.00156
   D13       -0.00510  -0.00044  -0.00477   0.00624   0.00147  -0.00363
   D14       -3.10952  -0.00026  -0.00779   0.02144   0.01386  -3.09566
   D15        0.00549   0.00001  -0.00025   0.00327   0.00286   0.00835
   D16       -3.14086  -0.00017  -0.00121  -0.00024  -0.00149   3.14083
   D17       -3.13416   0.00036   0.00152   0.00827   0.00967  -3.12449
   D18        0.00267   0.00018   0.00056   0.00476   0.00532   0.00799
   D19       -0.00840  -0.00013  -0.00058  -0.00169  -0.00219  -0.01059
   D20        3.13127   0.00001  -0.00024   0.00040   0.00025   3.13152
   D21        3.13798   0.00005   0.00038   0.00185   0.00220   3.14019
   D22       -0.00552   0.00019   0.00071   0.00394   0.00464  -0.00088
   D23        0.00458  -0.00004  -0.00134   0.00250   0.00124   0.00583
   D24        3.13140   0.00029   0.00164   0.00130   0.00295   3.13435
   D25       -3.13510  -0.00018  -0.00167   0.00042  -0.00118  -3.13628
   D26       -0.00829   0.00015   0.00130  -0.00078   0.00053  -0.00776
   D27        0.00221   0.00034   0.00407  -0.00479  -0.00086   0.00134
   D28        3.10827   0.00041   0.00701  -0.01896  -0.01205   3.09622
   D29       -3.12502   0.00001   0.00116  -0.00382  -0.00267  -3.12769
   D30       -0.01896   0.00008   0.00410  -0.01799  -0.01386  -0.03282
   D31       -1.45785  -0.00286  -0.00693  -0.07963  -0.08661  -1.54446
   D32        1.72023  -0.00277  -0.00992  -0.06476  -0.07461   1.64561
   D33        3.09028   0.00048  -0.00227   0.01864   0.01628   3.10657
   D34        1.02058  -0.00023  -0.00438   0.02015   0.01582   1.03640
   D35       -1.11493  -0.00003  -0.00278   0.01621   0.01347  -1.10146
         Item               Value     Threshold  Converged?
 Maximum Force            0.008427     0.000450     NO 
 RMS     Force            0.002155     0.000300     NO 
 Maximum Displacement     0.324263     0.001800     NO 
 RMS     Displacement     0.085621     0.001200     NO 
 Predicted change in Energy=-1.040672D-03
 GradGradGradGradGradGradGradGradGradGradGradGradGradGradGradGradGradGrad

                          Input orientation:                          
 ---------------------------------------------------------------------
 Center     Atomic      Atomic             Coordinates (Angstroms)
 Number     Number       Type             X           Y           Z
 ---------------------------------------------------------------------
      1          8           0       -1.547410    2.312390   -0.769582
      2          6           0       -0.604976    2.125684    0.181053
      3          6           0        0.258485    0.934234   -0.002106
      4          6           0        1.318931    0.849417    0.909026
      5          6           0        2.247650   -0.180516    0.848671
      6          6           0        2.131631   -1.152447   -0.148898
      7          6           0        1.083696   -1.090098   -1.064059
      8          6           0        0.143077   -0.058014   -1.003239
      9          8           0       -0.828026   -0.034569   -1.972871
     10          6           0       -2.049945   -0.678435   -1.619006
     11          8           0       -0.423422    2.948185    1.057508
     12          1           0       -1.991768    3.150807   -0.531192
     13          1           0        1.384800    1.629958    1.658178
     14          1           0        3.060175   -0.219679    1.568813
     15          1           0        2.856656   -1.960424   -0.215241
     16          1           0        0.972061   -1.827739   -1.854042
     17          1           0       -2.712265   -0.536234   -2.475397
     18          1           0       -2.500602   -0.222113   -0.730564
     19          1           0       -1.888648   -1.753108   -1.443653
 ---------------------------------------------------------------------
                    Distance matrix (angstroms):
                    1          2          3          4          5
     1  O    0.000000
     2  C    1.351572   0.000000
     3  C    2.397830   1.482790   0.000000
     4  C    3.629590   2.420790   1.400679   0.000000
     5  C    4.820353   3.728505   2.433776   1.388136   0.000000
     6  C    5.091727   4.282993   2.807928   2.405648   1.397589
     7  C    4.311191   3.839685   2.430358   2.776710   2.416747
     8  C    2.920815   2.594354   1.414264   2.421326   2.806030
     9  O    2.733795   3.058730   2.450102   3.700836   4.176384
    10  C    3.149460   3.631973   3.247139   4.480469   4.980630
    11  O    2.237374   1.215584   2.375664   2.731789   4.119103
    12  H    0.978379   1.865840   3.202619   4.281513   5.565465
    13  H    3.867504   2.527222   2.123478   1.083888   2.162782
    14  H    5.754068   4.567268   3.413029   2.147141   1.086432
    15  H    6.161171   5.369937   3.895506   3.394669   2.161220
    16  H    4.966332   4.717861   3.401081   3.862903   3.412496
    17  H    3.518715   4.310824   4.135795   5.442875   5.981364
    18  H    2.708099   3.152236   3.079017   4.292466   5.004160
    19  H    4.135105   4.396875   3.729617   4.753609   4.983649
                    6          7          8          9         10
     6  C    0.000000
     7  C    1.392686   0.000000
     8  C    2.425289   1.397734   0.000000
     9  O    3.651862   2.365325   1.372508   0.000000
    10  C    4.457744   3.208916   2.360813   1.425787   0.000000
    11  O    4.979849   4.804185   3.688473   4.271267   4.791834
    12  H    5.972149   5.265711   3.882902   3.685017   3.981183
    13  H    3.400744   3.860045   3.387369   4.566373   5.278834
    14  H    2.163974   3.405307   3.892435   5.262689   6.040362
    15  H    1.087608   2.149731   3.406408   4.513875   5.262014
    16  H    2.169823   1.086576   2.131433   2.543599   3.241707
    17  H    5.408848   4.087537   3.247910   2.013593   1.091922
    18  H    4.760403   3.702947   2.662765   2.091891   1.095742
    19  H    4.266126   3.068959   2.682390   2.087670   1.100767
                   11         12         13         14         15
    11  O    0.000000
    12  H    2.241591   0.000000
    13  H    2.316936   4.302038   0.000000
    14  H    4.736269   6.425910   2.497203   0.000000
    15  H    6.039309   7.052072   4.308933   2.500893   0.000000
    16  H    5.764889   5.943074   4.945878   4.319955   2.500994
    17  H    5.464558   4.230050   6.210054   7.055275   6.176528
    18  H    4.190784   3.416906   4.922662   6.017424   5.655749
    19  H    5.523120   4.989148   5.637549   5.993097   4.906107
                   16         17         18         19
    16  H    0.000000
    17  H    3.953268   0.000000
    18  H    3.987434   1.785473   0.000000
    19  H    2.890960   1.795445   1.796366   0.000000
 Stoichiometry    C8H8O3
 Framework group  C1[X(C8H8O3)]
 Deg. of freedom    51
 Full point group                 C1      NOp   1
 Largest Abelian subgroup         C1      NOp   1
 Largest concise Abelian subgroup C1      NOp   1
                         Standard orientation:                         
 ---------------------------------------------------------------------
 Center     Atomic      Atomic             Coordinates (Angstroms)
 Number     Number       Type             X           Y           Z
 ---------------------------------------------------------------------
      1          8           0        2.380478   -0.111142   -0.344888
      2          6           0        1.451889   -1.036607   -0.016282
      3          6           0        0.048177   -0.558848   -0.013943
      4          6           0       -0.901151   -1.570256    0.180304
      5          6           0       -2.262795   -1.300749    0.165659
      6          6           0       -2.701757    0.007206   -0.057546
      7          6           0       -1.775974    1.029620   -0.250335
      8          6           0       -0.403934    0.763581   -0.230554
      9          8           0        0.443640    1.813255   -0.482704
     10          6           0        0.927245    2.490114    0.675250
     11          8           0        1.756784   -2.200691    0.155741
     12          1           0        3.233440   -0.590393   -0.345417
     13          1           0       -0.522845   -2.574198    0.334564
     14          1           0       -2.975739   -2.106136    0.318623
     15          1           0       -3.765433    0.232861   -0.081301
     16          1           0       -2.088007    2.054369   -0.432472
     17          1           0        1.604966    3.259842    0.300408
     18          1           0        1.477600    1.810818    1.335792
     19          1           0        0.098602    2.957096    1.229297
 ---------------------------------------------------------------------
 Rotational constants (GHZ):           1.4601058           1.1517042           0.6738237
 Standard basis: 6-31G(d,p) (6D, 7F)
 There are   205 symmetry adapted cartesian basis functions of A   symmetry.
 There are   205 symmetry adapted basis functions of A   symmetry.
   205 basis functions,   364 primitive gaussians,   205 cartesian basis functions
    40 alpha electrons       40 beta electrons
       nuclear repulsion energy       597.5815358347 Hartrees.
 NAtoms=   19 NActive=   19 NUniq=   19 SFac= 1.00D+00 NAtFMM=   60 NAOKFM=F Big=F
 Integral buffers will be    131072 words long.
 Raffenetti 2 integral format.
 Two-electron integral symmetry is turned on.
 Nuclear repulsion after empirical dispersion term =      597.5473929665 Hartrees.
 One-electron integrals computed using PRISM.
 NBasis=   205 RedAO= T EigKep=  3.90D-04  NBF=   205
 NBsUse=   205 1.00D-06 EigRej= -1.00D+00 NBFU=   205
 Initial guess from the checkpoint file:  "Ac4_conf-4.chk"
 B after Tr=     0.000000   -0.000000   -0.000000
         Rot=    0.999504    0.006326    0.003591   -0.030657 Ang=   3.61 deg.
 ExpMin= 1.61D-01 ExpMax= 5.48D+03 ExpMxC= 8.25D+02 IAcc=3 IRadAn=         5 AccDes= 0.00D+00
 Harris functional with IExCor=  402 and IRadAn=       5 diagonalized for initial guess.
 HarFok:  IExCor=  402 AccDes= 0.00D+00 IRadAn=         5 IDoV= 1 UseB2=F ITyADJ=14
 ICtDFT=  3500011 ScaDFX=  1.000000  1.000000  1.000000  1.000000
 FoFCou: FMM=F IPFlag=           0 FMFlag=      100000 FMFlg1=           0
         NFxFlg=           0 DoJE=T BraDBF=F KetDBF=T FulRan=T
         wScrn=  0.000000 ICntrl=       500 IOpCl=  0 I1Cent=   200000004 NGrid=           0
         NMat0=    1 NMatS0=      1 NMatT0=    0 NMatD0=    1 NMtDS0=    0 NMtDT0=    0
 Petite list used in FoFCou.
 Requested convergence on RMS density matrix=1.00D-08 within 128 cycles.
 Requested convergence on MAX density matrix=1.00D-06.
 Requested convergence on             energy=1.00D-06.
 No special actions if energy rises.
 Integral accuracy reduced to 1.0D-05 until final iterations.
 Initial convergence to 1.0D-05 achieved.  Increase integral accuracy.
 SCF Done:  E(RB3LYP) =  -535.383166055     A.U. after   13 cycles
            NFock= 13  Conv=0.48D-08     -V/T= 2.0092
 Calling FoFJK, ICntrl=      2127 FMM=F ISym2X=0 I1Cent= 0 IOpClX= 0 NMat=1 NMatS=1 NMatT=0.
 ***** Axes restored to original set *****
 -------------------------------------------------------------------
 Center     Atomic                   Forces (Hartrees/Bohr)
 Number     Number              X              Y              Z
 -------------------------------------------------------------------
      1        8          -0.006743187    0.000188041    0.001500317
      2        6           0.003996058    0.007696525   -0.009431792
      3        6          -0.001160820   -0.004674590   -0.001635282
      4        6           0.002660854   -0.002199724    0.001855219
      5        6           0.000931066   -0.000520606    0.000171897
      6        6           0.000477650   -0.001115650    0.000313634
      7        6          -0.000099724    0.000031011    0.000243152
      8        6          -0.000248019    0.001349922    0.000277806
      9        8           0.001753106    0.002317388    0.002131222
     10        6           0.000377906   -0.000055515   -0.001354432
     11        8          -0.003811273    0.000826300    0.005242116
     12        1           0.003430900   -0.004954475   -0.000912560
     13        1           0.000814902   -0.000755071    0.000233732
     14        1          -0.000515142   -0.000353126   -0.001045896
     15        1          -0.000731316    0.000945753    0.000169598
     16        1           0.000647883    0.000733464    0.000981965
     17        1          -0.000877586   -0.001363592    0.001272578
     18        1           0.000147088    0.000022464   -0.000102216
     19        1          -0.001050347    0.001881482    0.000088942
 -------------------------------------------------------------------
 Cartesian Forces:  Max     0.009431792 RMS     0.002540255

 GradGradGradGradGradGradGradGradGradGradGradGradGradGradGradGradGradGrad
 Berny optimization.
 Using GEDIIS/GDIIS optimizer.
 FormGI is forming the generalized inverse of G from B-inverse, IUseBI=4.
 Internal  Forces:  Max     0.010075268 RMS     0.002484536
 Search for a local minimum.
 Step number   3 out of a maximum of   93
 All quantities printed in internal units (Hartrees-Bohrs-Radians)
 Mixed Optimization -- RFO/linear search
 Update second derivatives using D2CorX and points    1    3    2
 DE=  6.18D-04 DEPred=-1.04D-03 R=-5.94D-01
 Trust test=-5.94D-01 RLast= 2.13D-01 DXMaxT set to 2.52D-01
 ITU= -1  1  0
 Use linear search instead of GDIIS.
     Eigenvalues ---    0.00635   0.01366   0.01470   0.01696   0.02011
     Eigenvalues ---    0.02069   0.02092   0.02132   0.02172   0.02188
     Eigenvalues ---    0.02196   0.02203   0.02358   0.03698   0.10103
     Eigenvalues ---    0.10726   0.14319   0.15999   0.15999   0.16000
     Eigenvalues ---    0.16000   0.16000   0.16078   0.16112   0.21787
     Eigenvalues ---    0.22351   0.23350   0.24492   0.24972   0.24996
     Eigenvalues ---    0.25453   0.31654   0.34345   0.34706   0.34842
     Eigenvalues ---    0.35607   0.35843   0.35910   0.35960   0.36070
     Eigenvalues ---    0.41688   0.41838   0.43317   0.45961   0.46489
     Eigenvalues ---    0.46893   0.47430   0.51018   0.54925   0.56269
     Eigenvalues ---    0.91778
 RFO step:  Lambda=-8.12560886D-04 EMin= 6.34896297D-03
 Quartic linear search produced a step of -0.64634.
 Iteration  1 RMS(Cart)=  0.03842651 RMS(Int)=  0.00175056
 Iteration  2 RMS(Cart)=  0.00223835 RMS(Int)=  0.00081841
 Iteration  3 RMS(Cart)=  0.00000388 RMS(Int)=  0.00081841
 Iteration  4 RMS(Cart)=  0.00000000 RMS(Int)=  0.00081841
 Variable       Old X    -DE/DX   Delta X   Delta X   Delta X     New X
                                 (Linear)    (Quad)   (Total)
    R1        2.55410   0.00124  -0.00147   0.00285   0.00138   2.55548
    R2        1.84887  -0.00603  -0.00787   0.00055  -0.00732   1.84155
    R3        2.80207   0.00439   0.00285   0.01305   0.01590   2.81796
    R4        2.29712   0.00377   0.00462  -0.00248   0.00214   2.29926
    R5        2.64690   0.00472  -0.00227   0.01105   0.00877   2.65567
    R6        2.67257  -0.00524  -0.00544   0.00513  -0.00032   2.67225
    R7        2.62320   0.00077   0.00277  -0.00203   0.00074   2.62394
    R8        2.04825  -0.00033   0.00005  -0.00077  -0.00072   2.04754
    R9        2.64106  -0.00097  -0.00057  -0.00271  -0.00327   2.63779
   R10        2.05306  -0.00107  -0.00172  -0.00039  -0.00211   2.05095
   R11        2.63179  -0.00063   0.00091  -0.00276  -0.00184   2.62995
   R12        2.05528  -0.00120  -0.00236  -0.00015  -0.00251   2.05278
   R13        2.64134  -0.00012  -0.00065  -0.00005  -0.00069   2.64064
   R14        2.05333  -0.00128  -0.00223  -0.00039  -0.00263   2.05071
   R15        2.59366  -0.00164  -0.00069  -0.00057  -0.00127   2.59240
   R16        2.69435   0.00096  -0.00560   0.01009   0.00449   2.69883
   R17        2.06343  -0.00064  -0.00048  -0.00074  -0.00122   2.06221
   R18        2.07065  -0.00013   0.00057  -0.00346  -0.00289   2.06776
   R19        2.08015  -0.00198  -0.00261  -0.00153  -0.00414   2.07601
    A1        1.83764  -0.00162  -0.00882   0.00362  -0.00519   1.83245
    A2        2.01547  -0.00451   0.00066   0.00570   0.00217   2.01764
    A3        2.11508   0.00078   0.00588  -0.01062  -0.00889   2.10619
    A4        2.14811   0.00435  -0.00370   0.01543   0.00749   2.15560
    A5        1.99235   0.01008   0.02160  -0.00904   0.01262   2.00497
    A6        2.21889  -0.00926  -0.02430   0.01778  -0.00644   2.21245
    A7        2.07119  -0.00079   0.00316  -0.00891  -0.00573   2.06546
    A8        2.12137  -0.00079  -0.00522   0.00748   0.00223   2.12360
    A9        2.03981   0.00150   0.01758  -0.01397   0.00363   2.04344
   A10        2.12198  -0.00071  -0.01234   0.00644  -0.00588   2.11610
   A11        2.08458   0.00004   0.00350  -0.00365  -0.00016   2.08442
   A12        2.09242   0.00057  -0.00179   0.00484   0.00305   2.09548
   A13        2.10615  -0.00060  -0.00170  -0.00120  -0.00289   2.10326
   A14        2.09482  -0.00023  -0.00159   0.00079  -0.00079   2.09403
   A15        2.09999  -0.00002  -0.00008  -0.00019  -0.00027   2.09972
   A16        2.08838   0.00025   0.00166  -0.00060   0.00106   2.08944
   A17        2.10695   0.00025  -0.00209   0.00492   0.00283   2.10978
   A18        2.12312  -0.00064  -0.00548   0.00171  -0.00378   2.11934
   A19        2.05304   0.00039   0.00756  -0.00657   0.00099   2.05403
   A20        2.08742   0.00152   0.00224  -0.00064   0.00158   2.08900
   A21        2.14820  -0.00497  -0.00852   0.01226   0.00375   2.15195
   A22        2.04656   0.00346   0.00656  -0.01151  -0.00494   2.04162
   A23        2.00790  -0.00150  -0.00918   0.01093   0.00175   2.00965
   A24        1.84042   0.00298   0.01073   0.00404   0.01479   1.85521
   A25        1.94512  -0.00097   0.00015   0.00143   0.00158   1.94670
   A26        1.93354   0.00078   0.00554  -0.00729  -0.00173   1.93181
   A27        1.90945  -0.00075  -0.00570   0.00194  -0.00378   1.90567
   A28        1.91874  -0.00125  -0.00632   0.00021  -0.00607   1.91266
   A29        1.91525  -0.00071  -0.00433  -0.00011  -0.00443   1.91081
    D1       -3.09168  -0.00330  -0.02745  -0.06044  -0.08687   3.10463
    D2       -0.04917   0.00376   0.04797   0.05514   0.10210   0.05293
    D3        3.02155   0.00439   0.05033   0.06230   0.11302   3.13456
    D4       -0.07737   0.00358   0.02959   0.06744   0.09729   0.01992
    D5       -0.01888  -0.00258  -0.02657  -0.05406  -0.08088  -0.09976
    D6       -3.11780  -0.00339  -0.04731  -0.04891  -0.09661   3.06878
    D7       -3.10406  -0.00054  -0.01704   0.01098  -0.00569  -3.10975
    D8        0.02918  -0.00042  -0.01287   0.00446  -0.00815   0.02104
    D9       -0.00124  -0.00007   0.00162   0.00701   0.00855   0.00732
[...]
     12  H    Isotropic =    25.2084   Anisotropy =    10.1724
   XX=    31.7782   YX=    -3.4364   ZX=    -0.1594
   XY=     0.6546   YY=    22.3704   ZY=    -0.1480
   XZ=    -0.5365   YZ=    -0.0405   ZZ=    21.4766
   Eigenvalues:    21.4381    22.1970    31.9900
     13  H    Isotropic =    22.5883   Anisotropy =     8.6685
   XX=    27.8016   YX=     2.0083   ZX=    -0.8171
   XY=     1.6786   YY=    20.8266   ZY=    -0.2346
   XZ=    -1.1372   YZ=    -0.1990   ZZ=    19.1367
   Eigenvalues:    19.0278    20.3698    28.3673
     14  H    Isotropic =    23.9137   Anisotropy =     5.7635
   XX=    25.6138   YX=    -2.4136   ZX=     0.1789
   XY=    -2.4317   YY=    24.9413   ZY=    -0.4792
   XZ=     0.2809   YZ=    -0.4021   ZZ=    21.1860
   Eigenvalues:    21.1341    22.8509    27.7560
     15  H    Isotropic =    23.5255   Anisotropy =     6.3306
   XX=    22.3590   YX=     1.6930   ZX=    -0.3283
   XY=     1.6527   YY=    27.0174   ZY=    -1.0715
   XZ=    -0.3205   YZ=    -1.0625   ZZ=    21.2000
   Eigenvalues:    21.0096    21.8209    27.7459
     16  H    Isotropic =    23.9982   Anisotropy =     8.0816
   XX=    29.1060   YX=     0.9176   ZX=    -0.0747
   XY=     2.0237   YY=    21.5655   ZY=     0.0100
   XZ=     0.4656   YZ=    -0.3368   ZZ=    21.3230
   Eigenvalues:    21.1070    21.5016    29.3859
     17  H    Isotropic =    27.8263   Anisotropy =     8.8031
   XX=    27.7222   YX=     3.5106   ZX=     0.0111
   XY=     3.6030   YY=    30.8104   ZY=     0.1968
   XZ=     2.5317   YZ=     3.3877   ZZ=    24.9463
   Eigenvalues:    24.3891    25.3948    33.6950
     18  H    Isotropic =    27.8552   Anisotropy =     6.9796
   XX=    27.4584   YX=    -1.4392   ZX=     2.5067
   XY=     0.0541   YY=    27.4051   ZY=     2.7915
   XZ=     5.2076   YZ=     2.4170   ZZ=    28.7023
   Eigenvalues:    22.9910    28.0664    32.5083
     19  H    Isotropic =    28.4026   Anisotropy =     8.1002
   XX=    27.0925   YX=    -0.0678   ZX=     0.9909
   XY=    -1.5139   YY=    29.4740   ZY=     3.5435
   XZ=    -0.5094   YZ=     5.8566   ZZ=    28.6412
   Eigenvalues:    24.1651    27.2400    33.8027
 End of Minotr F.D. properties file   721 does not exist.
 End of Minotr F.D. properties file   722 does not exist.
 End of Minotr F.D. properties file   788 does not exist.

 **********************************************************************

            Population analysis using the SCF Density.

 **********************************************************************

 Orbital symmetries:
       Occupied  (A) (A) (A) (A) (A) (A) (A) (A) (A) (A) (A) (A)
                 (A) (A) (A) (A) (A) (A) (A) (A) (A) (A) (A) (A)
                 (A) (A) (A) (A) (A) (A) (A) (A) (A) (A) (A) (A)
                 (A) (A) (A) (A)
       Virtual   (A) (A) (A) (A) (A) (A) (A) (A) (A) (A) (A) (A)
                 (A) (A) (A) (A) (A) (A) (A) (A) (A) (A) (A) (A)
                 (A) (A) (A) (A) (A) (A) (A) (A) (A) (A) (A) (A)
                 (A) (A) (A) (A) (A) (A) (A) (A) (A) (A) (A) (A)
                 (A) (A) (A) (A) (A) (A) (A) (A) (A) (A) (A) (A)
                 (A) (A) (A) (A) (A) (A) (A) (A) (A) (A) (A) (A)
                 (A) (A) (A) (A) (A) (A) (A) (A) (A) (A) (A) (A)
                 (A) (A) (A) (A) (A) (A) (A) (A) (A) (A) (A) (A)
                 (A) (A) (A) (A) (A) (A) (A) (A) (A) (A) (A) (A)
                 (A) (A) (A) (A) (A) (A) (A) (A) (A) (A) (A) (A)
                 (A) (A) (A) (A) (A) (A) (A) (A) (A) (A) (A) (A)
                 (A) (A) (A) (A) (A) (A) (A) (A) (A) (A) (A) (A)
                 (A) (A) (A) (A) (A) (A) (A) (A) (A) (A) (A) (A)
                 (A) (A) (A) (A) (A) (A) (A) (A) (A) (A) (A) (A)
                 (A) (A) (A) (A) (A) (A) (A) (A) (A) (A) (A) (A)
                 (A) (A) (A) (A) (A) (A) (A) (A) (A) (A) (A) (A)
                 (A) (A) (A) (A) (A) (A) (A) (A) (A) (A) (A) (A)
                 (A) (A) (A) (A) (A) (A) (A) (A) (A) (A) (A) (A)
                 (A) (A) (A) (A) (A) (A) (A) (A) (A) (A) (A) (A)
                 (A) (A) (A) (A) (A) (A) (A) (A) (A) (A) (A) (A)
                 (A) (A) (A) (A) (A) (A) (A) (A) (A) (A) (A) (A)
                 (A) (A) (A) (A) (A) (A) (A) (A) (A) (A) (A) (A)
                 (A) (A) (A) (A) (A) (A) (A) (A) (A) (A) (A) (A)
                 (A) (A) (A) (A) (A) (A) (A) (A) (A) (A) (A) (A)
                 (A) (A) (A) (A) (A) (A) (A) (A) (A) (A) (A) (A)
                 (A) (A) (A) (A) (A) (A) (A) (A) (A) (A) (A) (A)
                 (A) (A) (A) (A) (A) (A) (A) (A) (A) (A) (A) (A)
                 (A) (A) (A) (A) (A) (A) (A) (A) (A) (A) (A) (A)
                 (A) (A) (A) (A) (A) (A) (A) (A) (A) (A) (A) (A)
                 (A)
 The electronic state is 1-A.
 Alpha  occ. eigenvalues --  -19.67638 -19.64754 -19.61954 -10.68574 -10.61917
 Alpha  occ. eigenvalues --  -10.58882 -10.56896 -10.56297 -10.55911 -10.55413
 Alpha  occ. eigenvalues --  -10.55318  -1.23872  -1.18462  -1.13890  -0.97344
 Alpha  occ. eigenvalues --   -0.87648  -0.85878  -0.79141  -0.75430  -0.69478
 Alpha  occ. eigenvalues --   -0.67992  -0.62028  -0.59302  -0.57904  -0.55464
 Alpha  occ. eigenvalues --   -0.55001  -0.54484  -0.53129  -0.51421  -0.50247
 Alpha  occ. eigenvalues --   -0.48429  -0.45403  -0.44294  -0.43140  -0.41566
 Alpha  occ. eigenvalues --   -0.40154  -0.36822  -0.35297  -0.32422  -0.31048
 Alpha virt. eigenvalues --   -0.02684   0.01257   0.06515   0.08169   0.08443
 Alpha virt. eigenvalues --    0.09260   0.11274   0.11706   0.12836   0.13948
 Alpha virt. eigenvalues --    0.14952   0.15414   0.16982   0.19197   0.20132
 Alpha virt. eigenvalues --    0.20742   0.21370   0.22916   0.24144   0.24346
 Alpha virt. eigenvalues --    0.25584   0.26327   0.26606   0.27108   0.29141
 Alpha virt. eigenvalues --    0.30299   0.31849   0.32982   0.33767   0.33982
 Alpha virt. eigenvalues --    0.35408   0.35748   0.36936   0.37350   0.38374
 Alpha virt. eigenvalues --    0.39861   0.40604   0.41100   0.41654   0.42468
 Alpha virt. eigenvalues --    0.42968   0.44967   0.46094   0.46312   0.47917
 Alpha virt. eigenvalues --    0.48247   0.49272   0.49979   0.50859   0.52157
 Alpha virt. eigenvalues --    0.52287   0.53091   0.54398   0.54809   0.56019
 Alpha virt. eigenvalues --    0.56805   0.59251   0.60903   0.61383   0.61943
 Alpha virt. eigenvalues --    0.63776   0.65348   0.65686   0.69349   0.69850
 Alpha virt. eigenvalues --    0.71719   0.73366   0.74494   0.74814   0.76724
 Alpha virt. eigenvalues --    0.77850   0.78611   0.79744   0.80419   0.82309
 Alpha virt. eigenvalues --    0.83308   0.85460   0.86829   0.87345   0.88532
 Alpha virt. eigenvalues --    0.90711   0.92016   0.92629   0.93766   0.95720
 Alpha virt. eigenvalues --    0.98594   0.99258   1.00549   1.01566   1.02272
 Alpha virt. eigenvalues --    1.04057   1.06082   1.08992   1.10230   1.12983
 Alpha virt. eigenvalues --    1.14204   1.15007   1.15471   1.18131   1.22068
 Alpha virt. eigenvalues --    1.23290   1.25720   1.26047   1.29690   1.31085
 Alpha virt. eigenvalues --    1.32479   1.33346   1.35053   1.37675   1.40358
 Alpha virt. eigenvalues --    1.43516   1.44974   1.46000   1.49194   1.50548
 Alpha virt. eigenvalues --    1.51931   1.53468   1.54450   1.54637   1.56116
 Alpha virt. eigenvalues --    1.57419   1.57560   1.59554   1.60072   1.62335
 Alpha virt. eigenvalues --    1.64452   1.65503   1.68242   1.69079   1.69463
 Alpha virt. eigenvalues --    1.71180   1.72098   1.73495   1.74809   1.75497
 Alpha virt. eigenvalues --    1.77891   1.82555   1.83329   1.86525   1.87940
 Alpha virt. eigenvalues --    1.89869   1.91068   1.92881   1.94392   1.95725
 Alpha virt. eigenvalues --    1.98602   2.01285   2.02018   2.02920   2.04531
 Alpha virt. eigenvalues --    2.07135   2.08747   2.09772   2.11051   2.13648
 Alpha virt. eigenvalues --    2.14733   2.15617   2.17440   2.18522   2.19718
 Alpha virt. eigenvalues --    2.21825   2.23398   2.25680   2.29479   2.31759
 Alpha virt. eigenvalues --    2.32115   2.33772   2.36809   2.37932   2.38846
 Alpha virt. eigenvalues --    2.40144   2.42414   2.43076   2.48463   2.50487
 Alpha virt. eigenvalues --    2.52693   2.53186   2.53649   2.58213   2.58500
 Alpha virt. eigenvalues --    2.59323   2.60366   2.62928   2.65189   2.65589
 Alpha virt. eigenvalues --    2.65748   2.66646   2.70148   2.70841   2.72795
 Alpha virt. eigenvalues --    2.73663   2.74053   2.76369   2.77969   2.78767
 Alpha virt. eigenvalues --    2.79749   2.82000   2.82880   2.84531   2.85263
 Alpha virt. eigenvalues --    2.86853   2.88142   2.90776   2.91608   2.92679
 Alpha virt. eigenvalues --    2.93792   2.96030   3.00382   3.01060   3.01973
 Alpha virt. eigenvalues --    3.02841   3.03097   3.05462   3.09027   3.09628
 Alpha virt. eigenvalues --    3.11733   3.12945   3.13722   3.14767   3.16144
 Alpha virt. eigenvalues --    3.16891   3.18812   3.21099   3.22154   3.22574
 Alpha virt. eigenvalues --    3.24350   3.25694   3.27144   3.28127   3.28540
 Alpha virt. eigenvalues --    3.29899   3.31784   3.32905   3.33655   3.34927
 Alpha virt. eigenvalues --    3.36004   3.37364   3.38706   3.39398   3.42156
 Alpha virt. eigenvalues --    3.42865   3.43390   3.45135   3.47424   3.48666
 Alpha virt. eigenvalues --    3.50164   3.51972   3.53072   3.54345   3.55655
 Alpha virt. eigenvalues --    3.56677   3.58726   3.61243   3.62080   3.65490
 Alpha virt. eigenvalues --    3.67484   3.73939   3.77144   3.80342   3.80796
 Alpha virt. eigenvalues --    3.84585   3.88018   3.88369   3.91516   3.93072
 Alpha virt. eigenvalues --    3.96556   4.05216   4.06836   4.09139   4.13401
 Alpha virt. eigenvalues --    4.14130   4.14642   4.15992   4.16581   4.19185
 Alpha virt. eigenvalues --    4.20051   4.21911   4.25016   4.28080   4.31278
 Alpha virt. eigenvalues --    4.33107   4.35488   4.40606   4.43398   4.51556
 Alpha virt. eigenvalues --    4.54445   4.55397   4.57938   4.58497   4.63744
 Alpha virt. eigenvalues --    4.73254   4.75302   4.82102   4.85878   4.89820
 Alpha virt. eigenvalues --    5.02124   5.04385   5.08745   5.16816   5.21513
 Alpha virt. eigenvalues --    5.22422   5.24087   5.27624   5.33843   5.38070
 Alpha virt. eigenvalues --    5.40558   5.44475   5.48901   5.51533   5.52918
 Alpha virt. eigenvalues --    5.62691   5.77942   5.78899   5.86018   5.93155
 Alpha virt. eigenvalues --    6.00575   6.11720   6.13520   6.20832   6.24667
 Alpha virt. eigenvalues --    6.31747   6.33187   6.37132   6.44905   6.53100
 Alpha virt. eigenvalues --    6.69250   6.70249   6.72686   6.77491   6.81406
 Alpha virt. eigenvalues --    6.83222   6.93501   7.04245   7.08154   7.15233
 Alpha virt. eigenvalues --    7.18529   7.21435   7.36232  22.23997  22.44529
 Alpha virt. eigenvalues --   22.69268  22.74634  22.91408  22.95932  23.29042
 Alpha virt. eigenvalues --   23.53145  43.99659  44.04142  44.35938
          Condensed to atoms (all electrons):
               1          2          3          4          5          6
     1  O    7.942534   0.396197  -0.139290   0.005828  -0.000038  -0.000071
     2  C    0.396197   4.546482   0.254027  -0.127331   0.022472  -0.011452
     3  C   -0.139290   0.254027   5.676127   0.244224   0.044895  -0.147791
     4  C    0.005828  -0.127331   0.244224   5.177346   0.412761   0.054307
     5  C   -0.000038   0.022472   0.044895   0.412761   4.997680   0.426411
     6  C   -0.000071  -0.011452  -0.147791   0.054307   0.426411   5.025489
     7  C    0.001049   0.023802   0.142340  -0.175651   0.033245   0.363460
     8  C    0.013786  -0.081022   0.126724   0.155395  -0.149234   0.073401
     9  O   -0.009691  -0.005361  -0.067180   0.014542  -0.001638   0.013406
    10  C   -0.010047  -0.008596   0.007126   0.001394   0.000262   0.000237
    11  O   -0.089612   0.680489  -0.153062   0.023664   0.002170   0.000247
    12  H    0.289560  -0.033389   0.028521  -0.000795   0.000010  -0.000001
    13  H    0.000850  -0.017530  -0.018341   0.405184  -0.036194   0.004435
    14  H    0.000002  -0.000377   0.006016  -0.033494   0.413352  -0.034895
    15  H   -0.000001   0.000036  -0.001641   0.004505  -0.035468   0.403860
    16  H   -0.000002   0.000616   0.020175  -0.005408   0.008745  -0.039495
    17  H    0.000382  -0.000782  -0.002523   0.000224  -0.000075   0.000278
    18  H    0.004778  -0.001771   0.012903  -0.003458   0.000622  -0.000710
    19  H    0.000594   0.001677   0.001274  -0.000333   0.000116  -0.003197
               7          8          9         10         11         12
     1  O    0.001049   0.013786  -0.009691  -0.010047  -0.089612   0.289560
     2  C    0.023802  -0.081022  -0.005361  -0.008596   0.680489  -0.033389
     3  C    0.142340   0.126724  -0.067180   0.007126  -0.153062   0.028521
     4  C   -0.175651   0.155395   0.014542   0.001394   0.023664  -0.000795
     5  C    0.033245  -0.149234  -0.001638   0.000262   0.002170   0.000010
     6  C    0.363460   0.073401   0.013406   0.000237   0.000247  -0.000001
     7  C    5.139846   0.279335  -0.029507  -0.012572  -0.000461   0.000013
     8  C    0.279335   5.273803   0.269589  -0.080597   0.000668  -0.002096
     9  O   -0.029507   0.269589   8.010947   0.223332  -0.000163   0.000788
    10  C   -0.012572  -0.080597   0.223332   4.907494   0.000056   0.000262
    11  O   -0.000461   0.000668  -0.000163   0.000056   7.864359   0.006654
    12  H    0.000013  -0.002096   0.000788   0.000262   0.006654   0.373892
    13  H   -0.001520   0.008593  -0.000044   0.000025   0.015361  -0.000067
    14  H    0.004831  -0.000484   0.000007  -0.000003  -0.000099  -0.000001
    15  H   -0.026842   0.007749  -0.000306   0.000020  -0.000001   0.000000
    16  H    0.424520  -0.064601   0.006036  -0.001892   0.000006  -0.000002
    17  H   -0.001242   0.003700  -0.029869   0.406619  -0.000002  -0.000029
    18  H    0.013663  -0.017955  -0.046270   0.412615  -0.000077  -0.000001
    19  H   -0.011907   0.023759  -0.042508   0.397617  -0.000001   0.000007
              13         14         15         16         17         18
     1  O    0.000850   0.000002  -0.000001  -0.000002   0.000382   0.004778
     2  C   -0.017530  -0.000377   0.000036   0.000616  -0.000782  -0.001771
     3  C   -0.018341   0.006016  -0.001641   0.020175  -0.002523   0.012903
     4  C    0.405184  -0.033494   0.004505  -0.005408   0.000224  -0.003458
     5  C   -0.036194   0.413352  -0.035468   0.008745  -0.000075   0.000622
     6  C    0.004435  -0.034895   0.403860  -0.039495   0.000278  -0.000710
     7  C   -0.001520   0.004831  -0.026842   0.424520  -0.001242   0.013663
     8  C    0.008593  -0.000484   0.007749  -0.064601   0.003700  -0.017955
     9  O   -0.000044   0.000007  -0.000306   0.006036  -0.029869  -0.046270
    10  C    0.000025  -0.000003   0.000020  -0.001892   0.406619   0.412615
    11  O    0.015361  -0.000099  -0.000001   0.000006  -0.000002  -0.000077
    12  H   -0.000067  -0.000001   0.000000  -0.000002  -0.000029  -0.000001
    13  H    0.461161  -0.002695  -0.000193   0.000035   0.000000  -0.000021
    14  H   -0.002695   0.501251  -0.003312  -0.000166  -0.000000   0.000001
    15  H   -0.000193  -0.003312   0.504717  -0.004572   0.000000  -0.000019
    16  H    0.000035  -0.000166  -0.004572   0.497977  -0.000653   0.001073
    17  H    0.000000  -0.000000   0.000000  -0.000653   0.528186  -0.025592
    18  H   -0.000021   0.000001  -0.000019   0.001073  -0.025592   0.549019
    19  H   -0.000008   0.000002   0.000077  -0.001593  -0.025432  -0.047008
              19
     1  O    0.000594
     2  C    0.001677
     3  C    0.001274
     4  C   -0.000333
     5  C    0.000116
     6  C   -0.003197
     7  C   -0.011907
     8  C    0.023759
     9  O   -0.042508
    10  C    0.397617
    11  O   -0.000001
    12  H    0.000007
    13  H   -0.000008
    14  H    0.000002
    15  H    0.000077
    16  H   -0.001593
    17  H   -0.025432
    18  H   -0.047008
    19  H    0.573171
 Mulliken charges:
               1
     1  O   -0.406810
     2  C    0.361815
     3  C   -0.034523
     4  C   -0.152904
     5  C   -0.140096
     6  C   -0.127921
     7  C   -0.166402
     8  C    0.159486
     9  O   -0.306108
    10  C   -0.243353
    11  O   -0.350196
    12  H    0.336673
    13  H    0.180970
    14  H    0.150065
    15  H    0.151391
    16  H    0.159203
    17  H    0.146810
    18  H    0.148208
    19  H    0.133694
 Sum of Mulliken charges =  -0.00000
 Mulliken charges with hydrogens summed into heavy atoms:
               1
     1  O   -0.070137
     2  C    0.361815
     3  C   -0.034523
     4  C    0.028066
     5  C    0.009968
     6  C    0.023470
     7  C   -0.007200
     8  C    0.159486
     9  O   -0.306108
    10  C    0.185359
    11  O   -0.350196
 Electronic spatial extent (au):  <R**2>=           1656.2684
 Charge=             -0.0000 electrons
 Dipole moment (field-independent basis, Debye):
    X=             -1.0241    Y=              1.9334    Z=              1.2152  Tot=              2.5028
 Quadrupole moment (field-independent basis, Debye-Ang):
   XX=            -52.4881   YY=            -64.7256   ZZ=            -66.5587
   XY=              3.9081   XZ=              0.7835   YZ=              1.8414
 Traceless Quadrupole moment (field-independent basis, Debye-Ang):
   XX=              8.7693   YY=             -3.4681   ZZ=             -5.3012
   XY=              3.9081   XZ=              0.7835   YZ=              1.8414
 Octapole moment (field-independent basis, Debye-Ang**2):
  XXX=             28.6479  YYY=             27.3814  ZZZ=             -1.9906  XYY=            -10.1881
  XXY=              3.6322  XXZ=              0.2926  XZZ=             12.3352  YZZ=             -0.1233
  YYZ=              6.3197  XYZ=              4.6613
 Hexadecapole moment (field-independent basis, Debye-Ang**3):
 XXXX=           -922.4789 YYYY=           -898.1011 ZZZZ=           -112.3113 XXXY=            -13.8260
 XXXZ=             -8.1005 YYYX=             54.7142 YYYZ=              1.0422 ZZZX=             -0.3293
 ZZZY=             -0.1925 XXYY=           -339.4788 XXZZ=           -220.8377 YYZZ=           -174.9991
 XXYZ=             -4.8831 YYXZ=              0.1593 ZZXY=             -6.2910
 N-N= 5.981727828506D+02 E-N=-2.447409005093D+03  KE= 5.326588295812D+02
 Unable to Open any file for archive entry.
 1\1\GINC-NOTCH144\SP\RM062X\def2TZVP\C8H8O3\U6032257\05-Feb-2022\0\\# 
 M062X/def2tzvp int=(grid=ultrafine) nmr=giao guess=read geom=check\\Ac
 4.xyz\\0,1\O,0,-1.6892670085,2.1719054441,-0.6227289031\C,0,-0.5734164
 182,2.1660833724,0.143126797\C,0,0.2991279802,0.9705412803,-0.01663561
 68\C,0,1.3605576817,0.8672309069,0.898050371\C,0,2.2499259633,-0.19786
 92936,0.8566642105\C,0,2.0980933518,-1.18356113,-0.1217403173\C,0,1.06
 05195853,-1.0936580208,-1.0443033516\C,0,0.1579893001,-0.0265106238,-1
 .0034002906\O,0,-0.8041336017,0.0349182666,-1.9780239049\C,0,-2.018336
 0492,-0.6461407506,-1.6603720791\O,0,-0.3326437596,3.0763426122,0.9139
 763872\H,0,-2.1407457374,3.0030900193,-0.39794824\H,0,1.4598335405,1.6
 530785917,1.6379522589\H,0,3.0598705493,-0.2580647507,1.575904421\H,0,
 2.7915334877,-2.0176447085,-0.170491526\H,0,0.93536766,-1.835407524,-1
 .8260109589\H,0,-2.6615787013,-0.5516092898,-2.536498569\H,0,-2.511023
 5913,-0.1870868852,-0.7974613435\H,0,-1.8315742328,-1.7083375165,-1.45
 66593448\\Version=ES64L-G16RevC.01\State=1-A\HF=-535.3347412\RMSD=3.96
 8e-09\Dipole=-0.2443663,-0.948609,-0.0999119\Quadrupole=5.3247713,-1.0
 650999,-4.2596714,-3.4050359,2.5313854,-1.0874017\PG=C01 [X(C8H8O3)]\\
 @
 The archive entry for this job was punched.


 THE PROBLEM WITH THE LADDER OF SUCCESS IS YOU CAN'T
 CLIMB IT WHILE YOU'RE TWIDDLING YOUR THUMBS.
 Job cpu time:       0 days  0 hours 25 minutes 44.3 seconds.
 Elapsed time:       0 days  0 hours  0 minutes 43.1 seconds.
 File lengths (MBytes):  RWF=     89 Int=      0 D2E=      0 Chk=     15 Scr=      1
 Normal termination of Gaussian 16 at Sat Feb  5 09:24:12 2022.
