 Entering Gaussian System, Link 0=/uufs/chpc.utah.edu/sys/installdir/gaussian16/C01/AVX2/g16/g16
 Input=Ac4_conf-3.com
 Output=Ac4_conf-3.log
 Initial command:
 /uufs/chpc.utah.edu/sys/installdir/gaussian16/C01/AVX2/g16/l1.exe "/scratch/general/lustre/u6032257/3867928/notchpeak.peaks/Gau-68860.inp" -scrdir="/scratch/general/lustre/u6032257/3867928/notchpeak.peaks/"
 Entering Link 1 = /uufs/chpc.utah.edu/sys/installdir/gaussian16/C01/AVX2/g16/l1.exe PID=     68862.
  
 Copyright (c) 1988-2019, Gaussian, Inc.  All Rights Reserved.
  
 This is part of the Gaussian(R) 16 program.  It is based on
 the Gaussian(R) 09 system (copyright 2009, Gaussian, Inc.),
 the Gaussian(R) 03 system (copyright 2003, Gaussian, Inc.),
 the Gaussian(R) 98 system (copyright 1998, Gaussian, Inc.),
 the Gaussian(R) 94 system (copyright 1995, Gaussian, Inc.),
 the Gaussian 92(TM) system (copyright 1992, Gaussian, Inc.),
 the Gaussian 90(TM) system (copyright 1990, Gaussian, Inc.),
 the Gaussian 88(TM) system (copyright 1988, Gaussian, Inc.),
 the Gaussian 86(TM) system (copyright 1986, Carnegie Mellon
 University), and the Gaussian 82(TM) system (copyright 1983,
 Carnegie Mellon University). Gaussian is a federally registered
 trademark of Gaussian, Inc.
  
 This software contains proprietary and confidential information,
 including trade secrets, belonging to Gaussian, Inc.
  
 This software is provided under written license and may be
 used, copied, transmitted, or stored only in accord with that
 written license.
  
 The following legend is applicable only to US Government
 contracts under FAR:
  
                    RESTRICTED RIGHTS LEGEND
  
 Use, reproduction and disclosure by the US Government is
 subject to restrictions as set forth in subparagraphs (a)
 and (c) of the Commercial Computer Software - Restricted
 Rights clause in FAR 52.227-19.
  
 Gaussian, Inc.
 340 Quinnipiac St., Bldg. 40, Wallingford CT 06492
  
  
 ---------------------------------------------------------------
 Warning -- This program may not be used in any manner that
 competes with the business of Gaussian, Inc. or will provide
 assistance to any competitor of Gaussian, Inc.  The licensee
 of this program is prohibited from giving any competitor of
 Gaussian, Inc. access to this program.  By using this program,
 the user acknowledges that Gaussian, Inc. is engaged in the
 business of creating and licensing software in the field of
 computational chemistry and represents and warrants to the
 licensee that it is not a competitor of Gaussian, Inc. and that
 it will not use this program in any manner prohibited above.
 ---------------------------------------------------------------
  

 Cite this work as:
 Gaussian 16, Revision C.01,
 M. J. Frisch, G. W. Trucks, H. B. Schlegel, G. E. Scuseria, 
 M. A. Robb, J. R. Cheeseman, G. Scalmani, V. Barone, 
 G. A. Petersson, H. Nakatsuji, X. Li, M. Caricato, A. V. Marenich, 
 J. Bloino, B. G. Janesko, R. Gomperts, B. Mennucci, H. P. Hratchian, 
 J. V. Ortiz, A. F. Izmaylov, J. L. Sonnenberg, D. Williams-Young, 
 F. Ding, F. Lipparini, F. Egidi, J. Goings, B. Peng, A. Petrone, 
 T. Henderson, D. Ranasinghe, V. G. Zakrzewski, J. Gao, N. Rega, 
 G. Zheng, W. Liang, M. Hada, M. Ehara, K. Toyota, R. Fukuda, 
 J. Hasegawa, M. Ishida, T. Nakajima, Y. Honda, O. Kitao, H. Nakai, 
 T. Vreven, K. Throssell, J. A. Montgomery, Jr., J. E. Peralta, 
 F. Ogliaro, M. J. Bearpark, J. J. Heyd, E. N. Brothers, K. N. Kudin, 
 V. N. Staroverov, T. A. Keith, R. Kobayashi, J. Normand, 
 K. Raghavachari, A. P. Rendell, J. C. Burant, S. S. Iyengar, 
 J. Tomasi, M. Cossi, J. M. Millam, M. Klene, C. Adamo, R. Cammi, 
 J. W. Ochterski, R. L. Martin, K. Morokuma, O. Farkas, 
 J. B. Foresman, and D. J. Fox, Gaussian, Inc., Wallingford CT, 2019.
 
 ******************************************
 Gaussian 16:  ES64L-G16RevC.01  3-Jul-2019
                 5-Feb-2022 
 ******************************************
 %NProcShared=32
 Will use up to   32 processors via shared memory.
 %mem=16GB
 %chk=Ac4_conf-3.chk
 ----------------------------------------------------------------------
 # B3LYP/6-31G(d,p) empiricaldispersion=GD3BJ int=(grid=ultrafine) opt 
 freq=noraman
 ----------------------------------------------------------------------
 1/18=20,19=15,26=4,38=1/1,3;
 2/9=110,12=2,17=6,18=5,40=1/2;
 3/5=1,6=6,7=101,11=2,25=1,30=1,71=1,74=-5,75=-5,124=41/1,2,3;
 4//1;
 5/5=2,38=5/2;
 6/7=2,8=2,9=2,10=2,28=1/1;
 7//1,2,3,16;
 1/18=20,19=15,26=4/3(2);
 2/9=110/2;
 99//99;
 2/9=110/2;
 3/5=1,6=6,7=101,11=2,25=1,30=1,71=1,74=-5,75=-5,124=41/1,2,3;
 4/5=5,16=3,69=1/1;
 5/5=2,38=5/2;
 7//1,2,3,16;
 1/18=20,19=15,26=4/3(-5);
 2/9=110/2;
 6/7=2,8=2,9=2,10=2,19=2,28=1/1;
 99/9=1/99;
 -------
 Ac4.xyz
 -------
 Symbolic Z-matrix:
 Charge =  0 Multiplicity = 1
 O                    -0.7529    2.9826    0.7659 
 C                    -0.8406    2.0538   -0.2134 
 C                     0.1603    0.9252   -0.1233 
 C                     1.0654    0.8721    0.9538 
 C                     2.021    -0.1391    1.0405 
 C                     2.0974   -1.1131    0.0501 
 C                     1.2082   -1.0769   -1.02 
 C                     0.2343   -0.0819   -1.1076 
 O                    -0.5934   -0.1252   -2.1997 
 C                    -1.8176   -0.814    -1.9762 
 O                    -1.6943    2.1648   -1.0839 
 H                    -1.4444    3.5973    0.5233 
 H                     1.0481    1.6198    1.7361 
 H                     2.7102   -0.1604    1.8728 
 H                     2.8441   -1.8915    0.108 
 H                     1.2659   -1.8258   -1.7951 
 H                    -2.3724   -0.4165   -1.1249 
 H                    -2.4517   -0.7168   -2.8572 
 H                    -1.6439   -1.8777   -1.8064 
 

 GradGradGradGradGradGradGradGradGradGradGradGradGradGradGradGradGradGrad
 Berny optimization.
 Initialization pass.
                           ----------------------------
                           !    Initial Parameters    !
                           ! (Angstroms and Degrees)  !
 --------------------------                            --------------------------
 ! Name  Definition              Value          Derivative Info.                !
 --------------------------------------------------------------------------------
 ! R1    R(1,2)                  1.3525         estimate D2E/DX2                !
 ! R2    R(1,12)                 0.9565         estimate D2E/DX2                !
 ! R3    R(2,3)                  1.5112         estimate D2E/DX2                !
 ! R4    R(2,11)                 1.2243         estimate D2E/DX2                !
 ! R5    R(3,4)                  1.4079         estimate D2E/DX2                !
 ! R6    R(3,8)                  1.4102         estimate D2E/DX2                !
 ! R7    R(4,5)                  1.394          estimate D2E/DX2                !
 ! R8    R(4,13)                 1.0823         estimate D2E/DX2                !
 ! R9    R(5,6)                  1.3912         estimate D2E/DX2                !
 ! R10   R(5,14)                 1.0808         estimate D2E/DX2                !
 ! R11   R(6,7)                  1.3918         estimate D2E/DX2                !
 ! R12   R(6,15)                 1.0802         estimate D2E/DX2                !
 ! R13   R(7,8)                  1.3951         estimate D2E/DX2                !
 ! R14   R(7,16)                 1.0793         estimate D2E/DX2                !
 ! R15   R(8,9)                  1.371          estimate D2E/DX2                !
 ! R16   R(9,10)                 1.4223         estimate D2E/DX2                !
 ! R17   R(10,17)                1.0911         estimate D2E/DX2                !
 ! R18   R(10,18)                1.0898         estimate D2E/DX2                !
 ! R19   R(10,19)                1.0911         estimate D2E/DX2                !
 ! A1    A(2,1,12)             102.1691         estimate D2E/DX2                !
 ! A2    A(1,2,3)              115.2608         estimate D2E/DX2                !
 ! A3    A(1,2,11)             119.8521         estimate D2E/DX2                !
 ! A4    A(3,2,11)             124.8862         estimate D2E/DX2                !
 ! A5    A(2,3,4)              119.972          estimate D2E/DX2                !
 ! A6    A(2,3,8)              121.7698         estimate D2E/DX2                !
 ! A7    A(4,3,8)              118.2507         estimate D2E/DX2                !
 ! A8    A(3,4,5)              121.0403         estimate D2E/DX2                !
 ! A9    A(3,4,13)             121.1082         estimate D2E/DX2                !
 ! A10   A(5,4,13)             117.8491         estimate D2E/DX2                !
 ! A11   A(4,5,6)              120.0818         estimate D2E/DX2                !
 ! A12   A(4,5,14)             119.9548         estimate D2E/DX2                !
 ! A13   A(6,5,14)             119.9602         estimate D2E/DX2                !
 ! A14   A(5,6,7)              119.6081         estimate D2E/DX2                !
 ! A15   A(5,6,15)             120.2861         estimate D2E/DX2                !
 ! A16   A(7,6,15)             120.1055         estimate D2E/DX2                !
 ! A17   A(6,7,8)              120.8533         estimate D2E/DX2                !
 ! A18   A(6,7,16)             119.9961         estimate D2E/DX2                !
 ! A19   A(8,7,16)             119.1506         estimate D2E/DX2                !
 ! A20   A(3,8,7)              120.144          estimate D2E/DX2                !
 ! A21   A(3,8,9)              123.1534         estimate D2E/DX2                !
 ! A22   A(7,8,9)              116.6767         estimate D2E/DX2                !
 ! A23   A(8,9,10)             114.1886         estimate D2E/DX2                !
 ! A24   A(9,10,17)            112.5701         estimate D2E/DX2                !
 ! A25   A(9,10,18)            109.3033         estimate D2E/DX2                !
 ! A26   A(9,10,19)            111.0725         estimate D2E/DX2                !
 ! A27   A(17,10,18)           107.6005         estimate D2E/DX2                !
 ! A28   A(17,10,19)           108.3423         estimate D2E/DX2                !
 ! A29   A(18,10,19)           107.7815         estimate D2E/DX2                !
 ! D1    D(12,1,2,3)           179.1692         estimate D2E/DX2                !
 ! D2    D(12,1,2,11)           -1.171          estimate D2E/DX2                !
 ! D3    D(1,2,3,4)              2.1214         estimate D2E/DX2                !
 ! D4    D(1,2,3,8)           -176.8633         estimate D2E/DX2                !
 ! D5    D(11,2,3,4)          -177.5189         estimate D2E/DX2                !
 ! D6    D(11,2,3,8)             3.4963         estimate D2E/DX2                !
 ! D7    D(2,3,4,5)           -178.2967         estimate D2E/DX2                !
 ! D8    D(2,3,4,13)             1.1202         estimate D2E/DX2                !
 ! D9    D(8,3,4,5)              0.7235         estimate D2E/DX2                !
 ! D10   D(8,3,4,13)          -179.8597         estimate D2E/DX2                !
 ! D11   D(2,3,8,7)            177.3152         estimate D2E/DX2                !
 ! D12   D(2,3,8,9)             -0.7685         estimate D2E/DX2                !
 ! D13   D(4,3,8,7)             -1.6864         estimate D2E/DX2                !
 ! D14   D(4,3,8,9)           -179.7701         estimate D2E/DX2                !
 ! D15   D(3,4,5,6)              0.3672         estimate D2E/DX2                !
 ! D16   D(3,4,5,14)           179.7196         estimate D2E/DX2                !
 ! D17   D(13,4,5,6)          -179.0681         estimate D2E/DX2                !
 ! D18   D(13,4,5,14)            0.2843         estimate D2E/DX2                !
 ! D19   D(4,5,6,7)             -0.5019         estimate D2E/DX2                !
 ! D20   D(4,5,6,15)           179.2826         estimate D2E/DX2                !
 ! D21   D(14,5,6,7)          -179.8542         estimate D2E/DX2                !
 ! D22   D(14,5,6,15)           -0.0698         estimate D2E/DX2                !
 ! D23   D(5,6,7,8)             -0.4762         estimate D2E/DX2                !
 ! D24   D(5,6,7,16)           179.6138         estimate D2E/DX2                !
 ! D25   D(15,6,7,8)           179.7389         estimate D2E/DX2                !
 ! D26   D(15,6,7,16)           -0.1711         estimate D2E/DX2                !
 ! D27   D(6,7,8,3)              1.5901         estimate D2E/DX2                !
 ! D28   D(6,7,8,9)            179.7947         estimate D2E/DX2                !
 ! D29   D(16,7,8,3)          -178.4991         estimate D2E/DX2                !
 ! D30   D(16,7,8,9)            -0.2945         estimate D2E/DX2                !
 ! D31   D(3,8,9,10)           -87.5178         estimate D2E/DX2                !
 ! D32   D(7,8,9,10)            94.3367         estimate D2E/DX2                !
 ! D33   D(8,9,10,17)           54.9878         estimate D2E/DX2                !
 ! D34   D(8,9,10,18)          174.496          estimate D2E/DX2                !
 ! D35   D(8,9,10,19)          -66.7057         estimate D2E/DX2                !
 --------------------------------------------------------------------------------
 Trust Radius=3.00D-01 FncErr=1.00D-07 GrdErr=1.00D-06 EigMax=2.50D+02 EigMin=1.00D-04
 Number of steps in this run=     93 maximum allowed number of steps=    114.
 GradGradGradGradGradGradGradGradGradGradGradGradGradGradGradGradGradGrad

                          Input orientation:                          
 ---------------------------------------------------------------------
 Center     Atomic      Atomic             Coordinates (Angstroms)
 Number     Number       Type             X           Y           Z
 ---------------------------------------------------------------------
      1          8           0       -0.752900    2.982600    0.765900
      2          6           0       -0.840600    2.053800   -0.213400
      3          6           0        0.160300    0.925200   -0.123300
      4          6           0        1.065400    0.872100    0.953800
      5          6           0        2.021000   -0.139100    1.040500
      6          6           0        2.097400   -1.113100    0.050100
      7          6           0        1.208200   -1.076900   -1.020000
      8          6           0        0.234300   -0.081900   -1.107600
      9          8           0       -0.593400   -0.125200   -2.199700
     10          6           0       -1.817600   -0.814000   -1.976200
     11          8           0       -1.694300    2.164800   -1.083900
     12          1           0       -1.444400    3.597300    0.523300
     13          1           0        1.048100    1.619800    1.736100
     14          1           0        2.710200   -0.160400    1.872800
     15          1           0        2.844100   -1.891500    0.108000
     16          1           0        1.265900   -1.825800   -1.795100
     17          1           0       -2.372400   -0.416500   -1.124900
     18          1           0       -2.451700   -0.716800   -2.857200
     19          1           0       -1.643900   -1.877700   -1.806400
 ---------------------------------------------------------------------
                    Distance matrix (angstroms):
                    1          2          3          4          5
     1  O    0.000000
     2  C    1.352549   0.000000
     3  C    2.420228   1.511177   0.000000
     4  C    2.792084   2.528163   1.407896   0.000000
     5  C    4.185085   3.817045   2.439133   1.393992   0.000000
     6  C    5.040966   4.327878   2.817284   2.413031   1.391188
     7  C    4.849216   3.827462   2.431166   2.777567   2.405363
     8  C    3.725014   2.552688   1.410168   2.418721   2.794620
     9  O    4.298679   2.958807   2.445985   3.700106   4.163433
    10  C    4.802798   3.505178   3.220271   4.442918   4.928572
    11  O    2.230872   1.224294   2.428765   3.665957   4.860503
    12  H    0.956495   1.813751   3.183280   3.729764   5.122224
    13  H    2.458071   2.748835   2.174403   1.082288   2.126999
    14  H    4.805907   4.675799   3.415396   2.148484   1.080821
    15  H    6.093283   5.407930   3.897445   3.393617   2.148943
    16  H    5.809904   4.689394   3.403714   3.856853   3.384636
    17  H    4.213287   3.046248   3.036105   4.218999   4.905902
    18  H    5.449618   4.154702   4.122247   5.423865   5.960776
    19  H    5.570738   4.317364   3.734195   4.745567   4.955710
                    6          7          8          9         10
     6  C    0.000000
     7  C    1.391798   0.000000
     8  C    2.423795   1.395056   0.000000
     9  O    3.643892   2.354397   1.371001   0.000000
    10  C    4.418436   3.184164   2.345364   1.422344   0.000000
    11  O    5.138830   4.351690   2.961034   2.775084   3.112017
    12  H    5.912371   5.591619   4.360548   4.689983   5.083930
    13  H    3.378220   3.859263   3.412431   4.607610   5.283634
    14  H    2.146019   3.385893   3.875439   5.244070   5.978542
    15  H    1.080194   2.147586   3.400499   4.501300   5.218845
    16  H    2.145716   1.079333   2.139636   2.552007   3.250309
    17  H    4.673862   3.642503   2.628144   2.098783   1.091110
    18  H    5.413295   4.110942   3.267842   2.058051   1.089813
    19  H    4.246002   3.064993   2.690884   2.080743   1.091083
                   11         12         13         14         15
    11  O    0.000000
    12  H    2.167394   0.000000
    13  H    3.971169   3.404988   0.000000
    14  H    5.792085   5.762132   2.439339   0.000000
    15  H    6.202521   6.977867   4.266797   2.475713   0.000000
    16  H    5.019310   6.490818   4.938519   4.279375   2.473221
    17  H    2.669197   4.437154   4.902210   5.906320   5.559455
    18  H    3.467256   5.572602   6.229503   7.023368   6.182057
    19  H    4.106867   5.953396   5.659388   5.953471   4.879269
                   16         17         18         19
    16  H    0.000000
    17  H    3.958854   0.000000
    18  H    4.022249   1.759924   0.000000
    19  H    2.910285   1.769254   1.761934   0.000000
 Stoichiometry    C8H8O3
 Framework group  C1[X(C8H8O3)]
 Deg. of freedom    51
 Full point group                 C1      NOp   1
 Largest Abelian subgroup         C1      NOp   1
 Largest concise Abelian subgroup C1      NOp   1
                         Standard orientation:                         
 ---------------------------------------------------------------------
 Center     Atomic      Atomic             Coordinates (Angstroms)
 Number     Number       Type             X           Y           Z
 ---------------------------------------------------------------------
      1          8           0        2.048210   -1.983116    0.075798
      2          6           0        1.610385   -0.713574   -0.085328
      3          6           0        0.109949   -0.538666   -0.043421
      4          6           0       -0.721184   -1.649285    0.197230
      5          6           0       -2.109138   -1.519964    0.205728
      6          6           0       -2.695533   -0.281254   -0.033319
      7          6           0       -1.888247    0.827505   -0.270057
      8          6           0       -0.497757    0.715088   -0.261064
      9          8           0        0.213977    1.860377   -0.508838
     10          6           0        0.613663    2.562852    0.661565
     11          8           0        2.416963    0.193712   -0.243938
     12          1           0        2.996490   -1.879856    0.005187
     13          1           0       -0.303933   -2.632446    0.372284
     14          1           0       -2.730663   -2.385235    0.387902
     15          1           0       -3.770919   -0.179602   -0.038957
     16          1           0       -2.336643    1.790263   -0.462405
     17          1           0        1.177911    1.936156    1.353951
     18          1           0        1.252313    3.399531    0.379103
     19          1           0       -0.250584    2.967190    1.190762
 ---------------------------------------------------------------------
 Rotational constants (GHZ):           1.4705588           1.1325713           0.6686119
 Standard basis: 6-31G(d,p) (6D, 7F)
 There are   205 symmetry adapted cartesian basis functions of A   symmetry.
 There are   205 symmetry adapted basis functions of A   symmetry.
   205 basis functions,   364 primitive gaussians,   205 cartesian basis functions
    40 alpha electrons       40 beta electrons
       nuclear repulsion energy       596.3048817362 Hartrees.
 NAtoms=   19 NActive=   19 NUniq=   19 SFac= 1.00D+00 NAtFMM=   60 NAOKFM=F Big=F
 Integral buffers will be    131072 words long.
 Raffenetti 2 integral format.
 Two-electron integral symmetry is turned on.
 Nuclear repulsion after empirical dispersion term =      596.2707298404 Hartrees.
 One-electron integrals computed using PRISM.
 NBasis=   205 RedAO= T EigKep=  3.87D-04  NBF=   205
 NBsUse=   205 1.00D-06 EigRej= -1.00D+00 NBFU=   205
 ExpMin= 1.61D-01 ExpMax= 5.48D+03 ExpMxC= 8.25D+02 IAcc=3 IRadAn=         5 AccDes= 0.00D+00
 Harris functional with IExCor=  402 and IRadAn=       5 diagonalized for initial guess.
 HarFok:  IExCor=  402 AccDes= 0.00D+00 IRadAn=         5 IDoV= 1 UseB2=F ITyADJ=14
 ICtDFT=  3500011 ScaDFX=  1.000000  1.000000  1.000000  1.000000
 FoFCou: FMM=F IPFlag=           0 FMFlag=      100000 FMFlg1=           0
         NFxFlg=           0 DoJE=T BraDBF=F KetDBF=T FulRan=T
         wScrn=  0.000000 ICntrl=       500 IOpCl=  0 I1Cent=   200000004 NGrid=           0
         NMat0=    1 NMatS0=      1 NMatT0=    0 NMatD0=    1 NMtDS0=    0 NMtDT0=    0
 Petite list used in FoFCou.
 Requested convergence on RMS density matrix=1.00D-08 within 128 cycles.
 Requested convergence on MAX density matrix=1.00D-06.
 Requested convergence on             energy=1.00D-06.
 No special actions if energy rises.
 Integral accuracy reduced to 1.0D-05 until final iterations.
 Initial convergence to 1.0D-05 achieved.  Increase integral accuracy.
 SCF Done:  E(RB3LYP) =  -535.381173684     A.U. after   15 cycles
            NFock= 15  Conv=0.40D-08     -V/T= 2.0092

 **********************************************************************

            Population analysis using the SCF Density.

 **********************************************************************

 Orbital symmetries:
       Occupied  (A) (A) (A) (A) (A) (A) (A) (A) (A) (A) (A) (A)
                 (A) (A) (A) (A) (A) (A) (A) (A) (A) (A) (A) (A)
                 (A) (A) (A) (A) (A) (A) (A) (A) (A) (A) (A) (A)
                 (A) (A) (A) (A)
       Virtual   (A) (A) (A) (A) (A) (A) (A) (A) (A) (A) (A) (A)
                 (A) (A) (A) (A) (A) (A) (A) (A) (A) (A) (A) (A)
                 (A) (A) (A) (A) (A) (A) (A) (A) (A) (A) (A) (A)
                 (A) (A) (A) (A) (A) (A) (A) (A) (A) (A) (A) (A)
                 (A) (A) (A) (A) (A) (A) (A) (A) (A) (A) (A) (A)
                 (A) (A) (A) (A) (A) (A) (A) (A) (A) (A) (A) (A)
                 (A) (A) (A) (A) (A) (A) (A) (A) (A) (A) (A) (A)
                 (A) (A) (A) (A) (A) (A) (A) (A) (A) (A) (A) (A)
                 (A) (A) (A) (A) (A) (A) (A) (A) (A) (A) (A) (A)
                 (A) (A) (A) (A) (A) (A) (A) (A) (A) (A) (A) (A)
                 (A) (A) (A) (A) (A) (A) (A) (A) (A) (A) (A) (A)
                 (A) (A) (A) (A) (A) (A) (A) (A) (A) (A) (A) (A)
                 (A) (A) (A) (A) (A) (A) (A) (A) (A) (A) (A) (A)
                 (A) (A) (A) (A) (A) (A) (A) (A) (A)
 The electronic state is 1-A.
 Alpha  occ. eigenvalues --  -19.19591 -19.16132 -19.13320 -10.32399 -10.25744
 Alpha  occ. eigenvalues --  -10.22845 -10.21501 -10.20604 -10.20493 -10.19771
 Alpha  occ. eigenvalues --  -10.19612  -1.10906  -1.05274  -1.00534  -0.86363
 Alpha  occ. eigenvalues --   -0.77290  -0.75660  -0.69252  -0.65593  -0.61758
 Alpha  occ. eigenvalues --   -0.58343  -0.53336  -0.50425  -0.48181  -0.47742
 Alpha  occ. eigenvalues --   -0.46540  -0.46116  -0.44205  -0.44051  -0.42538
 Alpha  occ. eigenvalues --   -0.40185  -0.37942  -0.37130  -0.36659  -0.33904
 Alpha  occ. eigenvalues --   -0.31574  -0.28205  -0.26560  -0.25824  -0.24842
 Alpha virt. eigenvalues --   -0.04841  -0.00808   0.05379   0.08129   0.09852
 Alpha virt. eigenvalues --    0.12073   0.13593   0.14504   0.16013   0.16657
 Alpha virt. eigenvalues --    0.17718   0.18330   0.19005   0.22613   0.25246
 Alpha virt. eigenvalues --    0.26868   0.29355   0.32818   0.34048   0.36554
 Alpha virt. eigenvalues --    0.39736   0.49081   0.49818   0.50454   0.52061
 Alpha virt. eigenvalues --    0.53636   0.54565   0.55694   0.56004   0.57192
 Alpha virt. eigenvalues --    0.58101   0.59705   0.60258   0.60812   0.62901
 Alpha virt. eigenvalues --    0.63431   0.65582   0.67140   0.69260   0.71886
 Alpha virt. eigenvalues --    0.74133   0.78409   0.79277   0.80339   0.80686
 Alpha virt. eigenvalues --    0.82784   0.84273   0.84833   0.86174   0.87325
 Alpha virt. eigenvalues --    0.89725   0.90751   0.91941   0.94055   0.96526
 Alpha virt. eigenvalues --    0.98500   1.00842   1.01563   1.04488   1.05868
 Alpha virt. eigenvalues --    1.09428   1.10009   1.12282   1.16531   1.21680
 Alpha virt. eigenvalues --    1.22845   1.26319   1.27406   1.29866   1.30778
 Alpha virt. eigenvalues --    1.33915   1.35164   1.38015   1.39263   1.40202
 Alpha virt. eigenvalues --    1.42185   1.43008   1.44515   1.51164   1.53649
 Alpha virt. eigenvalues --    1.56501   1.63041   1.67466   1.68771   1.73344
 Alpha virt. eigenvalues --    1.74984   1.78316   1.79368   1.84132   1.84373
 Alpha virt. eigenvalues --    1.87452   1.88145   1.89731   1.92446   1.93527
 Alpha virt. eigenvalues --    1.94386   1.96075   1.96933   1.99169   1.99292
 Alpha virt. eigenvalues --    2.00693   2.03414   2.05030   2.05979   2.07994
 Alpha virt. eigenvalues --    2.09977   2.11047   2.23209   2.27038   2.28058
 Alpha virt. eigenvalues --    2.29003   2.29727   2.34327   2.37547   2.38127
 Alpha virt. eigenvalues --    2.39594   2.39931   2.46176   2.46926   2.47759
 Alpha virt. eigenvalues --    2.51101   2.52242   2.54367   2.54947   2.55776
 Alpha virt. eigenvalues --    2.57779   2.59467   2.63592   2.65263   2.66532
 Alpha virt. eigenvalues --    2.68529   2.70934   2.72617   2.76150   2.78653
 Alpha virt. eigenvalues --    2.82447   2.87311   2.87713   2.88764   2.96774
 Alpha virt. eigenvalues --    3.04084   3.06008   3.11807   3.14044   3.20132
 Alpha virt. eigenvalues --    3.21386   3.24313   3.33811   3.37390   3.43413
 Alpha virt. eigenvalues --    3.45343   3.46870   3.47854   3.84951   3.91998
 Alpha virt. eigenvalues --    4.08855   4.10189   4.13805   4.22122   4.32569
 Alpha virt. eigenvalues --    4.42988   4.45529   4.50503   4.62369   4.84752
          Condensed to atoms (all electrons):
               1          2          3          4          5          6
     1  O    8.113132   0.272230  -0.088100   0.001753   0.000306  -0.000002
     2  C    0.272230   4.446144   0.290133  -0.047721   0.004795  -0.000311
     3  C   -0.088100   0.290133   5.123789   0.453951  -0.019863  -0.033473
     4  C    0.001753  -0.047721   0.453951   4.971104   0.503552  -0.028082
     5  C    0.000306   0.004795  -0.019863   0.503552   4.843793   0.531462
     6  C   -0.000002  -0.000311  -0.033473  -0.028082   0.531462   4.850852
     7  C   -0.000046   0.007821  -0.060193  -0.048439  -0.030044   0.483304
     8  C    0.001650  -0.044367   0.447302  -0.028231  -0.042825  -0.012685
     9  O    0.000018  -0.005078  -0.065133   0.004594  -0.000119   0.005411
    10  C    0.000016  -0.000209  -0.005333  -0.000020   0.000035  -0.000185
    11  O   -0.094845   0.543688  -0.072369   0.003737  -0.000053  -0.000011
    12  H    0.276030  -0.015813   0.012346  -0.000857   0.000006   0.000001
    13  H    0.007256  -0.008700  -0.032977   0.370763  -0.041367   0.004895
    14  H   -0.000001  -0.000117   0.003729  -0.036723   0.370910  -0.041653
    15  H    0.000000   0.000006   0.000580   0.004631  -0.040872   0.365337
    16  H    0.000000  -0.000105   0.006714   0.000364   0.005099  -0.042656
    17  H   -0.000045   0.001465   0.005242  -0.000512   0.000001   0.000072
    18  H    0.000000  -0.000186   0.000124   0.000009  -0.000001   0.000010
    19  H    0.000000   0.000244  -0.001130  -0.000017   0.000005  -0.000530
               7          8          9         10         11         12
     1  O   -0.000046   0.001650   0.000018   0.000016  -0.094845   0.276030
     2  C    0.007821  -0.044367  -0.005078  -0.000209   0.543688  -0.015813
     3  C   -0.060193   0.447302  -0.065133  -0.005333  -0.072369   0.012346
     4  C   -0.048439  -0.028231   0.004594  -0.000020   0.003737  -0.000857
     5  C   -0.030044  -0.042825  -0.000119   0.000035  -0.000053   0.000006
     6  C    0.483304  -0.012685   0.005411  -0.000185  -0.000011   0.000001
     7  C    4.974516   0.501672  -0.067398  -0.005841   0.000321   0.000003
     8  C    0.501672   4.690180   0.264882  -0.032107  -0.004449  -0.000004
     9  O   -0.067398   0.264882   8.228584   0.259800  -0.005489   0.000012
    10  C   -0.005841  -0.032107   0.259800   4.715386   0.000640   0.000000
    11  O    0.000321  -0.004449  -0.005489   0.000640   8.088275   0.013245
    12  H    0.000003  -0.000004   0.000012   0.000000   0.013245   0.394338
    13  H    0.000383   0.003560  -0.000043  -0.000002   0.000139  -0.000216
    14  H    0.004595   0.000786   0.000002   0.000000   0.000000  -0.000000
    15  H   -0.033633   0.003798  -0.000076  -0.000002  -0.000000   0.000000
    16  H    0.361617  -0.034882  -0.001633   0.000249   0.000006  -0.000000
    17  H    0.000048  -0.003530  -0.036934   0.372255   0.005273  -0.000016
    18  H   -0.000083   0.003018  -0.027649   0.392939  -0.000042  -0.000000
    19  H    0.005521  -0.000377  -0.041884   0.369633   0.000178   0.000000
              13         14         15         16         17         18
     1  O    0.007256  -0.000001   0.000000   0.000000  -0.000045   0.000000
     2  C   -0.008700  -0.000117   0.000006  -0.000105   0.001465  -0.000186
     3  C   -0.032977   0.003729   0.000580   0.006714   0.005242   0.000124
     4  C    0.370763  -0.036723   0.004631   0.000364  -0.000512   0.000009
     5  C   -0.041367   0.370910  -0.040872   0.005099   0.000001  -0.000001
     6  C    0.004895  -0.041653   0.365337  -0.042656   0.000072   0.000010
     7  C    0.000383   0.004595  -0.033633   0.361617   0.000048  -0.000083
     8  C    0.003560   0.000786   0.003798  -0.034882  -0.003530   0.003018
     9  O   -0.000043   0.000002  -0.000076  -0.001633  -0.036934  -0.027649
    10  C   -0.000002   0.000000  -0.000002   0.000249   0.372255   0.392939
    11  O    0.000139   0.000000  -0.000000   0.000006   0.005273  -0.000042
    12  H   -0.000216  -0.000000   0.000000  -0.000000  -0.000016  -0.000000
    13  H    0.584541  -0.006083  -0.000203   0.000014   0.000007  -0.000000
    14  H   -0.006083   0.619000  -0.005778  -0.000185   0.000000  -0.000000
    15  H   -0.000203  -0.005778   0.616393  -0.006516  -0.000001  -0.000000
    16  H    0.000014  -0.000185  -0.006516   0.612250   0.000211  -0.000103
    17  H    0.000007   0.000000  -0.000001   0.000211   0.626436  -0.032387
    18  H   -0.000000  -0.000000  -0.000000  -0.000103  -0.032387   0.580627
    19  H   -0.000001   0.000000   0.000009   0.000561  -0.049835  -0.039175
              19
     1  O    0.000000
     2  C    0.000244
     3  C   -0.001130
     4  C   -0.000017
     5  C    0.000005
     6  C   -0.000530
     7  C    0.005521
     8  C   -0.000377
     9  O   -0.041884
    10  C    0.369633
    11  O    0.000178
    12  H    0.000000
    13  H   -0.000001
    14  H    0.000000
    15  H    0.000009
    16  H    0.000561
    17  H   -0.049835
    18  H   -0.039175
    19  H    0.663820
 Mulliken charges:
               1
     1  O   -0.489354
     2  C    0.556081
     3  C    0.034662
     4  C   -0.123857
     5  C   -0.084819
     6  C   -0.081754
     7  C   -0.094123
     8  C    0.286609
     9  O   -0.511868
    10  C   -0.067254
    11  O   -0.478245
    12  H    0.320926
    13  H    0.118032
    14  H    0.091517
    15  H    0.096326
    16  H    0.098995
    17  H    0.112250
    18  H    0.122900
    19  H    0.092976
 Sum of Mulliken charges =  -0.00000
 Mulliken charges with hydrogens summed into heavy atoms:
               1
     1  O   -0.168428
     2  C    0.556081
     3  C    0.034662
     4  C   -0.005825
     5  C    0.006698
     6  C    0.014572
     7  C    0.004872
     8  C    0.286609
     9  O   -0.511868
    10  C    0.260872
    11  O   -0.478245
 Electronic spatial extent (au):  <R**2>=           1666.2537
 Charge=             -0.0000 electrons
 Dipole moment (field-independent basis, Debye):
    X=             -1.5805    Y=             -0.8916    Z=              1.4690  Tot=              2.3347
 Quadrupole moment (field-independent basis, Debye-Ang):
   XX=            -56.1214   YY=            -57.2898   ZZ=            -64.4479
   XY=             -3.4102   XZ=              1.4904   YZ=              2.5852
 Traceless Quadrupole moment (field-independent basis, Debye-Ang):
   XX=              3.1650   YY=              1.9966   ZZ=             -5.1616
   XY=             -3.4102   XZ=              1.4904   YZ=              2.5852
 Octapole moment (field-independent basis, Debye-Ang**2):
  XXX=             11.8602  YYY=              8.9219  ZZZ=             -1.9431  XYY=              9.1143
  XXY=            -18.4255  XXZ=              1.5941  XZZ=             11.3571  YZZ=              1.2784
  YYZ=              7.3160  XYZ=              4.8669
 Hexadecapole moment (field-independent basis, Debye-Ang**3):
 XXXX=           -985.3522 YYYY=           -838.6874 ZZZZ=           -108.7565 XXXY=            -80.4552
 XXXZ=              4.6383 YYYX=              6.6318 YYYZ=              6.1213 ZZZX=             -1.1026
 ZZZY=             -0.8983 XXYY=           -285.9333 XXZZ=           -212.3418 YYZZ=           -171.1259
 XXYZ=             -3.0276 YYXZ=             -0.8971 ZZXY=             -7.2395
 N-N= 5.962707298404D+02 E-N=-2.442090048542D+03  KE= 5.305197908600D+02
 Calling FoFJK, ICntrl=      2127 FMM=F ISym2X=0 I1Cent= 0 IOpClX= 0 NMat=1 NMatS=1 NMatT=0.
 ***** Axes restored to original set *****
 -------------------------------------------------------------------
 Center     Atomic                   Forces (Hartrees/Bohr)
 Number     Number              X              Y              Z
 -------------------------------------------------------------------
      1        8           0.015999423   -0.012386687    0.005134000
      2        6          -0.005333125   -0.015031688   -0.016997565
      3        6          -0.006191034    0.013969411    0.008228852
      4        6           0.004013109   -0.003469126   -0.001261246
      5        6          -0.002603659    0.002990185    0.000425988
      6        6          -0.002995822    0.002876220   -0.002247533
      7        6           0.003592401   -0.000807389    0.005529838
      8        6          -0.001922207   -0.002714716   -0.005429027
      9        8          -0.000710565    0.003712274   -0.000685622
     10        6          -0.006230152   -0.002455565    0.001694526
     11        8           0.008360928   -0.002245636    0.008774357
     12        1          -0.011015448    0.012887077   -0.000302205
     13        1          -0.004036090    0.003221276   -0.001848414
     14        1           0.001368598    0.000567554    0.002788298
     15        1           0.002473673   -0.002867681   -0.000151052
     16        1          -0.002322616   -0.001291009   -0.003926665
     17        1           0.000953782    0.003931693    0.002348009
     18        1           0.003756658    0.003875070   -0.003430047
     19        1           0.002842145   -0.004761264    0.001355508
 -------------------------------------------------------------------
 Cartesian Forces:  Max     0.016997565 RMS     0.006079950

 GradGradGradGradGradGradGradGradGradGradGradGradGradGradGradGradGradGrad
 Berny optimization.
 FormGI is forming the generalized inverse of G from B-inverse, IUseBI=4.
 Internal  Forces:  Max     0.017633903 RMS     0.004388173
 Search for a local minimum.
 Step number   1 out of a maximum of   93
 All quantities printed in internal units (Hartrees-Bohrs-Radians)
 Mixed Optimization -- RFO/linear search
 Second derivative matrix not updated -- first step.
 ITU=  0
     Eigenvalues ---    0.00618   0.01144   0.01396   0.01554   0.01995
     Eigenvalues ---    0.02052   0.02075   0.02075   0.02131   0.02174
     Eigenvalues ---    0.02186   0.02191   0.02201   0.02319   0.09921
     Eigenvalues ---    0.10278   0.15999   0.15999   0.16000   0.16000
     Eigenvalues ---    0.16000   0.16000   0.16000   0.16000   0.22000
     Eigenvalues ---    0.22484   0.24468   0.24986   0.24996   0.25000
     Eigenvalues ---    0.25000   0.25000   0.31232   0.34685   0.34688
     Eigenvalues ---    0.34834   0.35719   0.35895   0.35971   0.36075
     Eigenvalues ---    0.41318   0.41746   0.42109   0.44840   0.46007
     Eigenvalues ---    0.46539   0.46972   0.50785   0.54483   0.56234
     Eigenvalues ---    0.93506
 RFO step:  Lambda=-6.82607265D-03 EMin= 6.18093503D-03
 Linear search not attempted -- first point.
 Iteration  1 RMS(Cart)=  0.10232271 RMS(Int)=  0.00459043
 Iteration  2 RMS(Cart)=  0.00618450 RMS(Int)=  0.00017969
 Iteration  3 RMS(Cart)=  0.00002958 RMS(Int)=  0.00017861
 Iteration  4 RMS(Cart)=  0.00000001 RMS(Int)=  0.00017861
 Variable       Old X    -DE/DX   Delta X   Delta X   Delta X     New X
                                 (Linear)    (Quad)   (Total)
    R1        2.55595   0.00417   0.00000   0.00755   0.00755   2.56350
    R2        1.80751   0.01632   0.00000   0.02868   0.02868   1.83619
    R3        2.85571  -0.01763   0.00000  -0.05525  -0.05525   2.80046
    R4        2.31358  -0.01227   0.00000  -0.01303  -0.01303   2.30055
    R5        2.66054  -0.00456   0.00000  -0.01079  -0.01080   2.64974
    R6        2.66483  -0.00081   0.00000  -0.00219  -0.00222   2.66261
    R7        2.63426  -0.00239   0.00000  -0.00530  -0.00529   2.62898
    R8        2.04523   0.00095   0.00000   0.00262   0.00262   2.04785
    R9        2.62897   0.00460   0.00000   0.00999   0.01002   2.63898
   R10        2.04246   0.00301   0.00000   0.00823   0.00823   2.05068
   R11        2.63012   0.00157   0.00000   0.00392   0.00393   2.63404
   R12        2.04127   0.00377   0.00000   0.01028   0.01028   2.05155
   R13        2.63627   0.00118   0.00000   0.00276   0.00274   2.63901
   R14        2.03964   0.00359   0.00000   0.00977   0.00977   2.04942
   R15        2.59082  -0.00153   0.00000  -0.00297  -0.00297   2.58785
   R16        2.68784  -0.00112   0.00000  -0.00261  -0.00261   2.68524
   R17        2.06190   0.00278   0.00000   0.00786   0.00786   2.06976
   R18        2.05945   0.00093   0.00000   0.00263   0.00263   2.06207
   R19        2.06185   0.00531   0.00000   0.01500   0.01500   2.07685
    A1        1.78319   0.00828   0.00000   0.04961   0.04961   1.83280
    A2        2.01168  -0.01425   0.00000  -0.05548  -0.05548   1.95620
    A3        2.09181   0.00814   0.00000   0.03168   0.03167   2.12349
    A4        2.17967   0.00611   0.00000   0.02378   0.02377   2.20345
    A5        2.09391  -0.00278   0.00000  -0.00997  -0.00993   2.08397
    A6        2.12528  -0.00088   0.00000  -0.00256  -0.00253   2.12276
    A7        2.06386   0.00367   0.00000   0.01271   0.01258   2.07644
    A8        2.11255   0.00052   0.00000   0.00074   0.00063   2.11318
    A9        2.11374  -0.00578   0.00000  -0.03341  -0.03342   2.08032
   A10        2.05685   0.00527   0.00000   0.03282   0.03281   2.08966
   A11        2.09582  -0.00185   0.00000  -0.00764  -0.00767   2.08816
   A12        2.09361  -0.00002   0.00000  -0.00182  -0.00182   2.09179
   A13        2.09370   0.00188   0.00000   0.00954   0.00954   2.10324
   A14        2.08755   0.00077   0.00000   0.00575   0.00572   2.09327
   A15        2.09939   0.00003   0.00000  -0.00040  -0.00038   2.09900
   A16        2.09624  -0.00080   0.00000  -0.00536  -0.00535   2.09089
   A17        2.10929  -0.00117   0.00000  -0.00306  -0.00320   2.10608
   A18        2.09433   0.00374   0.00000   0.02042   0.02039   2.11471
   A19        2.07957  -0.00256   0.00000  -0.01733  -0.01736   2.06221
   A20        2.09691  -0.00190   0.00000  -0.00757  -0.00775   2.08916
   A21        2.14943  -0.00413   0.00000  -0.01629  -0.01629   2.13315
   A22        2.03639   0.00602   0.00000   0.02325   0.02322   2.05961
   A23        1.99297   0.00115   0.00000   0.00447   0.00447   1.99744
   A24        1.96472  -0.00363   0.00000  -0.02234  -0.02274   1.94198
   A25        1.90770  -0.00828   0.00000  -0.05177  -0.05223   1.85547
   A26        1.93858   0.00015   0.00000   0.00362   0.00350   1.94208
   A27        1.87798   0.00430   0.00000   0.02059   0.01983   1.89781
   A28        1.89093   0.00334   0.00000   0.02376   0.02367   1.91460
   A29        1.88114   0.00470   0.00000   0.02944   0.02928   1.91042
    D1        3.12709   0.00036   0.00000   0.01274   0.01274   3.13983
    D2       -0.02044   0.00027   0.00000   0.00818   0.00817  -0.01226
    D3        0.03703   0.00093   0.00000   0.06633   0.06626   0.10329
    D4       -3.08685   0.00061   0.00000   0.05407   0.05414  -3.03271
    D5       -3.09829   0.00102   0.00000   0.07114   0.07107  -3.02722
    D6        0.06102   0.00070   0.00000   0.05888   0.05895   0.11997
    D7       -3.11186  -0.00101   0.00000  -0.03846  -0.03849   3.13284
    D8        0.01955  -0.00048   0.00000  -0.02048  -0.02083  -0.00128
    D9        0.01263  -0.00075   0.00000  -0.02677  -0.02683  -0.01420
   D10       -3.13914  -0.00022   0.00000  -0.00879  -0.00917   3.13487
   D11        3.09473   0.00137   0.00000   0.05230   0.05228  -3.13617
   D12       -0.01341   0.00188   0.00000   0.07434   0.07412   0.06071
   D13       -0.02943   0.00112   0.00000   0.04047   0.04043   0.01099
   D14       -3.13758   0.00162   0.00000   0.06250   0.06227  -3.07531
   D15        0.00641   0.00012   0.00000   0.00363   0.00357   0.00998
   D16        3.13670   0.00035   0.00000   0.01221   0.01221  -3.13428
   D17       -3.12533  -0.00034   0.00000  -0.01342  -0.01380  -3.13913
   D18        0.00496  -0.00010   0.00000  -0.00483  -0.00517  -0.00021
   D19       -0.00876   0.00019   0.00000   0.00637   0.00628  -0.00248
   D20        3.12907   0.00008   0.00000   0.00345   0.00342   3.13249
   D21       -3.13905  -0.00003   0.00000  -0.00214  -0.00234  -3.14139
   D22       -0.00122  -0.00014   0.00000  -0.00507  -0.00520  -0.00642
   D23       -0.00831   0.00019   0.00000   0.00766   0.00778  -0.00053
   D24        3.13485  -0.00045   0.00000  -0.01458  -0.01470   3.12015
   D25        3.13704   0.00030   0.00000   0.01057   0.01061  -3.13554
   D26       -0.00299  -0.00034   0.00000  -0.01167  -0.01187  -0.01485
   D27        0.02775  -0.00092   0.00000  -0.03177  -0.03155  -0.00380
   D28        3.13801  -0.00157   0.00000  -0.05312  -0.05319   3.08482
   D29       -3.11540  -0.00027   0.00000  -0.00968  -0.00970  -3.12510
   D30       -0.00514  -0.00092   0.00000  -0.03103  -0.03134  -0.03648
   D31       -1.52747   0.00279   0.00000   0.10143   0.10135  -1.42613
   D32        1.64649   0.00341   0.00000   0.12328   0.12337   1.76985
   D33        0.95972   0.00207   0.00000   0.04342   0.04285   1.00257
   D34        3.04553  -0.00044   0.00000   0.02007   0.02058   3.06611
   D35       -1.16423   0.00022   0.00000   0.02587   0.02593  -1.13830
         Item               Value     Threshold  Converged?
 Maximum Force            0.017634     0.000450     NO 
 RMS     Force            0.004388     0.000300     NO 
 Maximum Displacement     0.443078     0.001800     NO 
 RMS     Displacement     0.104522     0.001200     NO 
 Predicted change in Energy=-3.712242D-03
 GradGradGradGradGradGradGradGradGradGradGradGradGradGradGradGradGradGrad

                          Input orientation:                          
 ---------------------------------------------------------------------
 Center     Atomic      Atomic             Coordinates (Angstroms)
 Number     Number       Type             X           Y           Z
 ---------------------------------------------------------------------
      1          8           0       -0.709952    2.884824    0.732179
      2          6           0       -0.878801    1.933767   -0.220289
      3          6           0        0.155520    0.875495   -0.140395
      4          6           0        1.069950    0.885488    0.922538
      5          6           0        2.048448   -0.096753    1.037281
      6          6           0        2.132162   -1.104160    0.073794
      7          6           0        1.235666   -1.122246   -0.993379
      8          6           0        0.249140   -0.140921   -1.111678
      9          8           0       -0.559061   -0.171499   -2.216766
     10          6           0       -1.847624   -0.724941   -1.987745
     11          8           0       -1.797384    1.983784   -1.017637
     12          1           0       -1.431942    3.518452    0.585926
     13          1           0        1.005177    1.669194    1.668165
     14          1           0        2.741726   -0.073648    1.871807
     15          1           0        2.897134   -1.870833    0.148843
     16          1           0        1.294986   -1.883684   -1.763340
     17          1           0       -2.378627   -0.182033   -1.198505
     18          1           0       -2.399646   -0.613289   -2.922373
     19          1           0       -1.783170   -1.790296   -1.725625
 ---------------------------------------------------------------------
                    Distance matrix (angstroms):
                    1          2          3          4          5
     1  O    0.000000
     2  C    1.356545   0.000000
     3  C    2.355383   1.481939   0.000000
     4  C    2.683586   2.490497   1.402180   0.000000
     5  C    4.073286   3.777999   2.432152   1.391194   0.000000
     6  C    4.941971   4.287351   2.805713   2.409846   1.396490
     7  C    4.776985   3.795768   2.425956   2.780143   2.415746
     8  C    3.670804   2.524115   1.408992   2.421834   2.803121
     9  O    4.249724   2.918956   2.432723   3.691359   4.170553
    10  C    4.660760   3.336352   3.160171   4.424417   4.972402
    11  O    2.248607   1.217399   2.410744   3.632098   4.831329
    12  H    0.971671   1.862035   3.167459   3.647639   5.038506
    13  H    2.301194   2.680603   2.150062   1.083675   2.145926
    14  H    4.686725   4.638404   3.411494   2.148461   1.085174
    15  H    5.997302   5.372981   3.891327   3.396250   2.157997
    16  H    5.743349   4.656103   3.397853   3.864311   3.406510
    17  H    3.989690   2.771822   2.942765   4.187017   4.960343
    18  H    5.333630   4.012695   4.060142   5.391453   5.977558
    19  H    5.389745   4.117350   3.657584   4.723652   5.018270
                    6          7          8          9         10
     6  C    0.000000
     7  C    1.393876   0.000000
     8  C    2.424654   1.396505   0.000000
     9  O    3.655024   2.371000   1.369432   0.000000
    10  C    4.498049   3.263938   2.346272   1.420965   0.000000
    11  O    5.115461   4.341358   2.951520   2.759819   2.877641
    12  H    5.859493   5.580897   4.370230   4.715161   4.980256
    13  H    3.391697   3.863817   3.402299   4.574679   5.218816
    14  H    2.160179   3.402509   3.888277   5.255588   6.031787
    15  H    1.085635   2.150705   3.404906   4.519859   5.328302
    16  H    2.164159   1.084504   2.134404   2.564110   3.356939
    17  H    4.776639   3.740212   2.629522   2.085135   1.095268
    18  H    5.454837   4.146751   3.243118   2.020102   1.091202
    19  H    4.363315   3.177396   2.688430   2.088101   1.099020
                   11         12         13         14         15
    11  O    0.000000
    12  H    2.249482   0.000000
    13  H    3.894464   3.245081   0.000000
    14  H    5.760679   5.654748   2.468718   0.000000
    15  H    6.185244   6.926496   4.291811   2.494521   0.000000
    16  H    5.007607   6.491399   4.947946   4.310868   2.494692
    17  H    2.249738   4.215922   4.805723   5.971313   5.700969
    18  H    3.276511   5.505987   6.154315   7.050466   6.250573
    19  H    3.839939   5.800814   5.591133   6.030181   5.042357
                   16         17         18         19
    16  H    0.000000
    17  H    4.087797   0.000000
    18  H    4.075237   1.777117   0.000000
    19  H    3.079803   1.794139   1.788181   0.000000
 Stoichiometry    C8H8O3
 Framework group  C1[X(C8H8O3)]
 Deg. of freedom    51
 Full point group                 C1      NOp   1
 Largest Abelian subgroup         C1      NOp   1
 Largest concise Abelian subgroup C1      NOp   1
                         Standard orientation:                         
 ---------------------------------------------------------------------
 Center     Atomic      Atomic             Coordinates (Angstroms)
 Number     Number       Type             X           Y           Z
 ---------------------------------------------------------------------
      1          8           0        1.696147   -2.193578   -0.002820
      2          6           0        1.477827   -0.856556   -0.072975
      3          6           0        0.033394   -0.526009   -0.050720
      4          6           0       -0.903428   -1.547698    0.160527
      5          6           0       -2.267109   -1.275005    0.198386
      6          6           0       -2.715066    0.034440    0.011648
      7          6           0       -1.796196    1.059262   -0.208144
      8          6           0       -0.425968    0.791966   -0.243561
      9          8           0        0.423860    1.826730   -0.530613
     10          6           0        1.073765    2.385575    0.602726
     11          8           0        2.397437   -0.061138   -0.133693
     12          1           0        2.662497   -2.292368   -0.026351
     13          1           0       -0.554408   -2.563692    0.302978
     14          1           0       -2.974344   -2.079971    0.369995
     15          1           0       -3.777416    0.257259    0.030785
     16          1           0       -2.122994    2.079780   -0.375161
     17          1           0        1.642661    1.625782    1.149247
     18          1           0        1.768130    3.134940    0.219277
     19          1           0        0.353004    2.866308    1.278923
 ---------------------------------------------------------------------
 Rotational constants (GHZ):           1.5045769           1.1544816           0.6787580
 Standard basis: 6-31G(d,p) (6D, 7F)
 There are   205 symmetry adapted cartesian basis functions of A   symmetry.
 There are   205 symmetry adapted basis functions of A   symmetry.
   205 basis functions,   364 primitive gaussians,   205 cartesian basis functions
    40 alpha electrons       40 beta electrons
       nuclear repulsion energy       600.0494978730 Hartrees.
 NAtoms=   19 NActive=   19 NUniq=   19 SFac= 1.00D+00 NAtFMM=   60 NAOKFM=F Big=F
 Integral buffers will be    131072 words long.
 Raffenetti 2 integral format.
 Two-electron integral symmetry is turned on.
 Nuclear repulsion after empirical dispersion term =      600.0149757888 Hartrees.
 One-electron integrals computed using PRISM.
 NBasis=   205 RedAO= T EigKep=  3.88D-04  NBF=   205
 NBsUse=   205 1.00D-06 EigRej= -1.00D+00 NBFU=   205
 Initial guess from the checkpoint file:  "Ac4_conf-3.chk"
 B after Tr=    -0.000000   -0.000000    0.000000
         Rot=    0.997826   -0.004040   -0.006118    0.065491 Ang=  -7.56 deg.
 ExpMin= 1.61D-01 ExpMax= 5.48D+03 ExpMxC= 8.25D+02 IAcc=3 IRadAn=         5 AccDes= 0.00D+00
 Harris functional with IExCor=  402 and IRadAn=       5 diagonalized for initial guess.
 HarFok:  IExCor=  402 AccDes= 0.00D+00 IRadAn=         5 IDoV= 1 UseB2=F ITyADJ=14
 ICtDFT=  3500011 ScaDFX=  1.000000  1.000000  1.000000  1.000000
 FoFCou: FMM=F IPFlag=           0 FMFlag=      100000 FMFlg1=           0
         NFxFlg=           0 DoJE=T BraDBF=F KetDBF=T FulRan=T
         wScrn=  0.000000 ICntrl=       500 IOpCl=  0 I1Cent=   200000004 NGrid=           0
         NMat0=    1 NMatS0=      1 NMatT0=    0 NMatD0=    1 NMtDS0=    0 NMtDT0=    0
 Petite list used in FoFCou.
 Requested convergence on RMS density matrix=1.00D-08 within 128 cycles.
 Requested convergence on MAX density matrix=1.00D-06.
 Requested convergence on             energy=1.00D-06.
 No special actions if energy rises.
 Integral accuracy reduced to 1.0D-05 until final iterations.
 Initial convergence to 1.0D-05 achieved.  Increase integral accuracy.
 SCF Done:  E(RB3LYP) =  -535.384003298     A.U. after   13 cycles
            NFock= 13  Conv=0.59D-08     -V/T= 2.0091
 Calling FoFJK, ICntrl=      2127 FMM=F ISym2X=0 I1Cent= 0 IOpClX= 0 NMat=1 NMatS=1 NMatT=0.
 ***** Axes restored to original set *****
 -------------------------------------------------------------------
 Center     Atomic                   Forces (Hartrees/Bohr)
 Number     Number              X              Y              Z
 -------------------------------------------------------------------
      1        8          -0.002055977    0.003975124   -0.000076146
      2        6          -0.001214944   -0.003389888   -0.004662996
      3        6          -0.001217081    0.002102312    0.002523456
      4        6           0.003464610   -0.002750014    0.002891366
      5        6          -0.000369182    0.000340297   -0.000058194
      6        6          -0.001097904    0.001047049   -0.000845041
      7        6           0.002014941   -0.000110099    0.000131619
      8        6          -0.000076275   -0.000438268   -0.003215016
      9        8           0.005926944   -0.001194924    0.001831178
     10        6          -0.008255828   -0.002368467    0.001387220
     11        8           0.001730573    0.004752391    0.004035567
     12        1           0.000242081   -0.000020065    0.000641256
     13        1          -0.000649823   -0.000164055   -0.001129915
     14        1           0.000080850   -0.000121916   -0.000291023
     15        1          -0.000161598   -0.000211136    0.000030782
     16        1          -0.000586795    0.000084770   -0.000189513
     17        1           0.000742372   -0.001546911   -0.002317645
     18        1           0.000084467   -0.000300299    0.000048084
     19        1           0.001398569    0.000314098   -0.000735039
 -------------------------------------------------------------------
 Cartesian Forces:  Max     0.008255828 RMS     0.002232436

 GradGradGradGradGradGradGradGradGradGradGradGradGradGradGradGradGradGrad
 Berny optimization.
 Using GEDIIS/GDIIS optimizer.
 FormGI is forming the generalized inverse of G from B-inverse, IUseBI=4.
 Internal  Forces:  Max     0.008125808 RMS     0.002531110
 Search for a local minimum.
 Step number   2 out of a maximum of   93
 All quantities printed in internal units (Hartrees-Bohrs-Radians)
 Mixed Optimization -- RFO/linear search
 Update second derivatives using D2CorX and points    1    2
 DE= -2.83D-03 DEPred=-3.71D-03 R= 7.62D-01
 TightC=F SS=  1.41D+00  RLast= 2.97D-01 DXNew= 5.0454D-01 8.9131D-01
 Trust test= 7.62D-01 RLast= 2.97D-01 DXMaxT set to 5.05D-01
 ITU=  1  0
 Use linear search instead of GDIIS.
     Eigenvalues ---    0.00626   0.01145   0.01393   0.01564   0.02009
     Eigenvalues ---    0.02045   0.02078   0.02129   0.02175   0.02185
     Eigenvalues ---    0.02190   0.02201   0.02317   0.02910   0.09979
     Eigenvalues ---    0.10663   0.13292   0.15997   0.16000   0.16000
     Eigenvalues ---    0.16000   0.16000   0.16000   0.16158   0.21753
     Eigenvalues ---    0.22391   0.22849   0.24494   0.24979   0.24999
     Eigenvalues ---    0.25000   0.28143   0.33312   0.34593   0.34832
     Eigenvalues ---    0.35283   0.35765   0.35908   0.35936   0.36051
     Eigenvalues ---    0.41559   0.41868   0.44780   0.45944   0.46433
     Eigenvalues ---    0.46581   0.46952   0.50787   0.53974   0.56445
     Eigenvalues ---    0.92152
 RFO step:  Lambda=-1.96710175D-03 EMin= 6.26133480D-03
 Quartic linear search produced a step of -0.18263.
 Iteration  1 RMS(Cart)=  0.09459381 RMS(Int)=  0.00267047
 Iteration  2 RMS(Cart)=  0.00383852 RMS(Int)=  0.00017321
 Iteration  3 RMS(Cart)=  0.00001031 RMS(Int)=  0.00017315
 Iteration  4 RMS(Cart)=  0.00000000 RMS(Int)=  0.00017315
 Variable       Old X    -DE/DX   Delta X   Delta X   Delta X     New X
                                 (Linear)    (Quad)   (Total)
    R1        2.56350   0.00294  -0.00138   0.00808   0.00670   2.57020
    R2        1.83619  -0.00029  -0.00524   0.01358   0.00835   1.84454
    R3        2.80046   0.00471   0.01009  -0.01513  -0.00504   2.79542
    R4        2.30055  -0.00375   0.00238  -0.00959  -0.00721   2.29334
    R5        2.64974   0.00316   0.00197   0.00091   0.00292   2.65266
    R6        2.66261   0.00734   0.00041   0.01307   0.01353   2.67613
    R7        2.62898  -0.00117   0.00097  -0.00481  -0.00385   2.62513
    R8        2.04785  -0.00086  -0.00048  -0.00065  -0.00113   2.04672
    R9        2.63898  -0.00126  -0.00183   0.00215   0.00027   2.63926
   R10        2.05068  -0.00017  -0.00150   0.00366   0.00216   2.05284
   R11        2.63404  -0.00189  -0.00072  -0.00175  -0.00251   2.63154
   R12        2.05155   0.00004  -0.00188   0.00515   0.00327   2.05483
   R13        2.63901   0.00026  -0.00050   0.00196   0.00147   2.64048
   R14        2.04942   0.00004  -0.00178   0.00491   0.00313   2.05254
   R15        2.58785   0.00000   0.00054  -0.00145  -0.00091   2.58695
   R16        2.68524   0.00673   0.00048   0.01168   0.01216   2.69739
   R17        2.06976  -0.00280  -0.00144  -0.00266  -0.00409   2.06566
   R18        2.06207  -0.00011  -0.00048   0.00103   0.00055   2.06262
   R19        2.07685  -0.00040  -0.00274   0.00647   0.00373   2.08058
    A1        1.83280   0.00103  -0.00906   0.03041   0.02135   1.85415
    A2        1.95620   0.00078   0.01013  -0.02494  -0.01531   1.94088
    A3        2.12349  -0.00635  -0.00578  -0.00457  -0.01085   2.11264
    A4        2.20345   0.00558  -0.00434   0.03008   0.02522   2.22867
    A5        2.08397  -0.00296   0.00181  -0.01543  -0.01395   2.07002
    A6        2.12276   0.00631   0.00046   0.01823   0.01833   2.14108
    A7        2.07644  -0.00336  -0.00230  -0.00299  -0.00539   2.07105
    A8        2.11318   0.00190  -0.00012   0.00756   0.00753   2.12071
    A9        2.08032  -0.00197   0.00610  -0.02571  -0.01967   2.06065
   A10        2.08966   0.00007  -0.00599   0.01821   0.01216   2.10182
   A11        2.08816   0.00012   0.00140  -0.00526  -0.00386   2.08430
   A12        2.09179   0.00018   0.00033   0.00096   0.00128   2.09307
   A13        2.10324  -0.00031  -0.00174   0.00428   0.00253   2.10577
   A14        2.09327   0.00069  -0.00104   0.00307   0.00199   2.09527
   A15        2.09900  -0.00022   0.00007   0.00035   0.00043   2.09944
   A16        2.09089  -0.00047   0.00098  -0.00340  -0.00241   2.08848
   A17        2.10608   0.00158   0.00059   0.00351   0.00413   2.11021
   A18        2.11471  -0.00019  -0.00372   0.01089   0.00716   2.12187
   A19        2.06221  -0.00139   0.00317  -0.01435  -0.01119   2.05102
   A20        2.08916  -0.00094   0.00142  -0.00594  -0.00445   2.08471
   A21        2.13315   0.00813   0.00297   0.01734   0.02018   2.15333
   A22        2.05961  -0.00720  -0.00424  -0.01261  -0.01695   2.04266
   A23        1.99744   0.00623  -0.00082   0.02237   0.02155   2.01899
   A24        1.94198   0.00165   0.00415  -0.00237   0.00184   1.94382
   A25        1.85547   0.00015   0.00954  -0.02644  -0.01689   1.83858
   A26        1.94208  -0.00256  -0.00064  -0.01180  -0.01247   1.92960
   A27        1.89781  -0.00014  -0.00362   0.01043   0.00692   1.90473
   A28        1.91460   0.00081  -0.00432   0.01676   0.01245   1.92705
   A29        1.91042   0.00008  -0.00535   0.01300   0.00756   1.91798
    D1        3.13983  -0.00027  -0.00233  -0.01282  -0.01464   3.12519
    D2       -0.01226   0.00075  -0.00149   0.04218   0.04018   0.02792
    D3        0.10329  -0.00007  -0.01210   0.07226   0.06032   0.16361
    D4       -3.03271   0.00104  -0.00989   0.11381   0.10420  -2.92851
    D5       -3.02722  -0.00106  -0.01298   0.01450   0.00124  -3.02598
    D6        0.11997   0.00004  -0.01077   0.05604   0.04512   0.16509
    D7        3.13284   0.00156   0.00703   0.03505   0.04171  -3.10863
    D8       -0.00128   0.00096   0.00380   0.02677   0.03040   0.02912
    D9       -0.01420   0.00051   0.00490  -0.00531  -0.00030  -0.01450
   D10        3.13487  -0.00009   0.00167  -0.01359  -0.01162   3.12325
   D11       -3.13617  -0.00202  -0.00955  -0.04178  -0.05167   3.09535
   D12        0.06071  -0.00147  -0.01354  -0.01529  -0.02887   0.03184
   D13        0.01099  -0.00092  -0.00738  -0.00038  -0.00773   0.00326
   D14       -3.07531  -0.00037  -0.01137   0.02611   0.01507  -3.06024
   D15        0.00998   0.00011  -0.00065   0.00789   0.00713   0.01711
   D16       -3.13428  -0.00024  -0.00223   0.00107  -0.00121  -3.13549
   D17       -3.13913   0.00070   0.00252   0.01603   0.01858  -3.12056
   D18       -0.00021   0.00036   0.00094   0.00921   0.01024   0.01003
   D19       -0.00248  -0.00029  -0.00115  -0.00477  -0.00587  -0.00836
   D20        3.13249  -0.00004  -0.00062  -0.00031  -0.00086   3.13163
   D21       -3.14139   0.00006   0.00043   0.00210   0.00253  -3.13886
   D22       -0.00642   0.00031   0.00095   0.00656   0.00754   0.00113
   D23       -0.00053  -0.00011  -0.00142  -0.00076  -0.00213  -0.00266
   D24        3.12015   0.00045   0.00268   0.00195   0.00474   3.12489
   D25       -3.13554  -0.00036  -0.00194  -0.00521  -0.00712   3.14053
   D26       -0.01485   0.00020   0.00217  -0.00250  -0.00025  -0.01510
   D27       -0.00380   0.00070   0.00576   0.00333   0.00895   0.00515
   D28        3.08482   0.00065   0.00971  -0.02112  -0.01128   3.07354
   D29       -3.12510   0.00015   0.00177   0.00041   0.00215  -3.12296
   D30       -0.03648   0.00010   0.00572  -0.02404  -0.01808  -0.05456
   D31       -1.42613  -0.00419  -0.01851  -0.08011  -0.09866  -1.52479
   D32        1.76985  -0.00383  -0.02253  -0.05423  -0.07672   1.69314
   D33        1.00257  -0.00008  -0.00783   0.03134   0.02360   1.02617
   D34        3.06611   0.00074  -0.00376   0.02675   0.02282   3.08893
   D35       -1.13830  -0.00048  -0.00474   0.01984   0.01518  -1.12312
         Item               Value     Threshold  Converged?
 Maximum Force            0.008126     0.000450     NO 
 RMS     Force            0.002531     0.000300     NO 
 Maximum Displacement     0.353525     0.001800     NO 
 RMS     Displacement     0.095159     0.001200     NO 
 Predicted change in Energy=-1.204493D-03
 GradGradGradGradGradGradGradGradGradGradGradGradGradGradGradGradGradGrad

                          Input orientation:                          
 ---------------------------------------------------------------------
 Center     Atomic      Atomic             Coordinates (Angstroms)
 Number     Number       Type             X           Y           Z
 ---------------------------------------------------------------------
      1          8           0       -0.587834    2.960878    0.734281
      2          6           0       -0.877170    1.981961   -0.164523
      3          6           0        0.115729    0.887238   -0.101495
      4          6           0        1.048993    0.885977    0.947058
      5          6           0        2.032064   -0.090835    1.042813
      6          6           0        2.109518   -1.084473    0.064410
      7          6           0        1.200347   -1.096938   -0.990315
      8          6           0        0.200184   -0.126020   -1.087221
      9          8           0       -0.598713   -0.164364   -2.198223
     10          6           0       -1.850238   -0.831667   -2.037412
     11          8           0       -1.818195    2.087448   -0.923558
     12          1           0       -1.273173    3.646608    0.620992
     13          1           0        0.986258    1.675301    1.686034
     14          1           0        2.737792   -0.070324    1.868409
     15          1           0        2.879189   -1.850522    0.120465
     16          1           0        1.247294   -1.848801   -1.772771
     17          1           0       -2.449938   -0.369110   -1.249203
     18          1           0       -2.364486   -0.715281   -2.993111
     19          1           0       -1.693921   -1.900375   -1.823830
 ---------------------------------------------------------------------
                    Distance matrix (angstroms):
                    1          2          3          4          5
     1  O    0.000000
     2  C    1.360089   0.000000
     3  C    2.343824   1.479271   0.000000
     4  C    2.651357   2.479295   1.403726   0.000000
     5  C    4.033858   3.770648   2.436884   1.389157   0.000000
     6  C    4.908085   4.286693   2.808979   2.405505   1.396634
     7  C    4.757909   3.804948   2.429681   2.776378   2.416114
     8  C    3.669848   2.540796   1.416149   2.425470   2.809638
     9  O    4.285655   2.969879   2.452052   3.702829   4.175010
    10  C    4.864087   3.517254   3.250759   4.501434   5.010877
    11  O    2.241674   1.213586   2.419991   3.628155   4.841077
    12  H    0.976088   1.882791   3.172564   3.622134   5.007095
    13  H    2.244172   2.644043   2.138720   1.083076   2.150972
    14  H    4.640498   4.627379   3.416527   2.148357   1.086315
    15  H    5.962097   5.373954   3.896320   3.394305   2.159826
    16  H    5.725908   4.666321   3.399928   3.862099   3.410839
    17  H    4.300054   3.029466   3.078683   4.317560   5.041737
    18  H    5.528479   4.181881   4.132913   5.453512   6.000688
    19  H    5.603494   4.300339   3.743268   4.792198   5.037365
                    6          7          8          9         10
     6  C    0.000000
     7  C    1.392549   0.000000
     8  C    2.427024   1.397283   0.000000
     9  O    3.647002   2.359100   1.368953   0.000000
    10  C    4.490127   3.236178   2.367494   1.427399   0.000000
    11  O    5.144327   4.388207   3.000013   2.860518   3.124568
    12  H    5.842560   5.587113   4.395622   4.788150   5.239758
    13  H    3.392304   3.859272   3.399060   4.580824   5.309863
    14  H    2.162784   3.404405   3.895934   5.261045   6.073310
    15  H    1.087367   2.149473   3.407269   4.507244   5.297356
    16  H    2.168609   1.086159   2.129412   2.534971   3.270979
    17  H    4.798538   3.731131   2.666172   2.090357   1.093102
    18  H    5.431524   4.106688   3.249180   2.013283   1.091493
    19  H    4.324038   3.117218   2.697881   2.086477   1.100994
                   11         12         13         14         15
    11  O    0.000000
    12  H    2.261342   0.000000
    13  H    3.852894   3.182042   0.000000
    14  H    5.762645   5.608874   2.479585   0.000000
    15  H    6.217959   6.907321   4.297165   2.498881   0.000000
    16  H    5.060874   6.502490   4.944772   4.317726   2.499485
    17  H    2.557307   4.583492   4.960108   6.059812   5.698260
    18  H    3.526580   5.768776   6.231914   7.076975   6.203165
    19  H    4.090069   6.076447   5.682250   6.051594   4.969518
                   16         17         18         19
    16  H    0.000000
    17  H    4.016608   0.000000
    18  H    3.977317   1.779986   0.000000
    19  H    2.942111   1.801813   1.794804   0.000000
 Stoichiometry    C8H8O3
 Framework group  C1[X(C8H8O3)]
 Deg. of freedom    51
 Full point group                 C1      NOp   1
 Largest Abelian subgroup         C1      NOp   1
 Largest concise Abelian subgroup C1      NOp   1
                         Standard orientation:                         
 ---------------------------------------------------------------------
 Center     Atomic      Atomic             Coordinates (Angstroms)
 Number     Number       Type             X           Y           Z
 ---------------------------------------------------------------------
      1          8           0        1.809870   -2.119741   -0.055459
      2          6           0        1.550159   -0.784807   -0.036899
      3          6           0        0.094564   -0.523327   -0.003528
      4          6           0       -0.777601   -1.603246    0.205155
      5          6           0       -2.156251   -1.432756    0.209009
      6          6           0       -2.691166   -0.163037   -0.019610
      7          6           0       -1.845001    0.920972   -0.238980
      8          6           0       -0.456931    0.760958   -0.231443
      9          8           0        0.297961    1.861372   -0.536822
     10          6           0        0.800369    2.595921    0.579195
     11          8           0        2.449053    0.028528   -0.094049
     12          1           0        2.781237   -2.208282   -0.092263
     13          1           0       -0.345805   -2.584179    0.361279
     14          1           0       -2.807291   -2.285646    0.378736
     15          1           0       -3.768410   -0.015296   -0.028901
     16          1           0       -2.234352    1.915936   -0.434407
     17          1           0        1.425207    1.968656    1.220279
     18          1           0        1.412984    3.390656    0.149710
     19          1           0       -0.027490    3.032810    1.158819
 ---------------------------------------------------------------------
 Rotational constants (GHZ):           1.4383944           1.1656560           0.6684902
 Standard basis: 6-31G(d,p) (6D, 7F)
 There are   205 symmetry adapted cartesian basis functions of A   symmetry.
 There are   205 symmetry adapted basis functions of A   symmetry.
   205 basis functions,   364 primitive gaussians,   205 cartesian basis functions
    40 alpha electrons       40 beta electrons
       nuclear repulsion energy       596.9567621062 Hartrees.
 NAtoms=   19 NActive=   19 NUniq=   19 SFac= 1.00D+00 NAtFMM=   60 NAOKFM=F Big=F
 Integral buffers will be    131072 words long.
 Raffenetti 2 integral format.
 Two-electron integral symmetry is turned on.
 Nuclear repulsion after empirical dispersion term =      596.9225944513 Hartrees.
 One-electron integrals computed using PRISM.
 NBasis=   205 RedAO= T EigKep=  3.91D-04  NBF=   205
 NBsUse=   205 1.00D-06 EigRej= -1.00D+00 NBFU=   205
 Initial guess from the checkpoint file:  "Ac4_conf-3.chk"
 B after Tr=    -0.000000   -0.000000   -0.000000
         Rot=    0.999324    0.005604    0.003242   -0.036198 Ang=   4.21 deg.
 ExpMin= 1.61D-01 ExpMax= 5.48D+03 ExpMxC= 8.25D+02 IAcc=3 IRadAn=         5 AccDes= 0.00D+00
 Harris functional with IExCor=  402 and IRadAn=       5 diagonalized for initial guess.
 HarFok:  IExCor=  402 AccDes= 0.00D+00 IRadAn=         5 IDoV= 1 UseB2=F ITyADJ=14
 ICtDFT=  3500011 ScaDFX=  1.000000  1.000000  1.000000  1.000000
 FoFCou: FMM=F IPFlag=           0 FMFlag=      100000 FMFlg1=           0
         NFxFlg=           0 DoJE=T BraDBF=F KetDBF=T FulRan=T
         wScrn=  0.000000 ICntrl=       500 IOpCl=  0 I1Cent=   200000004 NGrid=           0
         NMat0=    1 NMatS0=      1 NMatT0=    0 NMatD0=    1 NMtDS0=    0 NMtDT0=    0
 Petite list used in FoFCou.
 Requested convergence on RMS density matrix=1.00D-08 within 128 cycles.
 Requested convergence on MAX density matrix=1.00D-06.
 Requested convergence on             energy=1.00D-06.
 No special actions if energy rises.
 Integral accuracy reduced to 1.0D-05 until final iterations.
 Initial convergence to 1.0D-05 achieved.  Increase integral accuracy.
 SCF Done:  E(RB3LYP) =  -535.383771765     A.U. after   13 cycles
            NFock= 13  Conv=0.48D-08     -V/T= 2.0092
 Calling FoFJK, ICntrl=      2127 FMM=F ISym2X=0 I1Cent= 0 IOpClX= 0 NMat=1 NMatS=1 NMatT=0.
 ***** Axes restored to original set *****
 -------------------------------------------------------------------
 Center     Atomic                   Forces (Hartrees/Bohr)
 Number     Number              X              Y              Z
 -------------------------------------------------------------------
      1        8          -0.004686650    0.006626603    0.002793401
      2        6           0.001485556    0.005030978   -0.004722664
      3        6           0.000769001   -0.004128842   -0.002028355
      4        6           0.001225381   -0.001270105    0.001798428
      5        6           0.000458466   -0.000357638   -0.000115994
      6        6           0.000408963   -0.001245536    0.000153272
      7        6           0.000201675   -0.000575677    0.000426508
      8        6           0.000752690    0.000751835    0.000106573
      9        8           0.001199587    0.003112009    0.002559522
     10        6          -0.000009532   -0.000263499   -0.001168717
     11        8          -0.002945475   -0.004109716   -0.000383049
     12        1           0.002845261   -0.004814629   -0.000624580
     13        1           0.000658345   -0.001074292    0.000043075
     14        1          -0.000457673   -0.000275666   -0.000941276
     15        1          -0.000648331    0.000804997   -0.000016466
     16        1           0.000436889    0.000634474    0.000844790
     17        1           0.000163587    0.000454890    0.000464268
     18        1          -0.000827698   -0.001318163    0.000811733
     19        1          -0.001030042    0.002017976   -0.000000469
 -------------------------------------------------------------------
 Cartesian Forces:  Max     0.006626603 RMS     0.002076108

 GradGradGradGradGradGradGradGradGradGradGradGradGradGradGradGradGradGrad
 Berny optimization.
 Using GEDIIS/GDIIS optimizer.
 FormGI is forming the generalized inverse of G from B-inverse, IUseBI=4.
 Internal  Forces:  Max     0.010731595 RMS     0.002721045
 Search for a local minimum.
 Step number   3 out of a maximum of   93
 All quantities printed in internal units (Hartrees-Bohrs-Radians)
 Mixed Optimization -- RFO/linear search
 Update second derivatives using D2CorX and points    1    3    2
 DE=  2.32D-04 DEPred=-1.20D-03 R=-1.92D-01
 Trust test=-1.92D-01 RLast= 2.20D-01 DXMaxT set to 2.52D-01
 ITU= -1  1  0
 Use linear search instead of GDIIS.
     Eigenvalues ---    0.00574   0.01209   0.01373   0.01620   0.02017
     Eigenvalues ---    0.02073   0.02089   0.02130   0.02175   0.02186
     Eigenvalues ---    0.02193   0.02201   0.02311   0.03789   0.10107
     Eigenvalues ---    0.10769   0.14623   0.15999   0.15999   0.16000
     Eigenvalues ---    0.16000   0.16000   0.16030   0.16146   0.21959
     Eigenvalues ---    0.22476   0.24023   0.24475   0.24940   0.24992
     Eigenvalues ---    0.25122   0.31113   0.34440   0.34674   0.34833
     Eigenvalues ---    0.35701   0.35857   0.35934   0.36051   0.37649
     Eigenvalues ---    0.41416   0.41598   0.44064   0.45919   0.46518
     Eigenvalues ---    0.46836   0.49539   0.52502   0.54589   0.57038
     Eigenvalues ---    0.92189
 RFO step:  Lambda=-7.19057410D-04 EMin= 5.74362600D-03
 Quartic linear search produced a step of -0.57780.
 Iteration  1 RMS(Cart)=  0.05741669 RMS(Int)=  0.00207334
 Iteration  2 RMS(Cart)=  0.00319615 RMS(Int)=  0.00053635
 Iteration  3 RMS(Cart)=  0.00000241 RMS(Int)=  0.00053635
 Iteration  4 RMS(Cart)=  0.00000000 RMS(Int)=  0.00053635
 Variable       Old X    -DE/DX   Delta X   Delta X   Delta X     New X
                                 (Linear)    (Quad)   (Total)
    R1        2.57020   0.00235  -0.00387   0.00573   0.00186   2.57206
    R2        1.84454  -0.00531  -0.00482  -0.00320  -0.00802   1.83651
    R3        2.79542   0.00436   0.00291   0.01367   0.01659   2.81200
    R4        2.29334   0.00217   0.00416  -0.00225   0.00192   2.29526
    R5        2.65266   0.00261  -0.00169   0.00719   0.00549   2.65815
    R6        2.67613  -0.00572  -0.00782   0.00591  -0.00191   2.67423
    R7        2.62513   0.00087   0.00222  -0.00109   0.00113   2.62626
    R8        2.04672  -0.00079   0.00065  -0.00242  -0.00177   2.04495
    R9        2.63926  -0.00028  -0.00016  -0.00200  -0.00216   2.63710
   R10        2.05284  -0.00102  -0.00125  -0.00120  -0.00244   2.05039
   R11        2.63154  -0.00083   0.00145  -0.00363  -0.00218   2.62936
   R12        2.05483  -0.00103  -0.00189  -0.00073  -0.00262   2.05220
   R13        2.64048   0.00015  -0.00085   0.00060  -0.00024   2.64024
   R14        2.05254  -0.00103  -0.00181  -0.00074  -0.00255   2.04999
   R15        2.58695  -0.00198   0.00052  -0.00176  -0.00124   2.58571
   R16        2.69739   0.00109  -0.00703   0.01162   0.00460   2.70199
   R17        2.06566   0.00044   0.00237  -0.00450  -0.00213   2.06353
   R18        2.06262  -0.00046  -0.00032  -0.00067  -0.00099   2.06163
   R19        2.08058  -0.00211  -0.00216  -0.00273  -0.00489   2.07569
    A1        1.85415  -0.00344  -0.01234  -0.00306  -0.01540   1.83875
    A2        1.94088   0.00764   0.00885   0.01426   0.02030   1.96119
    A3        2.11264  -0.00026   0.00627  -0.01427  -0.01080   2.10184
    A4        2.22867  -0.00723  -0.01457   0.00469  -0.01270   2.21597
    A5        2.07002   0.01073   0.00806   0.00953   0.01758   2.08760
    A6        2.14108  -0.01026  -0.01059  -0.00143  -0.01203   2.12906
    A7        2.07105  -0.00042   0.00311  -0.00771  -0.00462   2.06643
    A8        2.12071  -0.00128  -0.00435   0.00377  -0.00059   2.12012
    A9        2.06065   0.00162   0.01137  -0.00464   0.00675   2.06739
   A10        2.10182  -0.00034  -0.00702   0.00085  -0.00616   2.09566
   A11        2.08430   0.00061   0.00223   0.00036   0.00258   2.08687
   A12        2.09307   0.00007  -0.00074   0.00155   0.00082   2.09389
   A13        2.10577  -0.00067  -0.00146  -0.00191  -0.00336   2.10240
   A14        2.09527  -0.00050  -0.00115  -0.00032  -0.00147   2.09380
   A15        2.09944   0.00015  -0.00025   0.00049   0.00024   2.09968
   A16        2.08848   0.00034   0.00139  -0.00017   0.00122   2.08970
   A17        2.11021  -0.00073  -0.00239   0.00224  -0.00014   2.11008
   A18        2.12187  -0.00011  -0.00414   0.00079  -0.00335   2.11853
   A19        2.05102   0.00083   0.00646  -0.00295   0.00351   2.05453
   A20        2.08471   0.00232   0.00257   0.00174   0.00430   2.08901
   A21        2.15333  -0.00741  -0.01166   0.00800  -0.00367   2.14966
   A22        2.04266   0.00514   0.00980  -0.00936   0.00042   2.04307
   A23        2.01899  -0.00226  -0.01245   0.01265   0.00020   2.01919
   A24        1.94382  -0.00147  -0.00106   0.00224   0.00116   1.94498
   A25        1.83858   0.00268   0.00976   0.00598   0.01576   1.85434
   A26        1.92960   0.00080   0.00721  -0.00878  -0.00154   1.92806
   A27        1.90473  -0.00031  -0.00400   0.00094  -0.00308   1.90166
   A28        1.92705  -0.00056  -0.00719   0.00198  -0.00522   1.92183
   A29        1.91798  -0.00102  -0.00437  -0.00219  -0.00650   1.91148
    D1        3.12519   0.00175   0.00846   0.05859   0.06683  -3.09116
    D2        0.02792  -0.00148  -0.02322  -0.04607  -0.06908  -0.04115
    D3        0.16361  -0.00070  -0.03485  -0.05597  -0.09072   0.07289
    D4       -2.92851  -0.00188  -0.06021  -0.06503  -0.12531  -3.05381
    D5       -3.02598   0.00306  -0.00072   0.05678   0.05614  -2.96984
    D6        0.16509   0.00188  -0.02607   0.04773   0.02155   0.18664
    D7       -3.10863  -0.00091  -0.02410   0.00336  -0.02078  -3.12942
    D8        0.02912  -0.00062  -0.01756  -0.00204  -0.01966   0.00945
    D9       -0.01450  -0.00007   0.00018   0.01221   0.01232  -0.00218
[...]
     12  H    Isotropic =    25.6253   Anisotropy =    10.0976
   XX=    29.9716   YX=    -2.0303   ZX=    -0.0605
   XY=    -6.6345   YY=    24.4882   ZY=    -0.4105
   XZ=    -0.3129   YZ=    -0.3687   ZZ=    22.4161
   Eigenvalues:    21.8005    22.7183    32.3570
     13  H    Isotropic =    22.9046   Anisotropy =     9.0361
   XX=    28.0585   YX=     2.6809   ZX=    -1.1632
   XY=     1.8399   YY=    21.2694   ZY=    -0.3049
   XZ=    -1.4437   YZ=    -0.2910   ZZ=    19.3860
   Eigenvalues:    19.1935    20.5917    28.9287
     14  H    Isotropic =    23.9623   Anisotropy =     5.7488
   XX=    26.0667   YX=    -2.3452   ZX=     0.2729
   XY=    -2.2886   YY=    24.5741   ZY=    -0.5031
   XZ=     0.2503   YZ=    -0.5216   ZZ=    21.2460
   Eigenvalues:    21.1667    22.9253    27.7948
     15  H    Isotropic =    23.5556   Anisotropy =     6.2253
   XX=    22.1528   YX=     1.2586   ZX=    -0.2383
   XY=     1.1271   YY=    27.2094   ZY=    -1.1831
   XZ=    -0.2587   YZ=    -1.1878   ZZ=    21.3045
   Eigenvalues:    21.0750    21.8859    27.7058
     16  H    Isotropic =    23.9706   Anisotropy =     7.9264
   XX=    28.7386   YX=     1.4289   ZX=    -0.1191
   XY=     2.4884   YY=    21.8113   ZY=    -0.0108
   XZ=     0.3745   YZ=    -0.3573   ZZ=    21.3618
   Eigenvalues:    21.1155    21.5414    29.2548
     17  H    Isotropic =    27.3153   Anisotropy =     6.4248
   XX=    27.6310   YX=    -1.6069   ZX=     2.3874
   XY=     0.3278   YY=    27.3534   ZY=     2.4104
   XZ=     5.3524   YZ=     2.6171   ZZ=    26.9613
   Eigenvalues:    22.3350    28.0123    31.5985
     18  H    Isotropic =    27.8302   Anisotropy =     8.7020
   XX=    27.5709   YX=     3.4657   ZX=     0.0200
   XY=     3.5316   YY=    31.0148   ZY=     0.0159
   XZ=     2.3091   YZ=     3.1462   ZZ=    24.9050
   Eigenvalues:    24.4423    25.4167    33.6316
     19  H    Isotropic =    28.5187   Anisotropy =     8.1376
   XX=    27.1544   YX=     0.0743   ZX=     1.0188
   XY=    -1.2937   YY=    29.4697   ZY=     3.7146
   XZ=    -0.7086   YZ=     5.7225   ZZ=    28.9320
   Eigenvalues:    24.3727    27.2396    33.9438
 End of Minotr F.D. properties file   721 does not exist.
 End of Minotr F.D. properties file   722 does not exist.
 End of Minotr F.D. properties file   788 does not exist.

 **********************************************************************

            Population analysis using the SCF Density.

 **********************************************************************

 Orbital symmetries:
       Occupied  (A) (A) (A) (A) (A) (A) (A) (A) (A) (A) (A) (A)
                 (A) (A) (A) (A) (A) (A) (A) (A) (A) (A) (A) (A)
                 (A) (A) (A) (A) (A) (A) (A) (A) (A) (A) (A) (A)
                 (A) (A) (A) (A)
       Virtual   (A) (A) (A) (A) (A) (A) (A) (A) (A) (A) (A) (A)
                 (A) (A) (A) (A) (A) (A) (A) (A) (A) (A) (A) (A)
                 (A) (A) (A) (A) (A) (A) (A) (A) (A) (A) (A) (A)
                 (A) (A) (A) (A) (A) (A) (A) (A) (A) (A) (A) (A)
                 (A) (A) (A) (A) (A) (A) (A) (A) (A) (A) (A) (A)
                 (A) (A) (A) (A) (A) (A) (A) (A) (A) (A) (A) (A)
                 (A) (A) (A) (A) (A) (A) (A) (A) (A) (A) (A) (A)
                 (A) (A) (A) (A) (A) (A) (A) (A) (A) (A) (A) (A)
                 (A) (A) (A) (A) (A) (A) (A) (A) (A) (A) (A) (A)
                 (A) (A) (A) (A) (A) (A) (A) (A) (A) (A) (A) (A)
                 (A) (A) (A) (A) (A) (A) (A) (A) (A) (A) (A) (A)
                 (A) (A) (A) (A) (A) (A) (A) (A) (A) (A) (A) (A)
                 (A) (A) (A) (A) (A) (A) (A) (A) (A) (A) (A) (A)
                 (A) (A) (A) (A) (A) (A) (A) (A) (A) (A) (A) (A)
                 (A) (A) (A) (A) (A) (A) (A) (A) (A) (A) (A) (A)
                 (A) (A) (A) (A) (A) (A) (A) (A) (A) (A) (A) (A)
                 (A) (A) (A) (A) (A) (A) (A) (A) (A) (A) (A) (A)
                 (A) (A) (A) (A) (A) (A) (A) (A) (A) (A) (A) (A)
                 (A) (A) (A) (A) (A) (A) (A) (A) (A) (A) (A) (A)
                 (A) (A) (A) (A) (A) (A) (A) (A) (A) (A) (A) (A)
                 (A) (A) (A) (A) (A) (A) (A) (A) (A) (A) (A) (A)
                 (A) (A) (A) (A) (A) (A) (A) (A) (A) (A) (A) (A)
                 (A) (A) (A) (A) (A) (A) (A) (A) (A) (A) (A) (A)
                 (A) (A) (A) (A) (A) (A) (A) (A) (A) (A) (A) (A)
                 (A) (A) (A) (A) (A) (A) (A) (A) (A) (A) (A) (A)
                 (A) (A) (A) (A) (A) (A) (A) (A) (A) (A) (A) (A)
                 (A) (A) (A) (A) (A) (A) (A) (A) (A) (A) (A) (A)
                 (A) (A) (A) (A) (A) (A) (A) (A) (A) (A) (A) (A)
                 (A) (A) (A) (A) (A) (A) (A) (A) (A) (A) (A) (A)
                 (A)
 The electronic state is 1-A.
 Alpha  occ. eigenvalues --  -19.67585 -19.64345 -19.62183 -10.68616 -10.61748
 Alpha  occ. eigenvalues --  -10.57999 -10.56930 -10.56273 -10.56221 -10.55396
 Alpha  occ. eigenvalues --  -10.55312  -1.23762  -1.18060  -1.13940  -0.97376
 Alpha  occ. eigenvalues --   -0.87789  -0.85806  -0.78723  -0.75073  -0.70638
 Alpha  occ. eigenvalues --   -0.66896  -0.61708  -0.59045  -0.57637  -0.56046
 Alpha  occ. eigenvalues --   -0.54680  -0.54063  -0.52858  -0.51887  -0.49784
 Alpha  occ. eigenvalues --   -0.48277  -0.45372  -0.44342  -0.43554  -0.41367
 Alpha  occ. eigenvalues --   -0.40267  -0.36516  -0.34742  -0.32577  -0.30887
 Alpha virt. eigenvalues --   -0.02587   0.01243   0.06849   0.08165   0.08286
 Alpha virt. eigenvalues --    0.09247   0.11113   0.12213   0.13008   0.14194
 Alpha virt. eigenvalues --    0.15493   0.15799   0.17166   0.19464   0.19677
 Alpha virt. eigenvalues --    0.21308   0.21342   0.23437   0.24158   0.24592
 Alpha virt. eigenvalues --    0.25243   0.26188   0.26972   0.27246   0.29089
 Alpha virt. eigenvalues --    0.30710   0.31605   0.31814   0.33468   0.34628
 Alpha virt. eigenvalues --    0.35420   0.36469   0.36675   0.37254   0.38437
 Alpha virt. eigenvalues --    0.40072   0.41142   0.41671   0.42330   0.43198
 Alpha virt. eigenvalues --    0.43762   0.44629   0.45120   0.45764   0.47414
 Alpha virt. eigenvalues --    0.48551   0.49578   0.50462   0.51064   0.51810
 Alpha virt. eigenvalues --    0.52247   0.53320   0.53633   0.54656   0.56463
 Alpha virt. eigenvalues --    0.57086   0.58830   0.60166   0.60710   0.62640
 Alpha virt. eigenvalues --    0.64411   0.65830   0.67697   0.69598   0.70577
 Alpha virt. eigenvalues --    0.71015   0.71812   0.73519   0.73861   0.76777
 Alpha virt. eigenvalues --    0.77381   0.78568   0.79719   0.80366   0.81590
 Alpha virt. eigenvalues --    0.83538   0.84947   0.85715   0.87857   0.89512
 Alpha virt. eigenvalues --    0.90730   0.91613   0.92806   0.94150   0.94683
 Alpha virt. eigenvalues --    0.98215   0.98641   1.00003   1.02349   1.03173
 Alpha virt. eigenvalues --    1.04299   1.06119   1.09409   1.10630   1.13085
 Alpha virt. eigenvalues --    1.14104   1.14829   1.16564   1.17353   1.23206
 Alpha virt. eigenvalues --    1.24441   1.25747   1.26980   1.29590   1.30187
 Alpha virt. eigenvalues --    1.31809   1.33230   1.35257   1.38104   1.39377
 Alpha virt. eigenvalues --    1.42955   1.44026   1.46857   1.49995   1.50831
 Alpha virt. eigenvalues --    1.51313   1.53449   1.53935   1.55480   1.57068
 Alpha virt. eigenvalues --    1.57621   1.57956   1.59554   1.60874   1.62895
 Alpha virt. eigenvalues --    1.63348   1.66037   1.66500   1.69091   1.70310
 Alpha virt. eigenvalues --    1.71395   1.72889   1.73172   1.74286   1.75138
 Alpha virt. eigenvalues --    1.78525   1.80004   1.84318   1.85173   1.88723
 Alpha virt. eigenvalues --    1.90012   1.90769   1.92937   1.94000   1.97705
 Alpha virt. eigenvalues --    1.99185   2.00286   2.01983   2.03907   2.06743
 Alpha virt. eigenvalues --    2.07439   2.08854   2.09746   2.11600   2.12671
 Alpha virt. eigenvalues --    2.15305   2.16147   2.17104   2.17752   2.20457
 Alpha virt. eigenvalues --    2.20902   2.24949   2.26542   2.27787   2.29800
 Alpha virt. eigenvalues --    2.31219   2.31969   2.34899   2.37674   2.38010
 Alpha virt. eigenvalues --    2.41711   2.42108   2.45326   2.46396   2.49518
 Alpha virt. eigenvalues --    2.52400   2.53939   2.55412   2.57238   2.58461
 Alpha virt. eigenvalues --    2.58507   2.60843   2.62526   2.64990   2.65245
 Alpha virt. eigenvalues --    2.66002   2.66747   2.70148   2.71144   2.71998
 Alpha virt. eigenvalues --    2.72682   2.75442   2.77577   2.78118   2.79608
 Alpha virt. eigenvalues --    2.80652   2.81413   2.82551   2.83782   2.84486
 Alpha virt. eigenvalues --    2.86066   2.88264   2.90243   2.91858   2.93260
 Alpha virt. eigenvalues --    2.94793   2.96091   2.99160   3.01032   3.02019
 Alpha virt. eigenvalues --    3.03433   3.03519   3.04731   3.09487   3.09978
 Alpha virt. eigenvalues --    3.10938   3.14044   3.15123   3.15673   3.16249
 Alpha virt. eigenvalues --    3.16590   3.19291   3.21543   3.22141   3.23538
 Alpha virt. eigenvalues --    3.24516   3.25008   3.26726   3.27357   3.28572
 Alpha virt. eigenvalues --    3.28747   3.29649   3.32164   3.33111   3.34633
 Alpha virt. eigenvalues --    3.35662   3.37192   3.38497   3.41441   3.42709
 Alpha virt. eigenvalues --    3.44080   3.45809   3.46938   3.47390   3.49423
 Alpha virt. eigenvalues --    3.49990   3.52758   3.53459   3.55321   3.55442
 Alpha virt. eigenvalues --    3.56329   3.58132   3.60014   3.61167   3.66268
 Alpha virt. eigenvalues --    3.69293   3.73676   3.75006   3.79100   3.81427
 Alpha virt. eigenvalues --    3.85053   3.87586   3.88068   3.90528   3.93398
 Alpha virt. eigenvalues --    3.98652   4.03698   4.05518   4.08582   4.12633
 Alpha virt. eigenvalues --    4.14440   4.15121   4.15938   4.17678   4.19414
 Alpha virt. eigenvalues --    4.20968   4.21906   4.25054   4.25834   4.28997
 Alpha virt. eigenvalues --    4.33122   4.37586   4.38753   4.45425   4.49569
 Alpha virt. eigenvalues --    4.55074   4.56656   4.57915   4.59214   4.64190
 Alpha virt. eigenvalues --    4.70221   4.74327   4.80957   4.85994   4.88780
 Alpha virt. eigenvalues --    5.00891   5.04751   5.08337   5.17003   5.20766
 Alpha virt. eigenvalues --    5.22079   5.22552   5.28276   5.33922   5.38639
 Alpha virt. eigenvalues --    5.40346   5.44649   5.48732   5.49952   5.52252
 Alpha virt. eigenvalues --    5.63020   5.77201   5.79034   5.85558   5.90378
 Alpha virt. eigenvalues --    6.00712   6.13689   6.14253   6.20688   6.26498
 Alpha virt. eigenvalues --    6.32214   6.34451   6.37346   6.45693   6.52590
 Alpha virt. eigenvalues --    6.68738   6.69950   6.71409   6.78162   6.80198
 Alpha virt. eigenvalues --    6.82206   6.91399   7.03995   7.07809   7.15758
 Alpha virt. eigenvalues --    7.18117   7.21140   7.33284  22.22468  22.43832
 Alpha virt. eigenvalues --   22.68800  22.74400  22.91963  22.95015  23.29596
 Alpha virt. eigenvalues --   23.52700  43.95797  44.03186  44.36268
          Condensed to atoms (all electrons):
               1          2          3          4          5          6
     1  O    7.958261   0.396700  -0.160619   0.017294  -0.001562   0.000338
     2  C    0.396700   4.544507   0.240679  -0.062088   0.011467  -0.009923
     3  C   -0.160619   0.240679   5.646345   0.187188   0.076909  -0.165205
     4  C    0.017294  -0.062088   0.187188   5.230556   0.361246   0.086309
     5  C   -0.001562   0.011467   0.076909   0.361246   5.040705   0.402796
     6  C    0.000338  -0.009923  -0.165205   0.086309   0.402796   5.054705
     7  C   -0.000267   0.022961   0.154543  -0.207739   0.060300   0.326151
     8  C   -0.003244  -0.094955   0.137670   0.164161  -0.153129   0.087491
     9  O   -0.000146   0.012084  -0.089146   0.013263  -0.001618   0.013545
    10  C   -0.000192  -0.012920   0.017042   0.002730  -0.000029   0.000250
    11  O   -0.087016   0.640319  -0.088067   0.003840   0.000153  -0.000315
    12  H    0.292913  -0.032338   0.025828  -0.003040  -0.000061   0.000011
    13  H    0.009215  -0.010688  -0.020226   0.405738  -0.036866   0.004697
    14  H   -0.000116   0.000008   0.007882  -0.036975   0.416129  -0.036222
    15  H   -0.000000   0.000066  -0.002011   0.005344  -0.036892   0.405593
    16  H    0.000008   0.000176   0.021862  -0.005786   0.009546  -0.043374
    17  H    0.000047  -0.010244   0.018337  -0.002543   0.000486  -0.000322
    18  H    0.000004  -0.000892  -0.002327   0.000225  -0.000068   0.000273
    19  H    0.000010   0.003909  -0.001425  -0.001195   0.000389  -0.003621
               7          8          9         10         11         12
     1  O   -0.000267  -0.003244  -0.000146  -0.000192  -0.087016   0.292913
     2  C    0.022961  -0.094955   0.012084  -0.012920   0.640319  -0.032338
     3  C    0.154543   0.137670  -0.089146   0.017042  -0.088067   0.025828
     4  C   -0.207739   0.164161   0.013263   0.002730   0.003840  -0.003040
     5  C    0.060300  -0.153129  -0.001618  -0.000029   0.000153  -0.000061
     6  C    0.326151   0.087491   0.013545   0.000250  -0.000315   0.000011
     7  C    5.177215   0.268778  -0.026895  -0.014645   0.002414  -0.000000
     8  C    0.268778   5.290143   0.280561  -0.083190  -0.005301   0.000252
     9  O   -0.026895   0.280561   7.998225   0.225420  -0.007142   0.000088
    10  C   -0.014645  -0.083190   0.225420   4.901480  -0.012351   0.000023
    11  O    0.002414  -0.005301  -0.007142  -0.012351   7.883759   0.006814
    12  H   -0.000000   0.000252   0.000088   0.000023   0.006814   0.371168
    13  H   -0.001661   0.008493  -0.000084   0.000033   0.000128  -0.000163
    14  H    0.006001  -0.001778   0.000008  -0.000004   0.000005  -0.000002
    15  H   -0.028549   0.008375  -0.000294   0.000014  -0.000002   0.000000
    16  H    0.425401  -0.064149   0.006614  -0.001670   0.000036  -0.000001
    17  H    0.011749  -0.021645  -0.045123   0.418864   0.006025  -0.000063
    18  H   -0.001182   0.002645  -0.029746   0.406673   0.000653  -0.000003
    19  H   -0.008340   0.024581  -0.043185   0.393131   0.000567   0.000002
              13         14         15         16         17         18
     1  O    0.009215  -0.000116  -0.000000   0.000008   0.000047   0.000004
     2  C   -0.010688   0.000008   0.000066   0.000176  -0.010244  -0.000892
     3  C   -0.020226   0.007882  -0.002011   0.021862   0.018337  -0.002327
     4  C    0.405738  -0.036975   0.005344  -0.005786  -0.002543   0.000225
     5  C   -0.036866   0.416129  -0.036892   0.009546   0.000486  -0.000068
     6  C    0.004697  -0.036222   0.405593  -0.043374  -0.000322   0.000273
     7  C   -0.001661   0.006001  -0.028549   0.425401   0.011749  -0.001182
     8  C    0.008493  -0.001778   0.008375  -0.064149  -0.021645   0.002645
     9  O   -0.000084   0.000008  -0.000294   0.006614  -0.045123  -0.029746
    10  C    0.000033  -0.000004   0.000014  -0.001670   0.418864   0.406673
    11  O    0.000128   0.000005  -0.000002   0.000036   0.006025   0.000653
    12  H   -0.000163  -0.000002   0.000000  -0.000001  -0.000063  -0.000003
    13  H    0.473133  -0.003606  -0.000207   0.000030  -0.000007   0.000000
    14  H   -0.003606   0.503215  -0.003550  -0.000145   0.000001  -0.000000
    15  H   -0.000207  -0.003550   0.505667  -0.004769  -0.000015  -0.000000
    16  H    0.000030  -0.000145  -0.004769   0.499561   0.000884  -0.000605
    17  H   -0.000007   0.000001  -0.000015   0.000884   0.534176  -0.022795
    18  H    0.000000  -0.000000  -0.000000  -0.000605  -0.022795   0.530715
    19  H   -0.000013   0.000003   0.000052  -0.000832  -0.048360  -0.027861
              19
     1  O    0.000010
     2  C    0.003909
     3  C   -0.001425
     4  C   -0.001195
     5  C    0.000389
     6  C   -0.003621
     7  C   -0.008340
     8  C    0.024581
     9  O   -0.043185
    10  C    0.393131
    11  O    0.000567
    12  H    0.000002
    13  H   -0.000013
    14  H    0.000003
    15  H    0.000052
    16  H   -0.000832
    17  H   -0.048360
    18  H   -0.027861
    19  H    0.584265
 Mulliken charges:
               1
     1  O   -0.421628
     2  C    0.361172
     3  C   -0.005259
     4  C   -0.158529
     5  C   -0.149902
     6  C   -0.123178
     7  C   -0.166236
     8  C    0.154243
     9  O   -0.306429
    10  C   -0.240659
    11  O   -0.344517
    12  H    0.338570
    13  H    0.172054
    14  H    0.149146
    15  H    0.151180
    16  H    0.157213
    17  H    0.160549
    18  H    0.144290
    19  H    0.127921
 Sum of Mulliken charges =  -0.00000
 Mulliken charges with hydrogens summed into heavy atoms:
               1
     1  O   -0.083059
     2  C    0.361172
     3  C   -0.005259
     4  C    0.013524
     5  C   -0.000756
     6  C    0.028002
     7  C   -0.009023
     8  C    0.154243
     9  O   -0.306429
    10  C    0.192101
    11  O   -0.344517
 Electronic spatial extent (au):  <R**2>=           1658.4775
 Charge=              0.0000 electrons
 Dipole moment (field-independent basis, Debye):
    X=             -1.6383    Y=             -0.7835    Z=              1.1561  Tot=              2.1528
 Quadrupole moment (field-independent basis, Debye-Ang):
   XX=            -57.5902   YY=            -56.7953   ZZ=            -66.7304
   XY=             -3.7745   XZ=              0.2681   YZ=              1.2388
 Traceless Quadrupole moment (field-independent basis, Debye-Ang):
   XX=              2.7818   YY=              3.5767   ZZ=             -6.3585
   XY=             -3.7745   XZ=              0.2681   YZ=              1.2388
 Octapole moment (field-independent basis, Debye-Ang**2):
  XXX=              3.2949  YYY=              5.9747  ZZZ=             -2.2900  XYY=             14.3047
  XXY=            -18.5420  XXZ=             -1.6426  XZZ=             12.0120  YZZ=              0.3632
  YYZ=              7.5205  XYZ=              4.1657
 Hexadecapole moment (field-independent basis, Debye-Ang**3):
 XXXX=          -1021.4111 YYYY=           -856.1495 ZZZZ=           -113.6787 XXXY=            -77.8983
 XXXZ=            -10.3063 YYYX=             -6.8940 YYYZ=             -1.1240 ZZZX=              0.3245
 ZZZY=              0.7551 XXYY=           -271.9378 XXZZ=           -218.2993 YYZZ=           -178.3894
 XXYZ=             -4.5430 YYXZ=             -0.8780 ZZXY=             -7.1986
 N-N= 5.977490214858D+02 E-N=-2.446641332665D+03  KE= 5.326579793897D+02
 Unable to Open any file for archive entry.
 1\1\GINC-NOTCH076\SP\RM062X\def2TZVP\C8H8O3\U6032257\05-Feb-2022\0\\# 
 M062X/def2tzvp int=(grid=ultrafine) nmr=giao guess=read geom=check\\Ac
 4.xyz\\0,1\O,0,-0.5695601654,3.0284192792,0.6323569112\C,0,-0.89067497
 21,1.9656108509,-0.1546872767\C,0,0.1387035316,0.8969234172,-0.0977706
 231\C,0,1.0657546024,0.8778401173,0.9576482907\C,0,2.034351565,-0.1148
 031603,1.0467586131\C,0,2.1034868138,-1.1015275926,0.0611767656\C,0,1.
 2030458578,-1.090669552,-1.0000150493\C,0,0.217299471,-0.1041788058,-1
 .0900992658\O,0,-0.5908084561,-0.1071296606,-2.1932576072\C,0,-1.83498
 20238,-0.7967595682,-2.0334668844\O,0,-1.9221343848,1.9482388088,-0.79
 6064276\H,0,-1.3151898364,3.6446016302,0.5443813286\H,0,1.0095487014,1
 .6554719566,1.7094518695\H,0,2.7355769586,-0.1155192935,1.8745702151\H
 ,0,2.8621327981,-1.8763524962,0.1160303228\H,0,1.2500825301,-1.8338691
 386,-1.788713668\H,0,-2.4557961518,-0.3044459253,-1.2815135298\H,0,-2.
 3331369177,-0.7489718998,-3.0027716772\H,0,-1.6639999216,-1.8461789674
 ,-1.7612144592\\Version=ES64L-G16RevC.01\State=1-A\HF=-535.3353452\RMS
 D=3.352e-09\Dipole=0.3580063,-0.4302479,0.6356934\Quadrupole=-0.806653
 6,3.2392631,-2.4326095,-1.9242846,1.0112427,3.5149988\PG=C01 [X(C8H8O3
 )]\\@
 The archive entry for this job was punched.


 IT TAKES GREATER CHARACTER TO CARRY OFF GOOD FORTUNE THAN BAD.
                     FRENCH PROVERB.
 Job cpu time:       0 days  0 hours 24 minutes 10.2 seconds.
 Elapsed time:       0 days  0 hours  0 minutes 50.0 seconds.
 File lengths (MBytes):  RWF=     89 Int=      0 D2E=      0 Chk=     15 Scr=      1
 Normal termination of Gaussian 16 at Sat Feb  5 09:24:09 2022.
