 Entering Gaussian System, Link 0=/uufs/chpc.utah.edu/sys/installdir/gaussian16/C01/AVX2/g16/g16
 Input=Ac5_conf-3.com
 Output=Ac5_conf-3.log
 Initial command:
 /uufs/chpc.utah.edu/sys/installdir/gaussian16/C01/AVX2/g16/l1.exe "/scratch/general/lustre/u6032257/3856660/notchpeak.peaks/Gau-229024.inp" -scrdir="/scratch/general/lustre/u6032257/3856660/notchpeak.peaks/"
 Entering Link 1 = /uufs/chpc.utah.edu/sys/installdir/gaussian16/C01/AVX2/g16/l1.exe PID=    229026.
  
 Copyright (c) 1988-2019, Gaussian, Inc.  All Rights Reserved.
  
 This is part of the Gaussian(R) 16 program.  It is based on
 the Gaussian(R) 09 system (copyright 2009, Gaussian, Inc.),
 the Gaussian(R) 03 system (copyright 2003, Gaussian, Inc.),
 the Gaussian(R) 98 system (copyright 1998, Gaussian, Inc.),
 the Gaussian(R) 94 system (copyright 1995, Gaussian, Inc.),
 the Gaussian 92(TM) system (copyright 1992, Gaussian, Inc.),
 the Gaussian 90(TM) system (copyright 1990, Gaussian, Inc.),
 the Gaussian 88(TM) system (copyright 1988, Gaussian, Inc.),
 the Gaussian 86(TM) system (copyright 1986, Carnegie Mellon
 University), and the Gaussian 82(TM) system (copyright 1983,
 Carnegie Mellon University). Gaussian is a federally registered
 trademark of Gaussian, Inc.
  
 This software contains proprietary and confidential information,
 including trade secrets, belonging to Gaussian, Inc.
  
 This software is provided under written license and may be
 used, copied, transmitted, or stored only in accord with that
 written license.
  
 The following legend is applicable only to US Government
 contracts under FAR:
  
                    RESTRICTED RIGHTS LEGEND
  
 Use, reproduction and disclosure by the US Government is
 subject to restrictions as set forth in subparagraphs (a)
 and (c) of the Commercial Computer Software - Restricted
 Rights clause in FAR 52.227-19.
  
 Gaussian, Inc.
 340 Quinnipiac St., Bldg. 40, Wallingford CT 06492
  
  
 ---------------------------------------------------------------
 Warning -- This program may not be used in any manner that
 competes with the business of Gaussian, Inc. or will provide
 assistance to any competitor of Gaussian, Inc.  The licensee
 of this program is prohibited from giving any competitor of
 Gaussian, Inc. access to this program.  By using this program,
 the user acknowledges that Gaussian, Inc. is engaged in the
 business of creating and licensing software in the field of
 computational chemistry and represents and warrants to the
 licensee that it is not a competitor of Gaussian, Inc. and that
 it will not use this program in any manner prohibited above.
 ---------------------------------------------------------------
  

 Cite this work as:
 Gaussian 16, Revision C.01,
 M. J. Frisch, G. W. Trucks, H. B. Schlegel, G. E. Scuseria, 
 M. A. Robb, J. R. Cheeseman, G. Scalmani, V. Barone, 
 G. A. Petersson, H. Nakatsuji, X. Li, M. Caricato, A. V. Marenich, 
 J. Bloino, B. G. Janesko, R. Gomperts, B. Mennucci, H. P. Hratchian, 
 J. V. Ortiz, A. F. Izmaylov, J. L. Sonnenberg, D. Williams-Young, 
 F. Ding, F. Lipparini, F. Egidi, J. Goings, B. Peng, A. Petrone, 
 T. Henderson, D. Ranasinghe, V. G. Zakrzewski, J. Gao, N. Rega, 
 G. Zheng, W. Liang, M. Hada, M. Ehara, K. Toyota, R. Fukuda, 
 J. Hasegawa, M. Ishida, T. Nakajima, Y. Honda, O. Kitao, H. Nakai, 
 T. Vreven, K. Throssell, J. A. Montgomery, Jr., J. E. Peralta, 
 F. Ogliaro, M. J. Bearpark, J. J. Heyd, E. N. Brothers, K. N. Kudin, 
 V. N. Staroverov, T. A. Keith, R. Kobayashi, J. Normand, 
 K. Raghavachari, A. P. Rendell, J. C. Burant, S. S. Iyengar, 
 J. Tomasi, M. Cossi, J. M. Millam, M. Klene, C. Adamo, R. Cammi, 
 J. W. Ochterski, R. L. Martin, K. Morokuma, O. Farkas, 
 J. B. Foresman, and D. J. Fox, Gaussian, Inc., Wallingford CT, 2019.
 
 ******************************************
 Gaussian 16:  ES64L-G16RevC.01  3-Jul-2019
                 3-Feb-2022 
 ******************************************
 %NProcShared=32
 Will use up to   32 processors via shared memory.
 %mem=16GB
 %chk=Ac5_conf-3.chk
 ----------------------------------------------------------------------
 # B3LYP/6-31G(d,p) empiricaldispersion=GD3BJ int=(grid=ultrafine) opt 
 freq=noraman
 ----------------------------------------------------------------------
 1/18=20,19=15,26=4,38=1/1,3;
 2/9=110,12=2,17=6,18=5,40=1/2;
 3/5=1,6=6,7=101,11=2,25=1,30=1,71=1,74=-5,75=-5,124=41/1,2,3;
 4//1;
 5/5=2,38=5/2;
 6/7=2,8=2,9=2,10=2,28=1/1;
 7//1,2,3,16;
 1/18=20,19=15,26=4/3(2);
 2/9=110/2;
 99//99;
 2/9=110/2;
 3/5=1,6=6,7=101,11=2,25=1,30=1,71=1,74=-5,75=-5,124=41/1,2,3;
 4/5=5,16=3,69=1/1;
 5/5=2,38=5/2;
 7//1,2,3,16;
 1/18=20,19=15,26=4/3(-5);
 2/9=110/2;
 6/7=2,8=2,9=2,10=2,19=2,28=1/1;
 99/9=1/99;
 -------
 Ac5.xyz
 -------
 Symbolic Z-matrix:
 Charge =  0 Multiplicity = 1
 O                    -1.1696   -0.5914    2.2871 
 C                    -1.7016   -0.0874    1.3046 
 C                    -1.0334    0.0867   -0.0983 
 C                     0.4956   -0.1989   -0.014 
 C                     1.3141    0.626     0.776 
 C                     2.6872    0.4114    0.8549 
 C                     3.2631   -0.6324    0.1381 
 C                     2.4752   -1.4618   -0.6536 
 C                     1.1014   -1.2456   -0.7301 
 C                    -1.2371    1.5436   -0.6105 
 C                    -1.7701   -0.8479   -1.1041 
 O                    -2.9806    0.359     1.3475 
 H                     0.8821    1.4328    1.3489 
 H                     3.3004    1.0498    1.4741 
 H                     4.3283   -0.8024    0.2001 
 H                     2.9271   -2.2728   -1.206 
 H                     0.5256   -1.9112   -1.3528 
 H                    -0.7239    1.7013   -1.5603 
 H                    -0.853     2.2892    0.0867 
 H                    -2.2897    1.7804   -0.7753 
 H                    -1.7107   -1.8961   -0.8056 
 H                    -2.831    -0.6044   -1.1873 
 H                    -1.3535   -0.7649   -2.1088 
 H                    -3.2519    0.1751    2.2472 
 

 GradGradGradGradGradGradGradGradGradGradGradGradGradGradGradGradGradGrad
 Berny optimization.
 Initialization pass.
                           ----------------------------
                           !    Initial Parameters    !
                           ! (Angstroms and Degrees)  !
 --------------------------                            --------------------------
 ! Name  Definition              Value          Derivative Info.                !
 --------------------------------------------------------------------------------
 ! R1    R(1,2)                  1.2257         estimate D2E/DX2                !
 ! R2    R(2,3)                  1.5636         estimate D2E/DX2                !
 ! R3    R(2,12)                 1.3553         estimate D2E/DX2                !
 ! R4    R(3,4)                  1.5577         estimate D2E/DX2                !
 ! R5    R(3,10)                 1.5577         estimate D2E/DX2                !
 ! R6    R(3,11)                 1.5582         estimate D2E/DX2                !
 ! R7    R(4,5)                  1.4052         estimate D2E/DX2                !
 ! R8    R(4,9)                  1.4055         estimate D2E/DX2                !
 ! R9    R(5,6)                  1.392          estimate D2E/DX2                !
 ! R10   R(5,13)                 1.0797         estimate D2E/DX2                !
 ! R11   R(6,7)                  1.391          estimate D2E/DX2                !
 ! R12   R(6,14)                 1.0803         estimate D2E/DX2                !
 ! R13   R(7,8)                  1.3912         estimate D2E/DX2                !
 ! R14   R(7,15)                 1.0805         estimate D2E/DX2                !
 ! R15   R(8,9)                  1.3928         estimate D2E/DX2                !
 ! R16   R(8,16)                 1.0803         estimate D2E/DX2                !
 ! R17   R(9,17)                 1.0781         estimate D2E/DX2                !
 ! R18   R(10,18)                1.091          estimate D2E/DX2                !
 ! R19   R(10,19)                1.0907         estimate D2E/DX2                !
 ! R20   R(10,20)                1.0914         estimate D2E/DX2                !
 ! R21   R(11,21)                1.0915         estimate D2E/DX2                !
 ! R22   R(11,22)                1.0917         estimate D2E/DX2                !
 ! R23   R(11,23)                1.0908         estimate D2E/DX2                !
 ! R24   R(12,24)                0.9575         estimate D2E/DX2                !
 ! A1    A(1,2,3)              125.4146         estimate D2E/DX2                !
 ! A2    A(1,2,12)             121.3087         estimate D2E/DX2                !
 ! A3    A(3,2,12)             113.2657         estimate D2E/DX2                !
 ! A4    A(2,3,4)              110.5173         estimate D2E/DX2                !
 ! A5    A(2,3,10)             110.0766         estimate D2E/DX2                !
 ! A6    A(2,3,11)             108.0787         estimate D2E/DX2                !
 ! A7    A(4,3,10)             108.5199         estimate D2E/DX2                !
 ! A8    A(4,3,11)             112.8951         estimate D2E/DX2                !
 ! A9    A(10,3,11)            106.6735         estimate D2E/DX2                !
 ! A10   A(3,4,5)              119.6396         estimate D2E/DX2                !
 ! A11   A(3,4,9)              122.1438         estimate D2E/DX2                !
 ! A12   A(5,4,9)              118.2012         estimate D2E/DX2                !
 ! A13   A(4,5,6)              121.0606         estimate D2E/DX2                !
 ! A14   A(4,5,13)             120.2595         estimate D2E/DX2                !
 ! A15   A(6,5,13)             118.6722         estimate D2E/DX2                !
 ! A16   A(5,6,7)              119.6605         estimate D2E/DX2                !
 ! A17   A(5,6,14)             120.0867         estimate D2E/DX2                !
 ! A18   A(7,6,14)             120.252          estimate D2E/DX2                !
 ! A19   A(6,7,8)              120.406          estimate D2E/DX2                !
 ! A20   A(6,7,15)             119.779          estimate D2E/DX2                !
 ! A21   A(8,7,15)             119.8145         estimate D2E/DX2                !
 ! A22   A(7,8,9)              119.8232         estimate D2E/DX2                !
 ! A23   A(7,8,16)             120.108          estimate D2E/DX2                !
 ! A24   A(9,8,16)             120.0687         estimate D2E/DX2                !
 ! A25   A(4,9,8)              120.8479         estimate D2E/DX2                !
 ! A26   A(4,9,17)             121.5912         estimate D2E/DX2                !
 ! A27   A(8,9,17)             117.5604         estimate D2E/DX2                !
 ! A28   A(3,10,18)            111.0959         estimate D2E/DX2                !
 ! A29   A(3,10,19)            112.5282         estimate D2E/DX2                !
 ! A30   A(3,10,20)            112.2529         estimate D2E/DX2                !
 ! A31   A(18,10,19)           106.9794         estimate D2E/DX2                !
 ! A32   A(18,10,20)           106.9081         estimate D2E/DX2                !
 ! A33   A(19,10,20)           106.7291         estimate D2E/DX2                !
 ! A34   A(3,11,21)            111.9477         estimate D2E/DX2                !
 ! A35   A(3,11,22)            112.0173         estimate D2E/DX2                !
 ! A36   A(3,11,23)            111.6132         estimate D2E/DX2                !
 ! A37   A(21,11,22)           106.7346         estimate D2E/DX2                !
 ! A38   A(21,11,23)           107.7087         estimate D2E/DX2                !
 ! A39   A(22,11,23)           106.4983         estimate D2E/DX2                !
 ! A40   A(2,12,24)            103.5242         estimate D2E/DX2                !
 ! D1    D(1,2,3,4)            -11.5203         estimate D2E/DX2                !
 ! D2    D(1,2,3,10)          -131.3791         estimate D2E/DX2                !
 ! D3    D(1,2,3,11)           112.4753         estimate D2E/DX2                !
 ! D4    D(12,2,3,4)           169.6847         estimate D2E/DX2                !
 ! D5    D(12,2,3,10)           49.8259         estimate D2E/DX2                !
 ! D6    D(12,2,3,11)          -66.3196         estimate D2E/DX2                !
 ! D7    D(1,2,12,24)            0.2668         estimate D2E/DX2                !
 ! D8    D(3,2,12,24)          179.1173         estimate D2E/DX2                !
 ! D9    D(2,3,4,5)            -63.4801         estimate D2E/DX2                !
 ! D10   D(2,3,4,9)            117.9703         estimate D2E/DX2                !
 ! D11   D(10,3,4,5)            57.3106         estimate D2E/DX2                !
 ! D12   D(10,3,4,9)          -121.239          estimate D2E/DX2                !
 ! D13   D(11,3,4,5)           175.3405         estimate D2E/DX2                !
 ! D14   D(11,3,4,9)            -3.2091         estimate D2E/DX2                !
 ! D15   D(2,3,10,18)          176.4575         estimate D2E/DX2                !
 ! D16   D(2,3,10,19)           56.5313         estimate D2E/DX2                !
 ! D17   D(2,3,10,20)          -63.8946         estimate D2E/DX2                !
 ! D18   D(4,3,10,18)           55.3948         estimate D2E/DX2                !
 ! D19   D(4,3,10,19)          -64.5315         estimate D2E/DX2                !
 ! D20   D(4,3,10,20)          175.0426         estimate D2E/DX2                !
 ! D21   D(11,3,10,18)         -66.5183         estimate D2E/DX2                !
 ! D22   D(11,3,10,19)         173.5555         estimate D2E/DX2                !
 ! D23   D(11,3,10,20)          53.1296         estimate D2E/DX2                !
 ! D24   D(2,3,11,21)          -59.6876         estimate D2E/DX2                !
 ! D25   D(2,3,11,22)           60.1675         estimate D2E/DX2                !
 ! D26   D(2,3,11,23)          179.4887         estimate D2E/DX2                !
 ! D27   D(4,3,11,21)           62.8656         estimate D2E/DX2                !
 ! D28   D(4,3,11,22)         -177.2793         estimate D2E/DX2                !
 ! D29   D(4,3,11,23)          -57.9582         estimate D2E/DX2                !
 ! D30   D(10,3,11,21)        -178.0289         estimate D2E/DX2                !
 ! D31   D(10,3,11,22)         -58.1739         estimate D2E/DX2                !
 ! D32   D(10,3,11,23)          61.1473         estimate D2E/DX2                !
 ! D33   D(3,4,5,6)           -178.9159         estimate D2E/DX2                !
 ! D34   D(3,4,5,13)             2.1042         estimate D2E/DX2                !
 ! D35   D(9,4,5,6)             -0.3094         estimate D2E/DX2                !
 ! D36   D(9,4,5,13)          -179.2894         estimate D2E/DX2                !
 ! D37   D(3,4,9,8)            178.8308         estimate D2E/DX2                !
 ! D38   D(3,4,9,17)            -1.4306         estimate D2E/DX2                !
 ! D39   D(5,4,9,8)              0.2613         estimate D2E/DX2                !
 ! D40   D(5,4,9,17)           179.9999         estimate D2E/DX2                !
 ! D41   D(4,5,6,7)              0.2282         estimate D2E/DX2                !
 ! D42   D(4,5,6,14)          -179.4524         estimate D2E/DX2                !
 ! D43   D(13,5,6,7)           179.224          estimate D2E/DX2                !
 ! D44   D(13,5,6,14)           -0.4567         estimate D2E/DX2                !
 ! D45   D(5,6,7,8)             -0.0922         estimate D2E/DX2                !
 ! D46   D(5,6,7,15)          -179.8307         estimate D2E/DX2                !
 ! D47   D(14,6,7,8)           179.588          estimate D2E/DX2                !
 ! D48   D(14,6,7,15)           -0.1505         estimate D2E/DX2                !
 ! D49   D(6,7,8,9)              0.0454         estimate D2E/DX2                !
 ! D50   D(6,7,8,16)          -179.8215         estimate D2E/DX2                !
 ! D51   D(15,7,8,9)           179.7838         estimate D2E/DX2                !
 ! D52   D(15,7,8,16)           -0.0831         estimate D2E/DX2                !
 ! D53   D(7,8,9,4)             -0.1333         estimate D2E/DX2                !
 ! D54   D(7,8,9,17)          -179.882          estimate D2E/DX2                !
 ! D55   D(16,8,9,4)           179.7337         estimate D2E/DX2                !
 ! D56   D(16,8,9,17)           -0.0151         estimate D2E/DX2                !
 --------------------------------------------------------------------------------
 Trust Radius=3.00D-01 FncErr=1.00D-07 GrdErr=1.00D-06 EigMax=2.50D+02 EigMin=1.00D-04
 Number of steps in this run=    130 maximum allowed number of steps=    144.
 GradGradGradGradGradGradGradGradGradGradGradGradGradGradGradGradGradGrad

                          Input orientation:                          
 ---------------------------------------------------------------------
 Center     Atomic      Atomic             Coordinates (Angstroms)
 Number     Number       Type             X           Y           Z
 ---------------------------------------------------------------------
      1          8           0       -1.169600   -0.591400    2.287100
      2          6           0       -1.701600   -0.087400    1.304600
      3          6           0       -1.033400    0.086700   -0.098300
      4          6           0        0.495600   -0.198900   -0.014000
      5          6           0        1.314100    0.626000    0.776000
      6          6           0        2.687200    0.411400    0.854900
      7          6           0        3.263100   -0.632400    0.138100
      8          6           0        2.475200   -1.461800   -0.653600
      9          6           0        1.101400   -1.245600   -0.730100
     10          6           0       -1.237100    1.543600   -0.610500
     11          6           0       -1.770100   -0.847900   -1.104100
     12          8           0       -2.980600    0.359000    1.347500
     13          1           0        0.882100    1.432800    1.348900
     14          1           0        3.300400    1.049800    1.474100
     15          1           0        4.328300   -0.802400    0.200100
     16          1           0        2.927100   -2.272800   -1.206000
     17          1           0        0.525600   -1.911200   -1.352800
     18          1           0       -0.723900    1.701300   -1.560300
     19          1           0       -0.853000    2.289200    0.086700
     20          1           0       -2.289700    1.780400   -0.775300
     21          1           0       -1.710700   -1.896100   -0.805600
     22          1           0       -2.831000   -0.604400   -1.187300
     23          1           0       -1.353500   -0.764900   -2.108800
     24          1           0       -3.251900    0.175100    2.247200
 ---------------------------------------------------------------------
                    Distance matrix (angstroms):
                    1          2          3          4          5
     1  O    0.000000
     2  C    1.225702   0.000000
     3  C    2.483647   1.563627   0.000000
     4  C    2.867404   2.564922   1.557727   0.000000
     5  C    3.151865   3.143693   2.562421   1.405170   0.000000
     6  C    4.234585   4.439887   3.854463   2.435275   1.392006
     7  C    4.926328   5.128937   4.362671   2.805372   2.406052
     8  C    4.763390   4.813438   3.875111   2.433685   2.784029
     9  C    3.832612   3.652156   2.594526   1.405480   2.411735
    10  C    3.599843   2.558032   1.557691   2.528709   3.045159
    11  C    3.453495   2.526834   1.558152   2.596712   3.901211
    12  O    2.250740   1.355343   2.440507   3.774772   4.340778
    13  H    3.031019   2.998079   2.752365   2.160862   1.079706
    14  H    4.830673   5.132442   4.709759   3.411832   2.147635
    15  H    5.884471   6.171778   5.443103   3.885826   3.384877
    16  H    5.640195   5.701223   4.741287   3.410882   3.864341
    17  H    4.226635   3.917709   2.827694   2.173766   3.404542
    18  H    4.500845   3.516105   2.200038   2.736601   3.281465
    19  H    3.638661   2.802076   2.217606   2.831873   2.817391
    20  H    4.032165   2.856663   2.214777   3.500729   4.089810
    21  H    3.399974   2.779285   2.211448   2.893938   4.244038
    22  H    3.851217   2.784313   2.212443   3.550680   4.748714
    23  H    4.403165   3.497353   2.206762   2.850915   4.168065
    24  H    2.219254   1.833257   3.229695   4.392796   4.818308
                    6          7          8          9         10
     6  C    0.000000
     7  C    1.391036   0.000000
     8  C    2.414414   1.391215   0.000000
     9  C    2.787945   2.408886   1.392811   0.000000
    10  C    4.339286   5.054422   4.776553   3.641775   0.000000
    11  C    5.029020   5.188700   4.313049   2.922936   2.499400
    12  O    5.689407   6.436561   6.089784   4.853235   2.876949
    13  H    2.132060   3.376425   3.863507   3.397670   2.888344
    14  H    1.080267   2.148507   3.393552   3.868199   5.017799
    15  H    2.143661   1.080461   2.144200   3.387415   6.093806
    16  H    3.392608   2.147187   1.080315   2.148209   5.679797
    17  H    3.865349   3.369276   2.119382   1.078111   3.948894
    18  H    4.374087   4.922082   4.589286   3.564431   1.091038
    19  H    4.080353   5.047838   5.069020   4.120880   1.090660
    20  H    5.413063   6.122866   5.764629   4.545138   1.091421
    21  H    5.236730   5.217873   4.211114   2.887344   3.477628
    22  H    5.971010   6.236628   5.401456   4.010479   2.736260
    23  H    5.147277   5.136060   4.154783   2.856295   2.754564
    24  H    6.104690   6.895331   6.625236   5.462044   3.754818
                   11         12         13         14         15
    11  C    0.000000
    12  O    2.988689   0.000000
    13  H    4.272349   4.009177   0.000000
    14  H    5.996528   6.320142   2.451640   0.000000
    15  H    6.236465   7.489018   4.265226   2.471902   0.000000
    16  H    4.909624   6.953248   4.943785   4.285086   2.470335
    17  H    2.542184   4.973818   4.313770   4.945543   4.254581
    18  H    2.793040   3.917878   3.333883   5.082030   5.906966
    19  H    3.478573   3.137191   2.310225   4.551013   6.034627
    20  H    2.699269   2.646507   3.833193   6.069827   7.170787
    21  H    1.091492   3.366595   4.737727   6.243916   6.219094
    22  H    1.091661   2.715830   4.936558   6.885746   7.295181
    23  H    1.090810   3.982037   4.667278   6.147283   6.133129
    24  H    3.804402   0.957540   4.413469   6.655480   7.912367
                   16         17         18         19         20
    16  H    0.000000
    17  H    2.433004   0.000000
    18  H    5.408216   3.828115   0.000000
    19  H    6.063998   4.649307   1.753540   0.000000
    20  H    6.620343   4.678390   1.753343   1.751008   0.000000
    21  H    4.670269   2.302324   3.805868   4.364468   3.721937
    22  H    5.994967   3.605812   3.145672   3.729408   2.479924
    23  H    4.627348   2.327350   2.603726   3.794502   3.022126
    24  H    7.489783   5.619800   4.818415   3.859002   3.555042
                   21         22         23         24
    21  H    0.000000
    22  H    1.751929   0.000000
    23  H    1.762253   1.748693   0.000000
    24  H    3.998094   3.546910   4.843786   0.000000
 Stoichiometry    C10H12O2
 Framework group  C1[X(C10H12O2)]
 Deg. of freedom    66
 Full point group                 C1      NOp   1
 Largest Abelian subgroup         C1      NOp   1
 Largest concise Abelian subgroup C1      NOp   1
                         Standard orientation:                         
 ---------------------------------------------------------------------
 Center     Atomic      Atomic             Coordinates (Angstroms)
 Number     Number       Type             X           Y           Z
 ---------------------------------------------------------------------
      1          8           0       -1.348243   -1.450485   -1.288181
      2          6           0       -1.808725   -0.635928   -0.496474
      3          6           0       -0.985350    0.455528    0.262278
      4          6           0        0.542273    0.193685    0.106330
      5          6           0        1.103652   -0.980632    0.635799
      6          6           0        2.468566   -1.233866    0.533015
      7          6           0        3.294397   -0.310041   -0.099069
      8          6           0        2.763878    0.861686   -0.629243
      9          6           0        1.397694    1.112283   -0.525973
     10          6           0       -1.338769    0.433665    1.779189
     11          6           0       -1.419407    1.851140   -0.277815
     12          8           0       -3.134711   -0.595596   -0.218823
     13          1           0        0.475530   -1.714385    1.118328
     14          1           0        2.882128   -2.145994    0.937944
     15          1           0        4.353682   -0.505939   -0.182345
     16          1           0        3.409232    1.574496   -1.121687
     17          1           0        1.025417    2.030405   -0.951161
     18          1           0       -0.728041    1.146711    2.335012
     19          1           0       -1.176825   -0.545289    2.231917
     20          1           0       -2.381667    0.696820    1.964429
     21          1           0       -1.240526    1.947215   -1.350254
     22          1           0       -2.482920    2.038950   -0.118468
     23          1           0       -0.883834    2.659579    0.221638
     24          1           0       -3.497795   -1.299041   -0.757541
 ---------------------------------------------------------------------
 Rotational constants (GHZ):           1.7672944           0.6349911           0.5825852
 Standard basis: 6-31G(d,p) (6D, 7F)
 There are   240 symmetry adapted cartesian basis functions of A   symmetry.
 There are   240 symmetry adapted basis functions of A   symmetry.
   240 basis functions,   420 primitive gaussians,   240 cartesian basis functions
    44 alpha electrons       44 beta electrons
       nuclear repulsion energy       691.2818729091 Hartrees.
 NAtoms=   24 NActive=   24 NUniq=   24 SFac= 1.00D+00 NAtFMM=   60 NAOKFM=F Big=F
 Integral buffers will be    131072 words long.
 Raffenetti 2 integral format.
 Two-electron integral symmetry is turned on.
 Nuclear repulsion after empirical dispersion term =      691.2357441036 Hartrees.
 One-electron integrals computed using PRISM.
 NBasis=   240 RedAO= T EigKep=  4.51D-04  NBF=   240
 NBsUse=   240 1.00D-06 EigRej= -1.00D+00 NBFU=   240
 ExpMin= 1.61D-01 ExpMax= 5.48D+03 ExpMxC= 8.25D+02 IAcc=3 IRadAn=         5 AccDes= 0.00D+00
 Harris functional with IExCor=  402 and IRadAn=       5 diagonalized for initial guess.
 HarFok:  IExCor=  402 AccDes= 0.00D+00 IRadAn=         5 IDoV= 1 UseB2=F ITyADJ=14
 ICtDFT=  3500011 ScaDFX=  1.000000  1.000000  1.000000  1.000000
 FoFCou: FMM=F IPFlag=           0 FMFlag=      100000 FMFlg1=           0
         NFxFlg=           0 DoJE=T BraDBF=F KetDBF=T FulRan=T
         wScrn=  0.000000 ICntrl=       500 IOpCl=  0 I1Cent=   200000004 NGrid=           0
         NMat0=    1 NMatS0=      1 NMatT0=    0 NMatD0=    1 NMtDS0=    0 NMtDT0=    0
 Petite list used in FoFCou.
 Requested convergence on RMS density matrix=1.00D-08 within 128 cycles.
 Requested convergence on MAX density matrix=1.00D-06.
 Requested convergence on             energy=1.00D-06.
 No special actions if energy rises.
 Integral accuracy reduced to 1.0D-05 until final iterations.
 Initial convergence to 1.0D-05 achieved.  Increase integral accuracy.
 SCF Done:  E(RB3LYP) =  -538.816155006     A.U. after   15 cycles
            NFock= 15  Conv=0.32D-08     -V/T= 2.0097

 **********************************************************************

            Population analysis using the SCF Density.

 **********************************************************************

 Orbital symmetries:
       Occupied  (A) (A) (A) (A) (A) (A) (A) (A) (A) (A) (A) (A)
                 (A) (A) (A) (A) (A) (A) (A) (A) (A) (A) (A) (A)
                 (A) (A) (A) (A) (A) (A) (A) (A) (A) (A) (A) (A)
                 (A) (A) (A) (A) (A) (A) (A) (A)
       Virtual   (A) (A) (A) (A) (A) (A) (A) (A) (A) (A) (A) (A)
                 (A) (A) (A) (A) (A) (A) (A) (A) (A) (A) (A) (A)
                 (A) (A) (A) (A) (A) (A) (A) (A) (A) (A) (A) (A)
                 (A) (A) (A) (A) (A) (A) (A) (A) (A) (A) (A) (A)
                 (A) (A) (A) (A) (A) (A) (A) (A) (A) (A) (A) (A)
                 (A) (A) (A) (A) (A) (A) (A) (A) (A) (A) (A) (A)
                 (A) (A) (A) (A) (A) (A) (A) (A) (A) (A) (A) (A)
                 (A) (A) (A) (A) (A) (A) (A) (A) (A) (A) (A) (A)
                 (A) (A) (A) (A) (A) (A) (A) (A) (A) (A) (A) (A)
                 (A) (A) (A) (A) (A) (A) (A) (A) (A) (A) (A) (A)
                 (A) (A) (A) (A) (A) (A) (A) (A) (A) (A) (A) (A)
                 (A) (A) (A) (A) (A) (A) (A) (A) (A) (A) (A) (A)
                 (A) (A) (A) (A) (A) (A) (A) (A) (A) (A) (A) (A)
                 (A) (A) (A) (A) (A) (A) (A) (A) (A) (A) (A) (A)
                 (A) (A) (A) (A) (A) (A) (A) (A) (A) (A) (A) (A)
                 (A) (A) (A) (A) (A) (A) (A) (A) (A) (A) (A) (A)
                 (A) (A) (A) (A)
 The electronic state is 1-A.
 Alpha  occ. eigenvalues --  -19.19957 -19.13848 -10.32189 -10.22764 -10.19782
 Alpha  occ. eigenvalues --  -10.18725 -10.18493 -10.18445 -10.18407 -10.18388
 Alpha  occ. eigenvalues --  -10.18376 -10.18275  -1.10801  -1.00870  -0.85488
 Alpha  occ. eigenvalues --   -0.81130  -0.74173  -0.73007  -0.69366  -0.65634
 Alpha  occ. eigenvalues --   -0.61295  -0.59743  -0.55980  -0.51086  -0.48428
 Alpha  occ. eigenvalues --   -0.48136  -0.45828  -0.44794  -0.44004  -0.43468
 Alpha  occ. eigenvalues --   -0.42029  -0.41557  -0.39451  -0.38457  -0.37462
 Alpha  occ. eigenvalues --   -0.37277  -0.35534  -0.35035  -0.32935  -0.32812
 Alpha  occ. eigenvalues --   -0.31597  -0.26943  -0.24569  -0.23964
 Alpha virt. eigenvalues --    0.00096   0.00257   0.00641   0.07795   0.09244
 Alpha virt. eigenvalues --    0.11700   0.12899   0.14076   0.14555   0.15331
 Alpha virt. eigenvalues --    0.15936   0.16955   0.18269   0.18774   0.19483
 Alpha virt. eigenvalues --    0.20399   0.22912   0.23749   0.24320   0.24556
 Alpha virt. eigenvalues --    0.30480   0.31174   0.32994   0.33662   0.35336
 Alpha virt. eigenvalues --    0.37388   0.46104   0.49084   0.50154   0.52124
 Alpha virt. eigenvalues --    0.53554   0.53825   0.55731   0.56198   0.57686
 Alpha virt. eigenvalues --    0.58567   0.59881   0.60288   0.61129   0.61743
 Alpha virt. eigenvalues --    0.62849   0.63852   0.65017   0.65999   0.67161
 Alpha virt. eigenvalues --    0.69149   0.73334   0.74563   0.75598   0.76722
 Alpha virt. eigenvalues --    0.77789   0.78336   0.80995   0.82251   0.82810
 Alpha virt. eigenvalues --    0.83189   0.84556   0.86219   0.87479   0.88996
 Alpha virt. eigenvalues --    0.89623   0.90088   0.91070   0.91814   0.95084
 Alpha virt. eigenvalues --    0.95475   0.96279   0.97871   0.99163   1.00556
 Alpha virt. eigenvalues --    1.02890   1.04486   1.07422   1.10788   1.12270
 Alpha virt. eigenvalues --    1.14128   1.14971   1.16546   1.20585   1.24289
 Alpha virt. eigenvalues --    1.27151   1.30397   1.33827   1.35147   1.37487
 Alpha virt. eigenvalues --    1.40895   1.42382   1.42615   1.43448   1.45179
 Alpha virt. eigenvalues --    1.46366   1.49540   1.54702   1.56022   1.58749
 Alpha virt. eigenvalues --    1.64085   1.67471   1.70525   1.74303   1.77144
 Alpha virt. eigenvalues --    1.79715   1.80859   1.81759   1.82486   1.83133
 Alpha virt. eigenvalues --    1.84590   1.85825   1.87585   1.89524   1.92848
 Alpha virt. eigenvalues --    1.93651   1.94314   1.96933   1.98288   1.99033
 Alpha virt. eigenvalues --    2.00900   2.02546   2.05775   2.06150   2.07271
 Alpha virt. eigenvalues --    2.07897   2.11344   2.11902   2.14019   2.14710
 Alpha virt. eigenvalues --    2.16375   2.18454   2.18793   2.25783   2.29233
 Alpha virt. eigenvalues --    2.31265   2.31808   2.33606   2.35066   2.36015
 Alpha virt. eigenvalues --    2.38126   2.38892   2.39837   2.42556   2.45688
 Alpha virt. eigenvalues --    2.47254   2.48574   2.50022   2.52088   2.54252
 Alpha virt. eigenvalues --    2.55134   2.56516   2.57057   2.58901   2.60125
 Alpha virt. eigenvalues --    2.61652   2.66041   2.66779   2.72429   2.72828
 Alpha virt. eigenvalues --    2.73139   2.75497   2.77344   2.79916   2.80657
 Alpha virt. eigenvalues --    2.84933   2.86412   2.88010   2.89320   2.92131
 Alpha virt. eigenvalues --    2.96885   2.97310   3.03864   3.07034   3.17811
 Alpha virt. eigenvalues --    3.19450   3.21232   3.23827   3.25766   3.27343
 Alpha virt. eigenvalues --    3.36948   3.42967   3.43703   3.44811   3.45713
 Alpha virt. eigenvalues --    3.49575   3.50419   3.52585   3.90118   3.95260
 Alpha virt. eigenvalues --    4.13408   4.15504   4.17315   4.24801   4.39875
 Alpha virt. eigenvalues --    4.43923   4.47911   4.53937   4.55454   4.72293
 Alpha virt. eigenvalues --    4.85360
          Condensed to atoms (all electrons):
               1          2          3          4          5          6
     1  O    8.045017   0.567868  -0.075092   0.002460   0.002351  -0.000176
     2  C    0.567868   4.439183   0.298990  -0.040104  -0.004526  -0.000024
     3  C   -0.075092   0.298990   5.226618   0.328612  -0.057030   0.005358
     4  C    0.002460  -0.040104   0.328612   4.732623   0.527963  -0.020758
     5  C    0.002351  -0.004526  -0.057030   0.527963   4.884475   0.528767
     6  C   -0.000176  -0.000024   0.005358  -0.020758   0.528767   4.812231
     7  C    0.000015   0.000013   0.000267  -0.036438  -0.038202   0.548669
     8  C   -0.000012  -0.000108   0.006530  -0.024481  -0.045344  -0.031012
     9  C   -0.000201   0.000098  -0.044214   0.548656  -0.043450  -0.043105
    10  C    0.001270  -0.038933   0.342392  -0.049614  -0.005445   0.000235
    11  C   -0.000681  -0.038557   0.350273  -0.036258   0.004399  -0.000132
    12  O   -0.087406   0.241895  -0.090925   0.001995   0.000059  -0.000001
    13  H    0.001338   0.001783  -0.008479  -0.048271   0.366625  -0.039836
    14  H   -0.000002  -0.000001  -0.000174   0.003735  -0.037746   0.366702
    15  H    0.000000   0.000000   0.000009   0.000874   0.005009  -0.042726
    16  H   -0.000000   0.000001  -0.000163   0.004021   0.000846   0.004646
    17  H   -0.000007   0.000112  -0.015130  -0.040644   0.005958   0.000425
    18  H   -0.000061   0.003669  -0.026752  -0.002377  -0.000654  -0.000095
    19  H    0.000214  -0.002749  -0.029476  -0.006533   0.003252   0.000018
    20  H    0.000026  -0.004968  -0.025457   0.004749   0.000224  -0.000000
    21  H    0.000891  -0.002277  -0.028927  -0.004125  -0.000093   0.000000
    22  H    0.000020  -0.005191  -0.025073   0.003604  -0.000090   0.000002
    23  H   -0.000063   0.003853  -0.025699  -0.005119  -0.000001  -0.000003
    24  H    0.012716  -0.010686   0.010679  -0.000274  -0.000010   0.000000
               7          8          9         10         11         12
     1  O    0.000015  -0.000012  -0.000201   0.001270  -0.000681  -0.087406
     2  C    0.000013  -0.000108   0.000098  -0.038933  -0.038557   0.241895
     3  C    0.000267   0.006530  -0.044214   0.342392   0.350273  -0.090925
     4  C   -0.036438  -0.024481   0.548656  -0.049614  -0.036258   0.001995
     5  C   -0.038202  -0.045344  -0.043450  -0.005445   0.004399   0.000059
     6  C    0.548669  -0.031012  -0.043105   0.000235  -0.000132  -0.000001
     7  C    4.798781   0.553846  -0.038285   0.000003  -0.000003  -0.000000
     8  C    0.553846   4.830904   0.516803  -0.000176   0.000053   0.000000
     9  C   -0.038285   0.516803   4.890564   0.000232  -0.007050  -0.000039
    10  C    0.000003  -0.000176   0.000232   4.983815  -0.052260   0.002791
    11  C   -0.000003   0.000053  -0.007050  -0.052260   4.968262   0.001254
    12  O   -0.000000   0.000000  -0.000039   0.002791   0.001254   8.129368
    13  H    0.005197   0.000461   0.005525  -0.000358   0.000157  -0.000161
    14  H   -0.042125   0.004682   0.000884   0.000004   0.000002  -0.000000
    15  H    0.367425  -0.042634   0.005016  -0.000000  -0.000000   0.000000
    16  H   -0.042390   0.366289  -0.037574   0.000002   0.000007  -0.000000
    17  H    0.005303  -0.046515   0.366552   0.000221   0.006435  -0.000001
    18  H   -0.000010  -0.000015   0.001124   0.377929  -0.006065   0.000096
    19  H   -0.000003   0.000007  -0.000118   0.378362   0.005057   0.000245
    20  H   -0.000000   0.000002  -0.000051   0.371699  -0.005599   0.003828
    21  H   -0.000005   0.000026   0.000577   0.005607   0.375714  -0.000092
    22  H    0.000000  -0.000006   0.000363  -0.005415   0.377187   0.004206
    23  H   -0.000007   0.000049   0.000920  -0.006710   0.380699   0.000018
    24  H    0.000000  -0.000000   0.000001  -0.000507  -0.000311   0.270198
              13         14         15         16         17         18
     1  O    0.001338  -0.000002   0.000000  -0.000000  -0.000007  -0.000061
     2  C    0.001783  -0.000001   0.000000   0.000001   0.000112   0.003669
     3  C   -0.008479  -0.000174   0.000009  -0.000163  -0.015130  -0.026752
     4  C   -0.048271   0.003735   0.000874   0.004021  -0.040644  -0.002377
     5  C    0.366625  -0.037746   0.005009   0.000846   0.005958  -0.000654
     6  C   -0.039836   0.366702  -0.042726   0.004646   0.000425  -0.000095
     7  C    0.005197  -0.042125   0.367425  -0.042390   0.005303  -0.000010
     8  C    0.000461   0.004682  -0.042634   0.366289  -0.046515  -0.000015
     9  C    0.005525   0.000884   0.005016  -0.037574   0.366552   0.001124
    10  C   -0.000358   0.000004  -0.000000   0.000002   0.000221   0.377929
    11  C    0.000157   0.000002  -0.000000   0.000007   0.006435  -0.006065
    12  O   -0.000161  -0.000000   0.000000  -0.000000  -0.000001   0.000096
    13  H    0.638942  -0.006421  -0.000213   0.000018  -0.000167   0.000086
    14  H   -0.006421   0.631906  -0.006405  -0.000202   0.000018   0.000001
    15  H   -0.000213  -0.006405   0.639522  -0.006456  -0.000217  -0.000000
    16  H    0.000018  -0.000202  -0.006456   0.634046  -0.006721   0.000001
    17  H   -0.000167   0.000018  -0.000217  -0.006721   0.642860  -0.000016
    18  H    0.000086   0.000001  -0.000000   0.000001  -0.000016   0.594662
    19  H    0.002809   0.000003  -0.000000   0.000000  -0.000007  -0.030836
    20  H   -0.000114  -0.000000  -0.000000  -0.000000  -0.000009  -0.030272
    21  H    0.000001   0.000000   0.000000   0.000003   0.001339  -0.000040
    22  H   -0.000005  -0.000000  -0.000000  -0.000000  -0.000079  -0.000108
    23  H   -0.000001   0.000000   0.000000   0.000002   0.001016   0.003951
    24  H    0.000011   0.000000  -0.000000   0.000000   0.000000   0.000016
              19         20         21         22         23         24
     1  O    0.000214   0.000026   0.000891   0.000020  -0.000063   0.012716
     2  C   -0.002749  -0.004968  -0.002277  -0.005191   0.003853  -0.010686
     3  C   -0.029476  -0.025457  -0.028927  -0.025073  -0.025699   0.010679
     4  C   -0.006533   0.004749  -0.004125   0.003604  -0.005119  -0.000274
     5  C    0.003252   0.000224  -0.000093  -0.000090  -0.000001  -0.000010
     6  C    0.000018  -0.000000   0.000000   0.000002  -0.000003   0.000000
     7  C   -0.000003  -0.000000  -0.000005   0.000000  -0.000007   0.000000
     8  C    0.000007   0.000002   0.000026  -0.000006   0.000049  -0.000000
     9  C   -0.000118  -0.000051   0.000577   0.000363   0.000920   0.000001
    10  C    0.378362   0.371699   0.005607  -0.005415  -0.006710  -0.000507
    11  C    0.005057  -0.005599   0.375714   0.377187   0.380699  -0.000311
    12  O    0.000245   0.003828  -0.000092   0.004206   0.000018   0.270198
    13  H    0.002809  -0.000114   0.000001  -0.000005  -0.000001   0.000011
    14  H    0.000003  -0.000000   0.000000  -0.000000   0.000000   0.000000
    15  H   -0.000000  -0.000000   0.000000  -0.000000   0.000000  -0.000000
    16  H    0.000000  -0.000000   0.000003  -0.000000   0.000002   0.000000
    17  H   -0.000007  -0.000009   0.001339  -0.000079   0.001016   0.000000
    18  H   -0.030836  -0.030272  -0.000040  -0.000108   0.003951   0.000016
    19  H    0.602084  -0.030043  -0.000200   0.000008   0.000015  -0.000087
    20  H   -0.030043   0.593901  -0.000000   0.003658  -0.000013  -0.000057
    21  H   -0.000200  -0.000000   0.598737  -0.030458  -0.033594  -0.000073
    22  H    0.000008   0.003658  -0.030458   0.586994  -0.030068  -0.000148
    23  H    0.000015  -0.000013  -0.033594  -0.030068   0.593416   0.000019
    24  H   -0.000087  -0.000057  -0.000073  -0.000148   0.000019   0.398091
 Mulliken charges:
               1
     1  O   -0.470487
     2  C    0.590659
     3  C   -0.117137
     4  C    0.155705
     5  C   -0.097339
     6  C   -0.089187
     7  C   -0.082053
     8  C   -0.089349
     9  C   -0.123229
    10  C   -0.305146
    11  C   -0.322580
    12  O   -0.477329
    13  H    0.081071
    14  H    0.085141
    15  H    0.080795
    16  H    0.083623
    17  H    0.079274
    18  H    0.115766
    19  H    0.107977
    20  H    0.118495
    21  H    0.116988
    22  H    0.120597
    23  H    0.117320
    24  H    0.320424
 Sum of Mulliken charges =  -0.00000
 Mulliken charges with hydrogens summed into heavy atoms:
               1
     1  O   -0.470487
     2  C    0.590659
     3  C   -0.117137
     4  C    0.155705
     5  C   -0.016268
     6  C   -0.004046
     7  C   -0.001258
     8  C   -0.005725
     9  C   -0.043955
    10  C    0.037092
    11  C    0.032325
    12  O   -0.156904
 Electronic spatial extent (au):  <R**2>=           2109.2349
 Charge=             -0.0000 electrons
 Dipole moment (field-independent basis, Debye):
    X=             -0.8056    Y=              1.0147    Z=              1.0053  Tot=              1.6398
 Quadrupole moment (field-independent basis, Debye-Ang):
   XX=            -62.3003   YY=            -67.8375   ZZ=            -72.6391
   XY=              1.2590   XZ=              0.4703   YZ=             -4.4485
 Traceless Quadrupole moment (field-independent basis, Debye-Ang):
   XX=              5.2920   YY=             -0.2452   ZZ=             -5.0468
   XY=              1.2590   XZ=              0.4703   YZ=             -4.4485
 Octapole moment (field-independent basis, Debye-Ang**2):
  XXX=            -23.5582  YYY=             -5.5277  ZZZ=             -2.4123  XYY=             -8.6854
  XXY=            -19.3722  XXZ=            -16.7235  XZZ=            -11.6554  YZZ=              1.8255
  YYZ=              2.5858  XYZ=             -6.9391
 Hexadecapole moment (field-independent basis, Debye-Ang**3):
 XXXX=          -1648.2930 YYYY=           -551.7782 ZZZZ=           -377.1414 XXXY=             68.9316
 XXXZ=             40.4807 YYYX=             19.1902 YYYZ=             -8.6731 ZZZX=              8.2725
 ZZZY=              1.2223 XXYY=           -355.2541 XXZZ=           -365.2591 YYZZ=           -155.3355
 XXYZ=              3.4780 YYXZ=              4.4499 ZZXY=              5.9066
 N-N= 6.912357441036D+02 E-N=-2.635995999973D+03  KE= 5.336492050576D+02
 Calling FoFJK, ICntrl=      2127 FMM=F ISym2X=0 I1Cent= 0 IOpClX= 0 NMat=1 NMatS=1 NMatT=0.
 ***** Axes restored to original set *****
 -------------------------------------------------------------------
 Center     Atomic                   Forces (Hartrees/Bohr)
 Number     Number              X              Y              Z
 -------------------------------------------------------------------
      1        8          -0.010681734    0.010491756   -0.019636084
      2        6           0.021015483   -0.009871848    0.005597196
      3        6          -0.000052640    0.003288099   -0.004964212
      4        6          -0.010271508   -0.002659014    0.000309144
      5        6          -0.001285423   -0.004226060   -0.002340856
      6        6          -0.005221557   -0.001894800   -0.002620962
      7        6           0.003890110   -0.001961228   -0.000701405
      8        6          -0.000571839    0.005172954    0.003482466
      9        6          -0.001897299    0.004958979    0.003945618
     10        6          -0.002526543    0.002431414    0.003545946
     11        6          -0.000155639   -0.002963572    0.005550613
     12        8           0.008448087    0.001940550   -0.015289138
     13        1          -0.003126051    0.002160381    0.001824741
     14        1           0.001787429    0.002372655    0.002072346
     15        1           0.004073820   -0.000631875    0.000156499
     16        1           0.001099554   -0.002790024   -0.002089241
     17        1          -0.004874205   -0.000819952   -0.001239417
     18        1           0.002818190   -0.003876604   -0.000944765
     19        1           0.001900071   -0.000223268    0.002221075
     20        1          -0.002347351   -0.003102277    0.001957721
     21        1           0.001652078   -0.001627659    0.001308864
     22        1          -0.000041011    0.003590591    0.003913357
     23        1           0.003929978    0.002222168   -0.000024700
     24        1          -0.007561999   -0.001981367    0.013965195
 -------------------------------------------------------------------
 Cartesian Forces:  Max     0.021015483 RMS     0.005673191

 GradGradGradGradGradGradGradGradGradGradGradGradGradGradGradGradGradGrad
 Berny optimization.
 FormGI is forming the generalized inverse of G from B-inverse, IUseBI=4.
 Internal  Forces:  Max     0.024690121 RMS     0.004299113
 Search for a local minimum.
 Step number   1 out of a maximum of  130
 All quantities printed in internal units (Hartrees-Bohrs-Radians)
 Mixed Optimization -- RFO/linear search
 Second derivative matrix not updated -- first step.
 ITU=  0
     Eigenvalues ---    0.00230   0.00230   0.00230   0.00230   0.00709
     Eigenvalues ---    0.01294   0.02040   0.02093   0.02110   0.02158
     Eigenvalues ---    0.02194   0.02200   0.02202   0.02206   0.02283
     Eigenvalues ---    0.05117   0.05183   0.05246   0.05301   0.05326
     Eigenvalues ---    0.05567   0.05685   0.15046   0.15998   0.16000
     Eigenvalues ---    0.16000   0.16000   0.16000   0.16000   0.16000
     Eigenvalues ---    0.16000   0.16000   0.16000   0.16000   0.16000
     Eigenvalues ---    0.16003   0.22000   0.22000   0.23464   0.24992
     Eigenvalues ---    0.24997   0.25000   0.26524   0.26970   0.27005
     Eigenvalues ---    0.27008   0.34621   0.34641   0.34649   0.34693
     Eigenvalues ---    0.34719   0.34736   0.35939   0.35956   0.35962
     Eigenvalues ---    0.36030   0.36223   0.41664   0.41985   0.45312
     Eigenvalues ---    0.46196   0.46899   0.47087   0.53900   0.56006
     Eigenvalues ---    0.92901
 RFO step:  Lambda=-7.35001248D-03 EMin= 2.30000000D-03
 Linear search not attempted -- first point.
 Iteration  1 RMS(Cart)=  0.05212957 RMS(Int)=  0.00078915
 Iteration  2 RMS(Cart)=  0.00121412 RMS(Int)=  0.00016233
 Iteration  3 RMS(Cart)=  0.00000067 RMS(Int)=  0.00016233
 Variable       Old X    -DE/DX   Delta X   Delta X   Delta X     New X
                                 (Linear)    (Quad)   (Total)
    R1        2.31624  -0.02469   0.00000  -0.02637  -0.02637   2.28987
    R2        2.95483  -0.01864   0.00000  -0.06839  -0.06839   2.88644
    R3        2.56123  -0.00089   0.00000  -0.00163  -0.00163   2.55959
    R4        2.94368  -0.01588   0.00000  -0.05726  -0.05726   2.88641
    R5        2.94361  -0.00667   0.00000  -0.02405  -0.02405   2.91956
    R6        2.94448  -0.01022   0.00000  -0.03688  -0.03688   2.90760
    R7        2.65539  -0.00473   0.00000  -0.01126  -0.01127   2.64411
    R8        2.65597  -0.00737   0.00000  -0.01705  -0.01707   2.63890
    R9        2.63051   0.00113   0.00000   0.00234   0.00233   2.63285
   R10        2.04035   0.00383   0.00000   0.01043   0.01043   2.05077
   R11        2.62868   0.00331   0.00000   0.00772   0.00774   2.63642
   R12        2.04141   0.00360   0.00000   0.00982   0.00982   2.05123
   R13        2.62902   0.00137   0.00000   0.00370   0.00372   2.63273
   R14        2.04177   0.00412   0.00000   0.01125   0.01125   2.05302
   R15        2.63203   0.00383   0.00000   0.00808   0.00808   2.64012
   R16        2.04150   0.00362   0.00000   0.00987   0.00987   2.05137
   R17        2.03734   0.00383   0.00000   0.01035   0.01035   2.04769
   R18        2.06176   0.00159   0.00000   0.00448   0.00448   2.06624
   R19        2.06105   0.00194   0.00000   0.00546   0.00546   2.06651
   R20        2.06249   0.00130   0.00000   0.00366   0.00366   2.06615
   R21        2.06262   0.00201   0.00000   0.00568   0.00568   2.06830
   R22        2.06294   0.00054   0.00000   0.00153   0.00153   2.06447
   R23        2.06133   0.00169   0.00000   0.00477   0.00477   2.06611
   R24        1.80949   0.01564   0.00000   0.02757   0.02757   1.83706
    A1        2.18890   0.00331   0.00000   0.01286   0.01286   2.20176
    A2        2.11724   0.00307   0.00000   0.01194   0.01194   2.12917
    A3        1.97686  -0.00638   0.00000  -0.02480  -0.02480   1.95205
    A4        1.92889  -0.00093   0.00000  -0.02492  -0.02493   1.90396
    A5        1.92120  -0.00158   0.00000  -0.01402  -0.01364   1.90756
    A6        1.88633  -0.00091   0.00000  -0.01840  -0.01839   1.86794
    A7        1.89403   0.00152   0.00000   0.02398   0.02354   1.91757
    A8        1.97039  -0.00068   0.00000   0.00105  -0.00005   1.97034
    A9        1.86180   0.00265   0.00000   0.03366   0.03337   1.89517
   A10        2.08811  -0.00164   0.00000  -0.00481  -0.00480   2.08331
   A11        2.13181  -0.00024   0.00000   0.00065   0.00066   2.13248
   A12        2.06300   0.00189   0.00000   0.00433   0.00427   2.06727
   A13        2.11291   0.00021   0.00000  -0.00082  -0.00085   2.11205
   A14        2.09892  -0.00182   0.00000  -0.00986  -0.00985   2.08908
   A15        2.07122   0.00162   0.00000   0.01069   0.01071   2.08193
   A16        2.08847   0.00136   0.00000   0.00775   0.00775   2.09622
   A17        2.09591  -0.00103   0.00000  -0.00593  -0.00593   2.08998
   A18        2.09879  -0.00034   0.00000  -0.00182  -0.00182   2.09698
   A19        2.10148  -0.00486   0.00000  -0.01778  -0.01776   2.08372
   A20        2.09054   0.00247   0.00000   0.00911   0.00910   2.09964
   A21        2.09116   0.00239   0.00000   0.00866   0.00865   2.09981
   A22        2.09131   0.00140   0.00000   0.00809   0.00809   2.09940
   A23        2.09628  -0.00021   0.00000  -0.00114  -0.00114   2.09514
   A24        2.09559  -0.00118   0.00000  -0.00695  -0.00695   2.08864
   A25        2.10919   0.00001   0.00000  -0.00151  -0.00155   2.10764
   A26        2.12217  -0.00343   0.00000  -0.01969  -0.01968   2.10249
   A27        2.05182   0.00342   0.00000   0.02123   0.02123   2.07305
   A28        1.93899  -0.00508   0.00000  -0.03145  -0.03172   1.90727
   A29        1.96399  -0.00103   0.00000  -0.00644  -0.00655   1.95744
   A30        1.95918  -0.00400   0.00000  -0.02249  -0.02267   1.93651
   A31        1.86714   0.00301   0.00000   0.01534   0.01516   1.88230
   A32        1.86590   0.00495   0.00000   0.03018   0.02985   1.89575
   A33        1.86277   0.00303   0.00000   0.02007   0.02004   1.88281
   A34        1.95386   0.00005   0.00000   0.00132   0.00132   1.95517
   A35        1.95507  -0.00607   0.00000  -0.03617  -0.03645   1.91862
   A36        1.94802  -0.00429   0.00000  -0.02678  -0.02707   1.92095
   A37        1.86287   0.00352   0.00000   0.02308   0.02308   1.88595
   A38        1.87987   0.00231   0.00000   0.01358   0.01357   1.89344
   A39        1.85875   0.00532   0.00000   0.02992   0.02936   1.88810
   A40        1.80684   0.00608   0.00000   0.03633   0.03633   1.84317
    D1       -0.20107   0.00090   0.00000   0.02351   0.02351  -0.17756
    D2       -2.29300   0.00063   0.00000   0.01855   0.01850  -2.27450
    D3        1.96307  -0.00116   0.00000  -0.00363  -0.00358   1.95949
    D4        2.96156   0.00091   0.00000   0.02352   0.02352   2.98507
    D5        0.86963   0.00063   0.00000   0.01856   0.01851   0.88814
    D6       -1.15749  -0.00116   0.00000  -0.00362  -0.00357  -1.16107
    D7        0.00466  -0.00027   0.00000  -0.00873  -0.00873  -0.00408
    D8        3.12619  -0.00026   0.00000  -0.00870  -0.00870   3.11748
    D9       -1.10794   0.00036   0.00000   0.04989   0.05000  -1.05794
   D10        2.05897   0.00018   0.00000   0.04220   0.04230   2.10127
   D11        1.00026  -0.00120   0.00000   0.03259   0.03256   1.03282
   D12       -2.11602  -0.00138   0.00000   0.02490   0.02486  -2.09116
   D13        3.06027   0.00268   0.00000   0.09080   0.09073  -3.13218
   D14       -0.05601   0.00250   0.00000   0.08311   0.08303   0.02703
   D15        3.07976  -0.00021   0.00000   0.01410   0.01406   3.09382
   D16        0.98666   0.00020   0.00000   0.02089   0.02085   1.00751
   D17       -1.11517  -0.00011   0.00000   0.01566   0.01574  -1.09944
   D18        0.96682   0.00095   0.00000   0.03819   0.03843   1.00526
   D19       -1.12629   0.00136   0.00000   0.04498   0.04523  -1.08106
   D20        3.05507   0.00105   0.00000   0.03974   0.04011   3.09518
   D21       -1.16096  -0.00063   0.00000   0.00390   0.00358  -1.15739
   D22        3.02911  -0.00022   0.00000   0.01069   0.01037   3.03948
   D23        0.92729  -0.00053   0.00000   0.00546   0.00525   0.93254
   D24       -1.04174   0.00021   0.00000  -0.00295  -0.00301  -1.04475
   D25        1.05012   0.00053   0.00000   0.00241   0.00219   1.05231
   D26        3.13267   0.00024   0.00000  -0.00245  -0.00236   3.13031
   D27        1.09721  -0.00207   0.00000  -0.04693  -0.04692   1.05030
   D28       -3.09411  -0.00174   0.00000  -0.04157  -0.04172  -3.13583
   D29       -1.01156  -0.00204   0.00000  -0.04643  -0.04627  -1.05783
   D30       -3.10719   0.00113   0.00000   0.00506   0.00512  -3.10207
   D31       -1.01533   0.00145   0.00000   0.01042   0.01032  -1.00501
   D32        1.06722   0.00116   0.00000   0.00556   0.00576   1.07299
   D33       -3.12267   0.00025   0.00000   0.00791   0.00789  -3.11478
   D34        0.03672   0.00022   0.00000   0.00705   0.00707   0.04379
   D35       -0.00540   0.00040   0.00000   0.01525   0.01526   0.00986
   D36       -3.12919   0.00036   0.00000   0.01440   0.01443  -3.11476
   D37        3.12119  -0.00032   0.00000  -0.00980  -0.00975   3.11143
   D38       -0.02497  -0.00009   0.00000  -0.00178  -0.00184  -0.02681
   D39        0.00456  -0.00045   0.00000  -0.01726  -0.01726  -0.01270
   D40        3.14159  -0.00022   0.00000  -0.00924  -0.00935   3.13224
   D41        0.00398  -0.00012   0.00000  -0.00486  -0.00481  -0.00082
   D42       -3.13204  -0.00015   0.00000  -0.00576  -0.00573  -3.13776
   D43        3.12805  -0.00013   0.00000  -0.00422  -0.00419   3.12386
   D44       -0.00797  -0.00016   0.00000  -0.00513  -0.00511  -0.01308
   D45       -0.00161  -0.00011   0.00000  -0.00395  -0.00392  -0.00553
   D46       -3.13864  -0.00006   0.00000  -0.00211  -0.00212  -3.14076
   D47        3.13440  -0.00008   0.00000  -0.00306  -0.00301   3.13139
   D48       -0.00263  -0.00003   0.00000  -0.00121  -0.00121  -0.00383
   D49        0.00079   0.00005   0.00000   0.00194   0.00190   0.00270
   D50       -3.13848   0.00007   0.00000   0.00271   0.00265  -3.13582
   D51        3.13782   0.00001   0.00000   0.00009   0.00010   3.13792
   D52       -0.00145   0.00002   0.00000   0.00086   0.00085  -0.00060
   D53       -0.00233   0.00024   0.00000   0.00891   0.00889   0.00657
   D54       -3.13953   0.00003   0.00000   0.00131   0.00122  -3.13832
   D55        3.13694   0.00022   0.00000   0.00815   0.00816  -3.13809
   D56       -0.00026   0.00002   0.00000   0.00055   0.00048   0.00021
         Item               Value     Threshold  Converged?
 Maximum Force            0.024690     0.000450     NO 
 RMS     Force            0.004299     0.000300     NO 
 Maximum Displacement     0.168497     0.001800     NO 
 RMS     Displacement     0.052228     0.001200     NO 
 Predicted change in Energy=-3.912004D-03
 GradGradGradGradGradGradGradGradGradGradGradGradGradGradGradGradGradGrad

                          Input orientation:                          
 ---------------------------------------------------------------------
 Center     Atomic      Atomic             Coordinates (Angstroms)
 Number     Number       Type             X           Y           Z
 ---------------------------------------------------------------------
      1          8           0       -1.106284   -0.527509    2.242711
      2          6           0       -1.643891   -0.059424    1.262808
      3          6           0       -1.016679    0.096301   -0.121180
      4          6           0        0.479781   -0.194856   -0.027050
      5          6           0        1.282005    0.596910    0.801995
      6          6           0        2.655794    0.381990    0.889384
      7          6           0        3.253652   -0.635387    0.145138
      8          6           0        2.463671   -1.435011   -0.677958
      9          6           0        1.086008   -1.217633   -0.759499
     10          6           0       -1.240108    1.540176   -0.623398
     11          6           0       -1.756453   -0.870271   -1.062389
     12          8           0       -2.927330    0.372846    1.286026
     13          1           0        0.828325    1.381165    1.399346
     14          1           0        3.258147    1.006219    1.541875
     15          1           0        4.324489   -0.806275    0.211447
     16          1           0        2.916980   -2.233095   -1.257587
     17          1           0        0.494486   -1.856039   -1.405027
     18          1           0       -0.749113    1.665417   -1.592306
     19          1           0       -0.824178    2.284085    0.061767
     20          1           0       -2.306094    1.752261   -0.742250
     21          1           0       -1.668005   -1.910706   -0.734361
     22          1           0       -2.818222   -0.615583   -1.098135
     23          1           0       -1.352232   -0.790519   -2.075122
     24          1           0       -3.240752    0.213040    2.192264
 ---------------------------------------------------------------------
                    Distance matrix (angstroms):
                    1          2          3          4          5
     1  O    0.000000
     2  C    1.211749   0.000000
     3  C    2.446456   1.527438   0.000000
     4  C    2.788920   2.488384   1.527424   0.000000
     5  C    3.007309   3.033808   2.527214   1.399204   0.000000
     6  C    4.100233   4.338385   3.819675   2.430563   1.393242
     7  C    4.839472   5.056367   4.340739   2.813908   2.416073
     8  C    4.700898   4.746669   3.842883   2.428473   2.777642
     9  C    3.780963   3.589362   2.560306   1.396447   2.401926
    10  C    3.536638   2.505899   1.544966   2.514753   3.046728
    11  C    3.385837   2.465093   1.538636   2.555163   3.854968
    12  O    2.245461   1.354479   2.388994   3.695249   4.242994
    13  H    2.845525   2.864575   2.714206   2.154049   1.085223
    14  H    4.678862   5.024286   4.676306   3.409314   2.149440
    15  H    5.804915   6.106120   5.427095   3.900319   3.402114
    16  H    5.598907   5.646129   4.710751   3.407136   3.863152
    17  H    4.199220   3.862359   2.782717   2.158371   3.392357
    18  H    4.432139   3.453604   2.167471   2.724119   3.316598
    19  H    3.569477   2.757982   2.203844   2.802382   2.798304
    20  H    3.942955   2.782261   2.188727   3.473309   4.073572
    21  H    3.330423   2.723327   2.197337   2.838558   4.165463
    22  H    3.754963   2.694888   2.169511   3.493002   4.678942
    23  H    4.332823   3.429481   2.171851   2.811706   4.140286
    24  H    2.259848   1.867643   3.211254   4.351333   4.747161
                    6          7          8          9         10
     6  C    0.000000
     7  C    1.395132   0.000000
     8  C    2.407274   1.393182   0.000000
     9  C    2.782417   2.419930   1.397089   0.000000
    10  C    4.336814   5.051495   4.751072   3.610380   0.000000
    11  C    4.984526   5.158919   4.275063   2.879581   2.503913
    12  O    5.597203   6.365744   6.015685   4.777099   2.802727
    13  H    2.144307   3.394367   3.862692   3.388327   2.897446
    14  H    1.085465   2.155403   3.393884   3.867820   5.020739
    15  H    2.157804   1.086412   2.156153   3.405835   6.096518
    16  H    3.393578   2.152593   1.085540   2.152141   5.649880
    17  H    3.865792   3.392049   2.140930   1.083589   3.892818
    18  H    4.404470   4.933005   4.557484   3.517558   1.093409
    19  H    4.051311   5.015871   5.018846   4.072508   1.093549
    20  H    5.400019   6.115480   5.737028   4.508539   1.093358
    21  H    5.156378   5.159715   4.159352   2.839994   3.479079
    22  H    5.908489   6.197885   5.361567   3.964864   2.713506
    23  H    5.121265   5.115447   4.114432   2.803267   2.748129
    24  H    6.041134   6.862058   6.595050   5.429602   3.700246
                   11         12         13         14         15
    11  C    0.000000
    12  O    2.903678   0.000000
    13  H    4.220211   3.890308   0.000000
    14  H    5.953958   6.223082   2.462709   0.000000
    15  H    6.213261   7.425222   4.291755   2.488424   0.000000
    16  H    4.871998   6.885989   4.948196   4.294943   2.484946
    17  H    2.481102   4.890656   4.295979   4.951219   4.287646
    18  H    2.779436   3.834079   3.393978   5.129889   5.924882
    19  H    3.476036   3.094333   2.309794   4.526482   6.006788
    20  H    2.698568   2.530341   3.814280   6.060906   7.170793
    21  H    1.094500   3.298859   4.649815   6.160898   6.166385
    22  H    1.092473   2.583238   4.849919   6.820715   7.264275
    23  H    1.093336   3.889945   4.641440   6.129155   6.119952
    24  H    3.737576   0.972131   4.307043   6.579349   7.886413
                   16         17         18         19         20
    16  H    0.000000
    17  H    2.456091   0.000000
    18  H    5.361965   3.739287   0.000000
    19  H    6.011811   4.585955   1.767580   0.000000
    20  H    6.590078   4.615446   1.776042   1.767867   0.000000
    21  H    4.625990   2.264762   3.790658   4.352256   3.718137
    22  H    5.961066   3.550626   3.119035   3.705356   2.448594
    23  H    4.579908   2.234889   2.574585   3.781313   3.025248
    24  H    7.470121   5.583331   4.758217   3.829893   3.442987
                   21         22         23         24
    21  H    0.000000
    22  H    1.769936   0.000000
    23  H    1.775436   1.770376   0.000000
    24  H    3.943217   3.419338   4.773282   0.000000
 Stoichiometry    C10H12O2
 Framework group  C1[X(C10H12O2)]
 Deg. of freedom    66
 Full point group                 C1      NOp   1
 Largest Abelian subgroup         C1      NOp   1
 Largest concise Abelian subgroup C1      NOp   1
                         Standard orientation:                         
 ---------------------------------------------------------------------
 Center     Atomic      Atomic             Coordinates (Angstroms)
 Number     Number       Type             X           Y           Z
 ---------------------------------------------------------------------
      1          8           0       -1.276118   -1.441360   -1.251098
      2          6           0       -1.749825   -0.628057   -0.487897
      3          6           0       -0.980610    0.454909    0.266132
      4          6           0        0.517902    0.202969    0.111163
      5          6           0        1.064657   -0.995259    0.583479
      6          6           0        2.431660   -1.247102    0.488602
      7          6           0        3.279702   -0.299195   -0.084713
      8          6           0        2.745420    0.894324   -0.565350
      9          6           0        1.373462    1.140646   -0.470939
     10          6           0       -1.368801    0.409949    1.760858
     11          6           0       -1.423096    1.809157   -0.314918
     12          8           0       -3.078413   -0.574960   -0.229735
     13          1           0        0.414865   -1.748759    1.016741
     14          1           0        2.833416   -2.185208    0.858445
     15          1           0        4.346035   -0.492595   -0.161017
     16          1           0        3.394784    1.636990   -1.018308
     17          1           0        0.983699    2.075756   -0.855410
     18          1           0       -0.782186    1.152459    2.308675
     19          1           0       -1.173144   -0.568427    2.208461
     20          1           0       -2.430227    0.634706    1.896103
     21          1           0       -1.209881    1.885683   -1.385719
     22          1           0       -2.498231    1.941652   -0.173409
     23          1           0       -0.908175    2.624551    0.200226
     24          1           0       -3.477538   -1.280294   -0.766617
 ---------------------------------------------------------------------
 Rotational constants (GHZ):           1.8123989           0.6540780           0.5951698
 Standard basis: 6-31G(d,p) (6D, 7F)
 There are   240 symmetry adapted cartesian basis functions of A   symmetry.
 There are   240 symmetry adapted basis functions of A   symmetry.
   240 basis functions,   420 primitive gaussians,   240 cartesian basis functions
    44 alpha electrons       44 beta electrons
       nuclear repulsion energy       698.1406661970 Hartrees.
 NAtoms=   24 NActive=   24 NUniq=   24 SFac= 1.00D+00 NAtFMM=   60 NAOKFM=F Big=F
 Integral buffers will be    131072 words long.
 Raffenetti 2 integral format.
 Two-electron integral symmetry is turned on.
 Nuclear repulsion after empirical dispersion term =      698.0938111975 Hartrees.
 One-electron integrals computed using PRISM.
 NBasis=   240 RedAO= T EigKep=  4.49D-04  NBF=   240
 NBsUse=   240 1.00D-06 EigRej= -1.00D+00 NBFU=   240
 Initial guess from the checkpoint file:  "Ac5_conf-3.chk"
 B after Tr=    -0.000000   -0.000000   -0.000000
         Rot=    0.999974   -0.005299    0.004041   -0.002578 Ang=  -0.82 deg.
 ExpMin= 1.61D-01 ExpMax= 5.48D+03 ExpMxC= 8.25D+02 IAcc=3 IRadAn=         5 AccDes= 0.00D+00
 Harris functional with IExCor=  402 and IRadAn=       5 diagonalized for initial guess.
 HarFok:  IExCor=  402 AccDes= 0.00D+00 IRadAn=         5 IDoV= 1 UseB2=F ITyADJ=14
 ICtDFT=  3500011 ScaDFX=  1.000000  1.000000  1.000000  1.000000
 FoFCou: FMM=F IPFlag=           0 FMFlag=      100000 FMFlg1=           0
         NFxFlg=           0 DoJE=T BraDBF=F KetDBF=T FulRan=T
         wScrn=  0.000000 ICntrl=       500 IOpCl=  0 I1Cent=   200000004 NGrid=           0
         NMat0=    1 NMatS0=      1 NMatT0=    0 NMatD0=    1 NMtDS0=    0 NMtDT0=    0
 Petite list used in FoFCou.
 Requested convergence on RMS density matrix=1.00D-08 within 128 cycles.
 Requested convergence on MAX density matrix=1.00D-06.
 Requested convergence on             energy=1.00D-06.
 No special actions if energy rises.
 Integral accuracy reduced to 1.0D-05 until final iterations.
 Initial convergence to 1.0D-05 achieved.  Increase integral accuracy.
 SCF Done:  E(RB3LYP) =  -538.819592524     A.U. after   12 cycles
            NFock= 12  Conv=0.80D-08     -V/T= 2.0094
 Calling FoFJK, ICntrl=      2127 FMM=F ISym2X=0 I1Cent= 0 IOpClX= 0 NMat=1 NMatS=1 NMatT=0.
 ***** Axes restored to original set *****
 -------------------------------------------------------------------
 Center     Atomic                   Forces (Hartrees/Bohr)
 Number     Number              X              Y              Z
 -------------------------------------------------------------------
      1        8          -0.003151740    0.001111577   -0.000637437
      2        6           0.004240665   -0.002600104    0.003963390
      3        6           0.001093974    0.000749069   -0.000383073
      4        6          -0.001612766   -0.001075972   -0.000749847
      5        6           0.003646110    0.000690982    0.000819464
      6        6          -0.001925429    0.000703900    0.000150014
      7        6           0.000390969   -0.001095778   -0.000697940
      8        6           0.000373775    0.000501549    0.000671988
      9        6           0.002179380    0.000097758   -0.000775558
     10        6          -0.001283013    0.002761053   -0.001968435
     11        6          -0.003138266   -0.001449461   -0.001747517
     12        8          -0.002942381    0.000611365    0.001216963
     13        1           0.000204552   -0.000251211    0.000045961
     14        1           0.000050061    0.000174033    0.000179088
     15        1          -0.000456670    0.000125883   -0.000099642
     16        1          -0.000095840   -0.000255307   -0.000199631
     17        1           0.000410166    0.000217415    0.000288447
     18        1           0.000230369   -0.000107046   -0.000048343
     19        1           0.000429060   -0.000947859   -0.000186668
     20        1           0.000718675   -0.000559074    0.000407960
     21        1           0.000488367    0.000756964    0.000034330
     22        1           0.000569465   -0.000060681    0.000089851
     23        1          -0.000210949   -0.000081307   -0.000103074
     24        1          -0.000208533   -0.000017750   -0.000270291
 -------------------------------------------------------------------
 Cartesian Forces:  Max     0.004240665 RMS     0.001333085

 GradGradGradGradGradGradGradGradGradGradGradGradGradGradGradGradGradGrad
 Berny optimization.
 Using GEDIIS/GDIIS optimizer.
 FormGI is forming the generalized inverse of G from B-inverse, IUseBI=4.
 Internal  Forces:  Max     0.004810078 RMS     0.000960829
 Search for a local minimum.
 Step number   2 out of a maximum of  130
 All quantities printed in internal units (Hartrees-Bohrs-Radians)
 Mixed Optimization -- En-DIIS/RFO-DIIS
 Update second derivatives using D2CorX and points    1    2
 DE= -3.44D-03 DEPred=-3.91D-03 R= 8.79D-01
 TightC=F SS=  1.41D+00  RLast= 2.51D-01 DXNew= 5.0454D-01 7.5272D-01
 Trust test= 8.79D-01 RLast= 2.51D-01 DXMaxT set to 5.05D-01
 ITU=  1  0
 Use linear search instead of GDIIS.
     Eigenvalues ---    0.00230   0.00230   0.00230   0.00233   0.00708
     Eigenvalues ---    0.01298   0.02043   0.02094   0.02111   0.02158
     Eigenvalues ---    0.02194   0.02200   0.02202   0.02206   0.02282
     Eigenvalues ---    0.04957   0.05337   0.05371   0.05592   0.05611
     Eigenvalues ---    0.05790   0.05868   0.15015   0.15464   0.15978
     Eigenvalues ---    0.15998   0.16000   0.16000   0.16000   0.16000
     Eigenvalues ---    0.16000   0.16000   0.16000   0.16000   0.16000
     Eigenvalues ---    0.16202   0.21912   0.22000   0.23353   0.24471
     Eigenvalues ---    0.24996   0.25082   0.26747   0.26974   0.27005
     Eigenvalues ---    0.31015   0.34622   0.34643   0.34675   0.34701
     Eigenvalues ---    0.34718   0.34867   0.35887   0.35959   0.35976
     Eigenvalues ---    0.36060   0.36315   0.41951   0.42512   0.45261
     Eigenvalues ---    0.46269   0.46932   0.47185   0.53960   0.56044
     Eigenvalues ---    0.90551
 RFO step:  Lambda=-6.07806150D-04 EMin= 2.29876823D-03
 Quartic linear search produced a step of -0.07603.
 Iteration  1 RMS(Cart)=  0.07142549 RMS(Int)=  0.00134763
 Iteration  2 RMS(Cart)=  0.00211964 RMS(Int)=  0.00003714
 Iteration  3 RMS(Cart)=  0.00000157 RMS(Int)=  0.00003713
 Iteration  4 RMS(Cart)=  0.00000000 RMS(Int)=  0.00003713
 Variable       Old X    -DE/DX   Delta X   Delta X   Delta X     New X
                                 (Linear)    (Quad)   (Total)
    R1        2.28987  -0.00234   0.00200  -0.00520  -0.00319   2.28668
    R2        2.88644   0.00481   0.00520   0.00899   0.01419   2.90062
    R3        2.55959   0.00319   0.00012   0.00526   0.00539   2.56498
    R4        2.88641   0.00311   0.00435   0.00416   0.00851   2.89493
    R5        2.91956   0.00164   0.00183   0.00289   0.00472   2.92428
    R6        2.90760   0.00268   0.00280   0.00500   0.00780   2.91540
    R7        2.64411   0.00245   0.00086   0.00393   0.00480   2.64891
    R8        2.63890   0.00136   0.00130   0.00106   0.00236   2.64127
    R9        2.63285  -0.00152  -0.00018  -0.00273  -0.00291   2.62994
   R10        2.05077  -0.00024  -0.00079   0.00054  -0.00025   2.05052
   R11        2.63642   0.00058  -0.00059   0.00185   0.00125   2.63767
   R12        2.05123   0.00024  -0.00075   0.00169   0.00094   2.05218
   R13        2.63273  -0.00093  -0.00028  -0.00154  -0.00183   2.63090
   R14        2.05302  -0.00048  -0.00086   0.00003  -0.00082   2.05220
   R15        2.64012  -0.00014  -0.00061   0.00063   0.00001   2.64013
   R16        2.05137   0.00025  -0.00075   0.00175   0.00100   2.05237
   R17        2.04769  -0.00052  -0.00079  -0.00018  -0.00097   2.04672
   R18        2.06624   0.00013  -0.00034   0.00085   0.00051   2.06676
   R19        2.06651  -0.00060  -0.00042  -0.00098  -0.00139   2.06512
   R20        2.06615  -0.00085  -0.00028  -0.00186  -0.00214   2.06401
   R21        2.06830  -0.00067  -0.00043  -0.00115  -0.00158   2.06673
   R22        2.06447  -0.00057  -0.00012  -0.00134  -0.00146   2.06302
   R23        2.06611   0.00001  -0.00036   0.00056   0.00020   2.06630
   R24        1.83706  -0.00018  -0.00210   0.00273   0.00064   1.83770
    A1        2.20176   0.00307  -0.00098   0.01256   0.01144   2.21320
    A2        2.12917  -0.00256  -0.00091  -0.00825  -0.00929   2.11989
    A3        1.95205  -0.00052   0.00189  -0.00487  -0.00311   1.94894
    A4        1.90396   0.00065   0.00190   0.00608   0.00798   1.91194
    A5        1.90756   0.00064   0.00104   0.00057   0.00156   1.90912
    A6        1.86794  -0.00095   0.00140  -0.00781  -0.00644   1.86150
    A7        1.91757  -0.00100  -0.00179  -0.00354  -0.00529   1.91228
    A8        1.97034   0.00099   0.00000   0.00720   0.00728   1.97762
    A9        1.89517  -0.00031  -0.00254  -0.00271  -0.00522   1.88995
   A10        2.08331   0.00006   0.00036  -0.00064  -0.00033   2.08298
   A11        2.13248   0.00193  -0.00005   0.00685   0.00674   2.13921
   A12        2.06727  -0.00199  -0.00032  -0.00648  -0.00684   2.06043
   A13        2.11205   0.00078   0.00006   0.00333   0.00340   2.11545
   A14        2.08908  -0.00025   0.00075  -0.00204  -0.00130   2.08778
   A15        2.08193  -0.00054  -0.00081  -0.00135  -0.00217   2.07976
   A16        2.09622   0.00027  -0.00059   0.00154   0.00095   2.09717
   A17        2.08998  -0.00023   0.00045  -0.00157  -0.00111   2.08887
   A18        2.09698  -0.00004   0.00014   0.00002   0.00016   2.09714
   A19        2.08372  -0.00009   0.00135  -0.00312  -0.00178   2.08194
   A20        2.09964   0.00005  -0.00069   0.00163   0.00095   2.10058
   A21        2.09981   0.00004  -0.00066   0.00150   0.00084   2.10066
   A22        2.09940   0.00020  -0.00062   0.00135   0.00073   2.10013
   A23        2.09514   0.00013   0.00009   0.00097   0.00106   2.09619
   A24        2.08864  -0.00033   0.00053  -0.00231  -0.00178   2.08686
   A25        2.10764   0.00082   0.00012   0.00346   0.00359   2.11124
   A26        2.10249  -0.00025   0.00150  -0.00317  -0.00168   2.10081
   A27        2.07305  -0.00057  -0.00161  -0.00028  -0.00191   2.07114
   A28        1.90727   0.00000   0.00241  -0.00371  -0.00129   1.90598
   A29        1.95744  -0.00095   0.00050  -0.00705  -0.00656   1.95089
   A30        1.93651  -0.00040   0.00172  -0.00402  -0.00228   1.93423
   A31        1.88230   0.00027  -0.00115   0.00151   0.00035   1.88266
   A32        1.89575   0.00040  -0.00227   0.00744   0.00520   1.90095
   A33        1.88281   0.00073  -0.00152   0.00655   0.00502   1.88783
   A34        1.95517  -0.00081  -0.00010  -0.00493  -0.00504   1.95014
   A35        1.91862  -0.00004   0.00277  -0.00409  -0.00130   1.91732
   A36        1.92095   0.00046   0.00206  -0.00040   0.00168   1.92263
   A37        1.88595   0.00042  -0.00175   0.00484   0.00309   1.88903
   A38        1.89344   0.00009  -0.00103   0.00140   0.00037   1.89381
   A39        1.88810  -0.00011  -0.00223   0.00362   0.00143   1.88953
   A40        1.84317   0.00045  -0.00276   0.00675   0.00399   1.84715
    D1       -0.17756  -0.00060  -0.00179  -0.00639  -0.00821  -0.18577
    D2       -2.27450  -0.00016  -0.00141  -0.00610  -0.00756  -2.28206
    D3        1.95949   0.00040   0.00027   0.00112   0.00134   1.96082
    D4        2.98507  -0.00033  -0.00179   0.02399   0.02227   3.00734
    D5        0.88814   0.00011  -0.00141   0.02428   0.02292   0.91105
    D6       -1.16107   0.00067   0.00027   0.03150   0.03181  -1.12925
    D7       -0.00408  -0.00005   0.00066   0.00763   0.00813   0.00406
    D8        3.11748  -0.00023   0.00066  -0.02101  -0.02019   3.09730
    D9       -1.05794  -0.00014  -0.00380   0.09603   0.09222  -0.96572
   D10        2.10127   0.00018  -0.00322   0.11461   0.11144   2.21270
   D11        1.03282   0.00044  -0.00248   0.09832   0.09582   1.12864
   D12       -2.09116   0.00075  -0.00189   0.11689   0.11503  -1.97612
   D13       -3.13218  -0.00001  -0.00690   0.09722   0.09028  -3.04190
   D14        0.02703   0.00031  -0.00631   0.11580   0.10949   0.13652
   D15        3.09382   0.00045  -0.00107   0.04862   0.04757   3.14139
   D16        1.00751   0.00071  -0.00159   0.05367   0.05209   1.05960
   D17       -1.09944   0.00070  -0.00120   0.05296   0.05176  -1.04768
   D18        1.00526  -0.00012  -0.00292   0.04298   0.04005   1.04531
   D19       -1.08106   0.00013  -0.00344   0.04803   0.04458  -1.03648
   D20        3.09518   0.00013  -0.00305   0.04731   0.04424   3.13942
   D21       -1.15739  -0.00050  -0.00027   0.03810   0.03784  -1.11954
   D22        3.03948  -0.00024  -0.00079   0.04315   0.04237   3.08185
   D23        0.93254  -0.00025  -0.00040   0.04243   0.04203   0.97457
   D24       -1.04475  -0.00034   0.00023  -0.03930  -0.03905  -1.08380
   D25        1.05231  -0.00037  -0.00017  -0.03920  -0.03933   1.01299
   D26        3.13031  -0.00024   0.00018  -0.03752  -0.03733   3.09297
   D27        1.05030   0.00042   0.00357  -0.03266  -0.02910   1.02120
   D28       -3.13583   0.00039   0.00317  -0.03255  -0.02937   3.11799
   D29       -1.05783   0.00052   0.00352  -0.03088  -0.02737  -1.08521
   D30       -3.10207  -0.00042  -0.00039  -0.03432  -0.03473  -3.13680
   D31       -1.00501  -0.00045  -0.00078  -0.03421  -0.03500  -1.04001
   D32        1.07299  -0.00032  -0.00044  -0.03254  -0.03301   1.03998
   D33       -3.11478   0.00013  -0.00060   0.01109   0.01043  -3.10435
   D34        0.04379   0.00022  -0.00054   0.01541   0.01482   0.05861
   D35        0.00986  -0.00013  -0.00116  -0.00665  -0.00778   0.00208
   D36       -3.11476  -0.00004  -0.00110  -0.00234  -0.00340  -3.11815
   D37        3.11143  -0.00011   0.00074  -0.01027  -0.00955   3.10189
   D38       -0.02681  -0.00018   0.00014  -0.01254  -0.01241  -0.03922
   D39       -0.01270   0.00018   0.00131   0.00808   0.00937  -0.00333
   D40        3.13224   0.00011   0.00071   0.00581   0.00651   3.13875
   D41       -0.00082   0.00002   0.00037   0.00187   0.00223   0.00141
   D42       -3.13776   0.00004   0.00044   0.00204   0.00247  -3.13529
   D43        3.12386  -0.00007   0.00032  -0.00243  -0.00213   3.12174
   D44       -0.01308  -0.00005   0.00039  -0.00227  -0.00189  -0.01496
   D45       -0.00553   0.00003   0.00030   0.00156   0.00186  -0.00367
   D46       -3.14076  -0.00002   0.00016  -0.00156  -0.00140   3.14103
   D47        3.13139   0.00001   0.00023   0.00139   0.00162   3.13301
   D48       -0.00383  -0.00004   0.00009  -0.00173  -0.00164  -0.00548
[...]
                 (A) (A) (A) (A) (A) (A) (A) (A) (A) (A) (A) (A)
                 (A) (A) (A) (A) (A) (A) (A) (A) (A) (A) (A) (A)
                 (A) (A) (A) (A) (A) (A) (A) (A) (A) (A) (A) (A)
                 (A) (A) (A) (A) (A) (A) (A) (A) (A) (A) (A) (A)
                 (A) (A) (A) (A) (A) (A) (A) (A) (A) (A) (A) (A)
                 (A) (A) (A) (A) (A) (A) (A) (A) (A) (A) (A) (A)
                 (A) (A) (A) (A) (A) (A) (A) (A) (A) (A) (A) (A)
                 (A) (A) (A) (A)
 The electronic state is 1-A.
 Alpha  occ. eigenvalues --  -19.67734 -19.62322 -10.68046 -10.57867 -10.55330
 Alpha  occ. eigenvalues --  -10.54205 -10.54144 -10.54141 -10.54123 -10.54043
 Alpha  occ. eigenvalues --  -10.54005 -10.53746  -1.23850  -1.14208  -0.96876
 Alpha  occ. eigenvalues --   -0.92267  -0.84187  -0.83185  -0.79138  -0.75139
 Alpha  occ. eigenvalues --   -0.70315  -0.68531  -0.64317  -0.59508  -0.58196
 Alpha  occ. eigenvalues --   -0.56647  -0.54576  -0.52338  -0.51923  -0.51088
 Alpha  occ. eigenvalues --   -0.50075  -0.48639  -0.47119  -0.45671  -0.45147
 Alpha  occ. eigenvalues --   -0.44333  -0.42805  -0.41908  -0.40318  -0.39214
 Alpha  occ. eigenvalues --   -0.39072  -0.35381  -0.30631  -0.29989
 Alpha virt. eigenvalues --    0.01922   0.02388   0.04022   0.05796   0.07811
 Alpha virt. eigenvalues --    0.09257   0.10173   0.11646   0.12119   0.12726
 Alpha virt. eigenvalues --    0.13358   0.13962   0.14631   0.16395   0.16453
 Alpha virt. eigenvalues --    0.17716   0.19198   0.19545   0.20744   0.21438
 Alpha virt. eigenvalues --    0.22339   0.23573   0.23870   0.24646   0.25247
 Alpha virt. eigenvalues --    0.26156   0.27048   0.27968   0.28552   0.29162
 Alpha virt. eigenvalues --    0.30776   0.31036   0.31963   0.32440   0.33791
 Alpha virt. eigenvalues --    0.35835   0.36433   0.36986   0.37810   0.37972
 Alpha virt. eigenvalues --    0.38455   0.39408   0.40994   0.41446   0.42177
 Alpha virt. eigenvalues --    0.42773   0.43226   0.43656   0.44137   0.44574
 Alpha virt. eigenvalues --    0.45287   0.45734   0.46642   0.46955   0.47930
 Alpha virt. eigenvalues --    0.48470   0.49377   0.49839   0.50956   0.51004
 Alpha virt. eigenvalues --    0.51780   0.53005   0.53651   0.53715   0.54285
 Alpha virt. eigenvalues --    0.55071   0.56016   0.57730   0.58781   0.62068
 Alpha virt. eigenvalues --    0.62865   0.62981   0.63983   0.65205   0.67280
 Alpha virt. eigenvalues --    0.68025   0.70251   0.71437   0.71932   0.73648
 Alpha virt. eigenvalues --    0.74563   0.75990   0.76294   0.77573   0.78388
 Alpha virt. eigenvalues --    0.79955   0.80205   0.81938   0.83526   0.85317
 Alpha virt. eigenvalues --    0.86737   0.87722   0.88707   0.89922   0.91193
 Alpha virt. eigenvalues --    0.92289   0.93152   0.93869   0.95615   0.96115
 Alpha virt. eigenvalues --    0.98632   0.99943   1.01426   1.04054   1.04990
 Alpha virt. eigenvalues --    1.05481   1.05761   1.07741   1.09395   1.10357
 Alpha virt. eigenvalues --    1.12594   1.13275   1.14256   1.16405   1.17704
 Alpha virt. eigenvalues --    1.19204   1.21486   1.22565   1.24106   1.24635
 Alpha virt. eigenvalues --    1.26550   1.27309   1.28176   1.28468   1.31535
 Alpha virt. eigenvalues --    1.33094   1.34665   1.34941   1.37240   1.40129
 Alpha virt. eigenvalues --    1.40439   1.42882   1.43407   1.47549   1.48293
 Alpha virt. eigenvalues --    1.49277   1.50370   1.51148   1.52623   1.53827
 Alpha virt. eigenvalues --    1.54799   1.56177   1.57978   1.59047   1.59917
 Alpha virt. eigenvalues --    1.60532   1.62315   1.63076   1.64582   1.65258
 Alpha virt. eigenvalues --    1.66111   1.67533   1.68994   1.69444   1.70637
 Alpha virt. eigenvalues --    1.70858   1.72862   1.74289   1.74559   1.74853
 Alpha virt. eigenvalues --    1.75817   1.77426   1.78831   1.79813   1.84264
 Alpha virt. eigenvalues --    1.84448   1.88595   1.90417   1.92104   1.93229
 Alpha virt. eigenvalues --    1.93766   1.94750   1.97237   1.99165   1.99830
 Alpha virt. eigenvalues --    2.01204   2.02257   2.05775   2.06962   2.08034
 Alpha virt. eigenvalues --    2.09215   2.11720   2.11982   2.15443   2.16171
 Alpha virt. eigenvalues --    2.18554   2.20190   2.21043   2.21351   2.23784
 Alpha virt. eigenvalues --    2.24409   2.26532   2.27581   2.28674   2.30243
 Alpha virt. eigenvalues --    2.31409   2.33033   2.35973   2.36379   2.37694
 Alpha virt. eigenvalues --    2.38464   2.39540   2.41664   2.42809   2.43423
 Alpha virt. eigenvalues --    2.46797   2.49649   2.50496   2.51701   2.53486
 Alpha virt. eigenvalues --    2.54356   2.54855   2.56287   2.57269   2.59651
 Alpha virt. eigenvalues --    2.59932   2.61312   2.62589   2.64627   2.64984
 Alpha virt. eigenvalues --    2.65901   2.66904   2.67468   2.69650   2.69938
 Alpha virt. eigenvalues --    2.70943   2.72133   2.74031   2.75256   2.76045
 Alpha virt. eigenvalues --    2.77557   2.78210   2.78414   2.79708   2.80715
 Alpha virt. eigenvalues --    2.81219   2.83071   2.84351   2.84869   2.86432
 Alpha virt. eigenvalues --    2.87544   2.90090   2.91201   2.91597   2.94294
 Alpha virt. eigenvalues --    2.95620   2.97163   3.00515   3.01177   3.02226
 Alpha virt. eigenvalues --    3.02686   3.05716   3.07345   3.08556   3.09925
 Alpha virt. eigenvalues --    3.11453   3.12402   3.13463   3.15061   3.16047
 Alpha virt. eigenvalues --    3.16760   3.17293   3.18937   3.20085   3.21434
 Alpha virt. eigenvalues --    3.21941   3.22357   3.23384   3.25029   3.25920
 Alpha virt. eigenvalues --    3.27156   3.27944   3.28169   3.30012   3.30989
 Alpha virt. eigenvalues --    3.32260   3.33746   3.34286   3.35365   3.36966
 Alpha virt. eigenvalues --    3.37746   3.39426   3.39541   3.39817   3.42144
 Alpha virt. eigenvalues --    3.42895   3.43888   3.45652   3.47332   3.47487
 Alpha virt. eigenvalues --    3.48693   3.50219   3.51543   3.52753   3.53612
 Alpha virt. eigenvalues --    3.54799   3.56279   3.58057   3.61148   3.61811
 Alpha virt. eigenvalues --    3.63344   3.65660   3.68452   3.69774   3.71296
 Alpha virt. eigenvalues --    3.73595   3.77670   3.78595   3.80483   3.83684
 Alpha virt. eigenvalues --    3.88661   3.90357   3.91499   3.94196   3.95667
 Alpha virt. eigenvalues --    3.97593   4.01941   4.03211   4.04139   4.05679
 Alpha virt. eigenvalues --    4.08196   4.09440   4.10478   4.13499   4.15350
 Alpha virt. eigenvalues --    4.16327   4.17162   4.18239   4.19433   4.20233
 Alpha virt. eigenvalues --    4.21623   4.24732   4.26617   4.27724   4.30442
 Alpha virt. eigenvalues --    4.34755   4.35361   4.37306   4.38397   4.41699
 Alpha virt. eigenvalues --    4.46618   4.49309   4.52448   4.53815   4.57452
 Alpha virt. eigenvalues --    4.59911   4.62233   4.67024   4.68718   4.69493
 Alpha virt. eigenvalues --    4.75193   4.82505   4.84899   4.85739   4.88663
 Alpha virt. eigenvalues --    4.91941   5.01124   5.06569   5.16738   5.17377
 Alpha virt. eigenvalues --    5.18504   5.22240   5.22677   5.31585   5.34435
 Alpha virt. eigenvalues --    5.39374   5.41912   5.44528   5.52056   5.59818
 Alpha virt. eigenvalues --    5.60814   5.75475   5.86410   5.87549   6.18093
 Alpha virt. eigenvalues --    6.21684   6.35118   6.36500   6.47278   6.50763
 Alpha virt. eigenvalues --    6.67022   6.70598   6.74967   6.83929   6.90952
 Alpha virt. eigenvalues --    7.08634   7.12454   7.28555  22.20848  22.53311
 Alpha virt. eigenvalues --   22.55606  22.65585  22.71194  22.86773  22.88269
 Alpha virt. eigenvalues --   22.91909  23.30801  23.35480  44.01642  44.08280
          Condensed to atoms (all electrons):
               1          2          3          4          5          6
     1  O    7.808070   0.672187  -0.124140   0.026160   0.006236   0.001073
     2  C    0.672187   4.706968   0.150368  -0.036433  -0.035393   0.004646
     3  C   -0.124140   0.150368   5.818874   0.039537  -0.025723  -0.001383
     4  C    0.026160  -0.036433   0.039537   5.277852   0.476352  -0.044088
     5  C    0.006236  -0.035393  -0.025723   0.476352   5.022734   0.515703
     6  C    0.001073   0.004646  -0.001383  -0.044088   0.515703   4.892896
     7  C   -0.000342  -0.000431  -0.001707  -0.051164  -0.033501   0.510047
     8  C    0.000275  -0.000212   0.010050  -0.057499  -0.057834  -0.032601
     9  C    0.000354   0.012205  -0.050059   0.437585  -0.029074  -0.062207
    10  C    0.004375  -0.074480   0.284586  -0.069221  -0.012808   0.003915
    11  C   -0.004580  -0.062491   0.258917  -0.088638   0.012949  -0.000763
    12  O   -0.091641   0.381464  -0.124293   0.017573  -0.000610   0.000006
    13  H   -0.000265  -0.007145   0.033449  -0.066847   0.401688  -0.012968
    14  H    0.000042   0.000067  -0.000391   0.006649  -0.032431   0.407588
    15  H   -0.000000  -0.000002   0.000031   0.000812   0.004588  -0.033908
    16  H    0.000002   0.000015  -0.000260   0.006343   0.000589   0.003418
    17  H    0.000061  -0.000021  -0.008487  -0.030591   0.001630   0.000865
    18  H   -0.000405   0.012997  -0.024383  -0.015285  -0.006953   0.000081
    19  H    0.000168  -0.011585  -0.007404  -0.028664   0.002857   0.000690
    20  H    0.000149  -0.013326  -0.024730   0.019522   0.001124  -0.000065
    21  H    0.002626  -0.011410  -0.049368   0.007103   0.000527  -0.000029
    22  H    0.000218  -0.012479  -0.030979   0.019296  -0.000422   0.000031
    23  H   -0.000457   0.012828  -0.035169  -0.018641  -0.000638  -0.000214
    24  H    0.006130  -0.027368   0.017540  -0.002269  -0.000207  -0.000019
               7          8          9         10         11         12
     1  O   -0.000342   0.000275   0.000354   0.004375  -0.004580  -0.091641
     2  C   -0.000431  -0.000212   0.012205  -0.074480  -0.062491   0.381464
     3  C   -0.001707   0.010050  -0.050059   0.284586   0.258917  -0.124293
     4  C   -0.051164  -0.057499   0.437585  -0.069221  -0.088638   0.017573
     5  C   -0.033501  -0.057834  -0.029074  -0.012808   0.012949  -0.000610
     6  C    0.510047  -0.032601  -0.062207   0.003915  -0.000763   0.000006
     7  C    4.889703   0.527822  -0.033511  -0.000238   0.000362  -0.000002
     8  C    0.527822   4.886383   0.518367  -0.000660  -0.002321  -0.000005
     9  C   -0.033511   0.518367   5.038244  -0.011838  -0.014036  -0.000432
    10  C   -0.000238  -0.000660  -0.011838   5.162143  -0.066992  -0.003078
    11  C    0.000362  -0.002321  -0.014036  -0.066992   5.265698  -0.013964
    12  O   -0.000002  -0.000005  -0.000432  -0.003078  -0.013964   7.950580
    13  H    0.003652  -0.000340   0.003512  -0.007633   0.000464  -0.000682
    14  H   -0.035055   0.003885   0.000277   0.000033   0.000008   0.000001
    15  H    0.407833  -0.033889   0.004563   0.000001  -0.000007   0.000000
    16  H   -0.032218   0.404670  -0.031489   0.000004   0.000088  -0.000000
    17  H    0.001416  -0.010049   0.393342  -0.000460  -0.000765  -0.000010
    18  H   -0.000101   0.000037   0.005483   0.408862  -0.014374   0.000383
    19  H    0.000010  -0.000011   0.001135   0.407186   0.010703   0.000624
    20  H   -0.000000   0.000016  -0.000536   0.401565  -0.010430   0.001438
    21  H   -0.000061  -0.000500  -0.009265   0.012227   0.427412   0.000072
    22  H   -0.000005   0.000033  -0.000188  -0.010292   0.405619   0.006015
    23  H    0.000089   0.000018   0.001420  -0.016500   0.426171   0.000024
    24  H    0.000002  -0.000002   0.000078  -0.001563   0.000916   0.294613
              13         14         15         16         17         18
     1  O   -0.000265   0.000042  -0.000000   0.000002   0.000061  -0.000405
     2  C   -0.007145   0.000067  -0.000002   0.000015  -0.000021   0.012997
     3  C    0.033449  -0.000391   0.000031  -0.000260  -0.008487  -0.024383
     4  C   -0.066847   0.006649   0.000812   0.006343  -0.030591  -0.015285
     5  C    0.401688  -0.032431   0.004588   0.000589   0.001630  -0.006953
     6  C   -0.012968   0.407588  -0.033908   0.003418   0.000865   0.000081
     7  C    0.003652  -0.035055   0.407833  -0.032218   0.001416  -0.000101
     8  C   -0.000340   0.003885  -0.033889   0.404670  -0.010049   0.000037
     9  C    0.003512   0.000277   0.004563  -0.031489   0.393342   0.005483
    10  C   -0.007633   0.000033   0.000001   0.000004  -0.000460   0.408862
    11  C    0.000464   0.000008  -0.000007   0.000088  -0.000765  -0.014374
    12  O   -0.000682   0.000001   0.000000  -0.000000  -0.000010   0.000383
    13  H    0.493925  -0.004157  -0.000280   0.000067  -0.000268   0.000117
    14  H   -0.004157   0.515135  -0.003806  -0.000295   0.000081   0.000007
    15  H   -0.000280  -0.003806   0.516120  -0.003874  -0.000306  -0.000002
    16  H    0.000067  -0.000295  -0.003874   0.515439  -0.003375   0.000004
    17  H   -0.000268   0.000081  -0.000306  -0.003375   0.502539   0.000311
    18  H    0.000117   0.000007  -0.000002   0.000004   0.000311   0.515226
    19  H   -0.000053   0.000003  -0.000001  -0.000001  -0.000018  -0.021301
    20  H    0.000111  -0.000002   0.000000  -0.000000  -0.000050  -0.023710
    21  H   -0.000012  -0.000000   0.000001   0.000016  -0.004875  -0.000188
    22  H   -0.000018  -0.000000   0.000000  -0.000000   0.000719   0.000087
    23  H    0.000017  -0.000001   0.000001  -0.000008  -0.003756   0.003074
    24  H    0.000099  -0.000000  -0.000000   0.000000   0.000002   0.000097
              19         20         21         22         23         24
     1  O    0.000168   0.000149   0.002626   0.000218  -0.000457   0.006130
     2  C   -0.011585  -0.013326  -0.011410  -0.012479   0.012828  -0.027368
     3  C   -0.007404  -0.024730  -0.049368  -0.030979  -0.035169   0.017540
     4  C   -0.028664   0.019522   0.007103   0.019296  -0.018641  -0.002269
     5  C    0.002857   0.001124   0.000527  -0.000422  -0.000638  -0.000207
     6  C    0.000690  -0.000065  -0.000029   0.000031  -0.000214  -0.000019
     7  C    0.000010  -0.000000  -0.000061  -0.000005   0.000089   0.000002
     8  C   -0.000011   0.000016  -0.000500   0.000033   0.000018  -0.000002
     9  C    0.001135  -0.000536  -0.009265  -0.000188   0.001420   0.000078
    10  C    0.407186   0.401565   0.012227  -0.010292  -0.016500  -0.001563
    11  C    0.010703  -0.010430   0.427412   0.405619   0.426171   0.000916
    12  O    0.000624   0.001438   0.000072   0.006015   0.000024   0.294613
    13  H   -0.000053   0.000111  -0.000012  -0.000018   0.000017   0.000099
    14  H    0.000003  -0.000002  -0.000000  -0.000000  -0.000001  -0.000000
    15  H   -0.000001   0.000000   0.000001   0.000000   0.000001  -0.000000
    16  H   -0.000001  -0.000000   0.000016  -0.000000  -0.000008   0.000000
    17  H   -0.000018  -0.000050  -0.004875   0.000719  -0.003756   0.000002
    18  H   -0.021301  -0.023710  -0.000188   0.000087   0.003074   0.000097
    19  H    0.514086  -0.021620  -0.000310  -0.000132   0.000028  -0.000174
    20  H   -0.021620   0.501518  -0.000217   0.002258   0.000463  -0.000001
    21  H   -0.000310  -0.000217   0.484646  -0.015977  -0.029380  -0.000240
    22  H   -0.000132   0.002258  -0.015977   0.478884  -0.019063  -0.000693
    23  H    0.000028   0.000463  -0.029380  -0.019063   0.511722   0.000119
    24  H   -0.000174  -0.000001  -0.000240  -0.000693   0.000119   0.375316
 Mulliken charges:
               1
     1  O   -0.306296
     2  C    0.339032
     3  C   -0.104875
     4  C    0.174556
     5  C   -0.211384
     6  C   -0.152716
     7  C   -0.152599
     8  C   -0.155632
     9  C   -0.173928
    10  C   -0.409135
    11  C   -0.529946
    12  O   -0.418076
    13  H    0.163566
    14  H    0.142364
    15  H    0.142126
    16  H    0.140868
    17  H    0.162064
    18  H    0.159938
    19  H    0.153784
    20  H    0.166524
    21  H    0.187202
    22  H    0.177087
    23  H    0.167852
    24  H    0.337623
 Sum of Mulliken charges =  -0.00000
 Mulliken charges with hydrogens summed into heavy atoms:
               1
     1  O   -0.306296
     2  C    0.339032
     3  C   -0.104875
     4  C    0.174556
     5  C   -0.047817
     6  C   -0.010351
     7  C   -0.010473
     8  C   -0.014765
     9  C   -0.011864
    10  C    0.071111
    11  C    0.002195
    12  O   -0.080453
 Electronic spatial extent (au):  <R**2>=           2079.6227
 Charge=              0.0000 electrons
 Dipole moment (field-independent basis, Debye):
    X=             -0.8019    Y=              1.1127    Z=              1.0085  Tot=              1.7024
 Quadrupole moment (field-independent basis, Debye-Ang):
   XX=            -63.0281   YY=            -68.7683   ZZ=            -75.4577
   XY=              1.1111   XZ=              0.1009   YZ=             -4.8324
 Traceless Quadrupole moment (field-independent basis, Debye-Ang):
   XX=              6.0566   YY=              0.3164   ZZ=             -6.3730
   XY=              1.1111   XZ=              0.1009   YZ=             -4.8324
 Octapole moment (field-independent basis, Debye-Ang**2):
  XXX=            -23.8246  YYY=             -5.2808  ZZZ=             -1.5637  XYY=             -6.8442
  XXY=            -19.6923  XXZ=            -15.0865  XZZ=            -12.4650  YZZ=              2.3939
  YYZ=              3.6368  XYZ=             -5.8271
 Hexadecapole moment (field-independent basis, Debye-Ang**3):
 XXXX=          -1631.0478 YYYY=           -578.2821 ZZZZ=           -361.6434 XXXY=             72.7918
 XXXZ=             32.6604 YYYX=             19.3047 YYYZ=            -13.2303 ZZZX=              4.3675
 ZZZY=             -0.2024 XXYY=           -359.6741 XXZZ=           -379.3903 YYZZ=           -160.5045
 XXYZ=             -1.5582 YYXZ=              1.3048 ZZXY=              3.9250
 N-N= 6.966675702449D+02 E-N=-2.648435412962D+03  KE= 5.358971184541D+02
 Unable to Open any file for archive entry.
 1\1\GINC-NOTCH075\SP\RM062X\def2TZVP\C10H12O2\U6032257\03-Feb-2022\0\\
 # M062X/def2tzvp int=(grid=ultrafine) nmr=giao guess=read geom=check\\
 Ac5.xyz\\0,1\O,0,-1.1907224143,-0.5414804735,2.2588573347\C,0,-1.66336
 77804,-0.0143898134,1.2779170796\C,0,-1.0201019212,0.0814819967,-0.112
 1062403\C,0,0.4770393669,-0.2137425477,-0.0108578006\C,0,1.2652512678,
 0.5211201369,0.8869250036\C,0,2.6405088842,0.3270340061,0.9627101301\C
 ,0,3.2636133582,-0.6099891613,0.135797355\C,0,2.4938604667,-1.34736258
 98,-0.7592235783\C,0,1.1125683626,-1.1500808372,-0.8304825917\C,0,-1.2
 17710655,1.5013427514,-0.694933117\C,0,-1.7799978121,-0.9285334922,-1.
 0006207416\O,0,-2.9071086693,0.5348055987,1.2940523079\H,0,0.794192432
 ,1.2418763684,1.5473626024\H,0,3.2267793001,0.9045736049,1.6710415153\
 H,0,4.3368066795,-0.7636658403,0.193240024\H,0,2.9632011555,-2.0821059
 43,-1.4065869114\H,0,0.5382864892,-1.740099545,-1.5346869579\H,0,-0.74
 75271429,1.5508444308,-1.6808751834\H,0,-0.7504152296,2.2601942428,-0.
 0623363377\H,0,-2.2784234559,1.7398092977,-0.7945491585\H,0,-1.6448654
 305,-1.9537364214,-0.6453000181\H,0,-2.8467096155,-0.6963762326,-0.996
 2945961\H,0,-1.4243044424,-0.8676577459,-2.0325559697\H,0,-3.246853193
 6,0.3842382089,2.1920058498\\Version=ES64L-G16RevC.01\State=1-A\HF=-53
 8.7362309\RMSD=7.567e-10\Dipole=-0.3492024,0.276845,-0.5000235\Quadrup
 ole=4.0943679,-1.6685193,-2.4258486,-0.5955946,-1.043202,4.5637371\PG=
 C01 [X(C10H12O2)]\\@
 The archive entry for this job was punched.


 BUT 'GLORY' DOESN'T MEAN 'A NICE KNOCK DOWN ARGUMENT', ALICE OBJECTED.
 WHEN I USE A WORD, HUMPTY DUMPTY SAID, IN A RATHER SCORNFUL TONE,
 IT MEANS JUST WHAT I CHOOSE IT TO MEAN....
 NEITHER MORE NOR LESS....
 THE QUESTION IS, SAID ALICE,
 WHETHER YOU CAN MAKE WORDS MEAN SO MANY DIFFERENT THINGS...
 THE QUESTION IS, SAID HUMPTY DUMPTY,
 WHICH IS TO BE MASTER....
 THAT IS ALL.....

 ALICE THROUGH THE LOOKING GLASS
 Job cpu time:       0 days  0 hours 37 minutes 59.6 seconds.
 Elapsed time:       0 days  0 hours  1 minutes 18.2 seconds.
 File lengths (MBytes):  RWF=    114 Int=      0 D2E=      0 Chk=     19 Scr=      1
 Normal termination of Gaussian 16 at Thu Feb  3 03:52:16 2022.
