 Entering Gaussian System, Link 0=/uufs/chpc.utah.edu/sys/installdir/gaussian16/C01/AVX2/g16/g16
 Input=Ac5_conf-1.com
 Output=Ac5_conf-1.log
 Initial command:
 /uufs/chpc.utah.edu/sys/installdir/gaussian16/C01/AVX2/g16/l1.exe "/scratch/general/lustre/u6032257/3856658/notchpeak.peaks/Gau-217024.inp" -scrdir="/scratch/general/lustre/u6032257/3856658/notchpeak.peaks/"
 Entering Link 1 = /uufs/chpc.utah.edu/sys/installdir/gaussian16/C01/AVX2/g16/l1.exe PID=    217026.
  
 Copyright (c) 1988-2019, Gaussian, Inc.  All Rights Reserved.
  
 This is part of the Gaussian(R) 16 program.  It is based on
 the Gaussian(R) 09 system (copyright 2009, Gaussian, Inc.),
 the Gaussian(R) 03 system (copyright 2003, Gaussian, Inc.),
 the Gaussian(R) 98 system (copyright 1998, Gaussian, Inc.),
 the Gaussian(R) 94 system (copyright 1995, Gaussian, Inc.),
 the Gaussian 92(TM) system (copyright 1992, Gaussian, Inc.),
 the Gaussian 90(TM) system (copyright 1990, Gaussian, Inc.),
 the Gaussian 88(TM) system (copyright 1988, Gaussian, Inc.),
 the Gaussian 86(TM) system (copyright 1986, Carnegie Mellon
 University), and the Gaussian 82(TM) system (copyright 1983,
 Carnegie Mellon University). Gaussian is a federally registered
 trademark of Gaussian, Inc.
  
 This software contains proprietary and confidential information,
 including trade secrets, belonging to Gaussian, Inc.
  
 This software is provided under written license and may be
 used, copied, transmitted, or stored only in accord with that
 written license.
  
 The following legend is applicable only to US Government
 contracts under FAR:
  
                    RESTRICTED RIGHTS LEGEND
  
 Use, reproduction and disclosure by the US Government is
 subject to restrictions as set forth in subparagraphs (a)
 and (c) of the Commercial Computer Software - Restricted
 Rights clause in FAR 52.227-19.
  
 Gaussian, Inc.
 340 Quinnipiac St., Bldg. 40, Wallingford CT 06492
  
  
 ---------------------------------------------------------------
 Warning -- This program may not be used in any manner that
 competes with the business of Gaussian, Inc. or will provide
 assistance to any competitor of Gaussian, Inc.  The licensee
 of this program is prohibited from giving any competitor of
 Gaussian, Inc. access to this program.  By using this program,
 the user acknowledges that Gaussian, Inc. is engaged in the
 business of creating and licensing software in the field of
 computational chemistry and represents and warrants to the
 licensee that it is not a competitor of Gaussian, Inc. and that
 it will not use this program in any manner prohibited above.
 ---------------------------------------------------------------
  

 Cite this work as:
 Gaussian 16, Revision C.01,
 M. J. Frisch, G. W. Trucks, H. B. Schlegel, G. E. Scuseria, 
 M. A. Robb, J. R. Cheeseman, G. Scalmani, V. Barone, 
 G. A. Petersson, H. Nakatsuji, X. Li, M. Caricato, A. V. Marenich, 
 J. Bloino, B. G. Janesko, R. Gomperts, B. Mennucci, H. P. Hratchian, 
 J. V. Ortiz, A. F. Izmaylov, J. L. Sonnenberg, D. Williams-Young, 
 F. Ding, F. Lipparini, F. Egidi, J. Goings, B. Peng, A. Petrone, 
 T. Henderson, D. Ranasinghe, V. G. Zakrzewski, J. Gao, N. Rega, 
 G. Zheng, W. Liang, M. Hada, M. Ehara, K. Toyota, R. Fukuda, 
 J. Hasegawa, M. Ishida, T. Nakajima, Y. Honda, O. Kitao, H. Nakai, 
 T. Vreven, K. Throssell, J. A. Montgomery, Jr., J. E. Peralta, 
 F. Ogliaro, M. J. Bearpark, J. J. Heyd, E. N. Brothers, K. N. Kudin, 
 V. N. Staroverov, T. A. Keith, R. Kobayashi, J. Normand, 
 K. Raghavachari, A. P. Rendell, J. C. Burant, S. S. Iyengar, 
 J. Tomasi, M. Cossi, J. M. Millam, M. Klene, C. Adamo, R. Cammi, 
 J. W. Ochterski, R. L. Martin, K. Morokuma, O. Farkas, 
 J. B. Foresman, and D. J. Fox, Gaussian, Inc., Wallingford CT, 2019.
 
 ******************************************
 Gaussian 16:  ES64L-G16RevC.01  3-Jul-2019
                 3-Feb-2022 
 ******************************************
 %NProcShared=32
 Will use up to   32 processors via shared memory.
 %mem=16GB
 %chk=Ac5_conf-1.chk
 ----------------------------------------------------------------------
 # B3LYP/6-31G(d,p) empiricaldispersion=GD3BJ int=(grid=ultrafine) opt 
 freq=noraman
 ----------------------------------------------------------------------
 1/18=20,19=15,26=4,38=1/1,3;
 2/9=110,12=2,17=6,18=5,40=1/2;
 3/5=1,6=6,7=101,11=2,25=1,30=1,71=1,74=-5,75=-5,124=41/1,2,3;
 4//1;
 5/5=2,38=5/2;
 6/7=2,8=2,9=2,10=2,28=1/1;
 7//1,2,3,16;
 1/18=20,19=15,26=4/3(2);
 2/9=110/2;
 99//99;
 2/9=110/2;
 3/5=1,6=6,7=101,11=2,25=1,30=1,71=1,74=-5,75=-5,124=41/1,2,3;
 4/5=5,16=3,69=1/1;
 5/5=2,38=5/2;
 7//1,2,3,16;
 1/18=20,19=15,26=4/3(-5);
 2/9=110/2;
 6/7=2,8=2,9=2,10=2,19=2,28=1/1;
 99/9=1/99;
 -------
 Ac5.xyz
 -------
 Symbolic Z-matrix:
 Charge =  0 Multiplicity = 1
 O                    -2.6454   -1.2884    0.9839 
 C                    -1.9016   -0.3131    0.9833 
 C                    -1.0988    0.1907   -0.2564 
 C                     0.4141   -0.0647   -0.0069 
 C                     0.8772   -1.3796    0.1707 
 C                     2.2283   -1.6415    0.3797 
 C                     3.137    -0.5885    0.4092 
 C                     2.7035    0.7216    0.231 
 C                     1.3513    0.9814    0.0222 
 C                    -1.4453    1.6897   -0.5093 
 C                    -1.5371   -0.5799   -1.5367 
 O                    -1.686     0.4236    2.1 
 H                     0.1837   -2.2081    0.1541 
 H                     2.568    -2.6577    0.5185 
 H                     4.1862   -0.7896    0.5716 
 H                     3.4136    1.5355    0.2544 
 H                     1.0527    2.0089   -0.112 
 H                    -0.9276    2.0786   -1.3871 
 H                    -1.1769    2.3253    0.3364 
 H                    -2.5131    1.8336   -0.6837 
 H                    -1.3947   -1.6576   -1.4469 
 H                    -2.5934   -0.4242   -1.7633 
 H                    -0.9672   -0.2561   -2.4086 
 H                    -2.2046   -0.0149    2.774 
 

 GradGradGradGradGradGradGradGradGradGradGradGradGradGradGradGradGradGrad
 Berny optimization.
 Initialization pass.
                           ----------------------------
                           !    Initial Parameters    !
                           ! (Angstroms and Degrees)  !
 --------------------------                            --------------------------
 ! Name  Definition              Value          Derivative Info.                !
 --------------------------------------------------------------------------------
 ! R1    R(1,2)                  1.2266         estimate D2E/DX2                !
 ! R2    R(2,3)                  1.5605         estimate D2E/DX2                !
 ! R3    R(2,12)                 1.3551         estimate D2E/DX2                !
 ! R4    R(3,4)                  1.5545         estimate D2E/DX2                !
 ! R5    R(3,10)                 1.5592         estimate D2E/DX2                !
 ! R6    R(3,11)                 1.5573         estimate D2E/DX2                !
 ! R7    R(4,5)                  1.4053         estimate D2E/DX2                !
 ! R8    R(4,9)                  1.4048         estimate D2E/DX2                !
 ! R9    R(5,6)                  1.392          estimate D2E/DX2                !
 ! R10   R(5,13)                 1.0806         estimate D2E/DX2                !
 ! R11   R(6,7)                  1.3912         estimate D2E/DX2                !
 ! R12   R(6,14)                 1.0804         estimate D2E/DX2                !
 ! R13   R(7,8)                  1.3914         estimate D2E/DX2                !
 ! R14   R(7,15)                 1.0806         estimate D2E/DX2                !
 ! R15   R(8,9)                  1.3927         estimate D2E/DX2                !
 ! R16   R(8,16)                 1.0804         estimate D2E/DX2                !
 ! R17   R(9,17)                 1.0784         estimate D2E/DX2                !
 ! R18   R(10,18)                1.0908         estimate D2E/DX2                !
 ! R19   R(10,19)                1.0914         estimate D2E/DX2                !
 ! R20   R(10,20)                1.0915         estimate D2E/DX2                !
 ! R21   R(11,21)                1.0908         estimate D2E/DX2                !
 ! R22   R(11,22)                1.0915         estimate D2E/DX2                !
 ! R23   R(11,23)                1.0908         estimate D2E/DX2                !
 ! R24   R(12,24)                0.9568         estimate D2E/DX2                !
 ! A1    A(1,2,3)              124.6853         estimate D2E/DX2                !
 ! A2    A(1,2,12)             121.8955         estimate D2E/DX2                !
 ! A3    A(3,2,12)             113.4098         estimate D2E/DX2                !
 ! A4    A(2,3,4)              108.6715         estimate D2E/DX2                !
 ! A5    A(2,3,10)             108.9604         estimate D2E/DX2                !
 ! A6    A(2,3,11)             110.4005         estimate D2E/DX2                !
 ! A7    A(4,3,10)             113.5961         estimate D2E/DX2                !
 ! A8    A(4,3,11)             108.9404         estimate D2E/DX2                !
 ! A9    A(10,3,11)            106.2507         estimate D2E/DX2                !
 ! A10   A(3,4,5)              119.6521         estimate D2E/DX2                !
 ! A11   A(3,4,9)              122.0239         estimate D2E/DX2                !
 ! A12   A(5,4,9)              118.3121         estimate D2E/DX2                !
 ! A13   A(4,5,6)              120.9875         estimate D2E/DX2                !
 ! A14   A(4,5,13)             120.262          estimate D2E/DX2                !
 ! A15   A(6,5,13)             118.749          estimate D2E/DX2                !
 ! A16   A(5,6,7)              119.6535         estimate D2E/DX2                !
 ! A17   A(5,6,14)             120.0936         estimate D2E/DX2                !
 ! A18   A(7,6,14)             120.2529         estimate D2E/DX2                !
 ! A19   A(6,7,8)              120.4279         estimate D2E/DX2                !
 ! A20   A(6,7,15)             119.7714         estimate D2E/DX2                !
 ! A21   A(8,7,15)             119.8007         estimate D2E/DX2                !
 ! A22   A(7,8,9)              119.8246         estimate D2E/DX2                !
 ! A23   A(7,8,16)             120.1172         estimate D2E/DX2                !
 ! A24   A(9,8,16)             120.0582         estimate D2E/DX2                !
 ! A25   A(4,9,8)              120.7929         estimate D2E/DX2                !
 ! A26   A(4,9,17)             121.4804         estimate D2E/DX2                !
 ! A27   A(8,9,17)             117.7263         estimate D2E/DX2                !
 ! A28   A(3,10,18)            111.5819         estimate D2E/DX2                !
 ! A29   A(3,10,19)            112.3055         estimate D2E/DX2                !
 ! A30   A(3,10,20)            111.7206         estimate D2E/DX2                !
 ! A31   A(18,10,19)           107.4105         estimate D2E/DX2                !
 ! A32   A(18,10,20)           106.782          estimate D2E/DX2                !
 ! A33   A(19,10,20)           106.715          estimate D2E/DX2                !
 ! A34   A(3,11,21)            112.6116         estimate D2E/DX2                !
 ! A35   A(3,11,22)            111.8681         estimate D2E/DX2                !
 ! A36   A(3,11,23)            111.2979         estimate D2E/DX2                !
 ! A37   A(21,11,22)           106.5213         estimate D2E/DX2                !
 ! A38   A(21,11,23)           106.9112         estimate D2E/DX2                !
 ! A39   A(22,11,23)           107.2971         estimate D2E/DX2                !
 ! A40   A(2,12,24)            104.1884         estimate D2E/DX2                !
 ! D1    D(1,2,3,4)           -110.8519         estimate D2E/DX2                !
 ! D2    D(1,2,3,10)           124.8942         estimate D2E/DX2                !
 ! D3    D(1,2,3,11)             8.569          estimate D2E/DX2                !
 ! D4    D(12,2,3,4)            68.0487         estimate D2E/DX2                !
 ! D5    D(12,2,3,10)          -56.2051         estimate D2E/DX2                !
 ! D6    D(12,2,3,11)         -172.5304         estimate D2E/DX2                !
 ! D7    D(1,2,12,24)            1.1744         estimate D2E/DX2                !
 ! D8    D(3,2,12,24)         -177.7609         estimate D2E/DX2                !
 ! D9    D(2,3,4,5)             61.6206         estimate D2E/DX2                !
 ! D10   D(2,3,4,9)           -119.654          estimate D2E/DX2                !
 ! D11   D(10,3,4,5)          -176.9218         estimate D2E/DX2                !
 ! D12   D(10,3,4,9)             1.8035         estimate D2E/DX2                !
 ! D13   D(11,3,4,5)           -58.7089         estimate D2E/DX2                !
 ! D14   D(11,3,4,9)           120.0165         estimate D2E/DX2                !
 ! D15   D(2,3,10,18)         -178.3433         estimate D2E/DX2                !
 ! D16   D(2,3,10,19)           60.9878         estimate D2E/DX2                !
 ! D17   D(2,3,10,20)          -58.8838         estimate D2E/DX2                !
 ! D18   D(4,3,10,18)           60.3606         estimate D2E/DX2                !
 ! D19   D(4,3,10,19)          -60.3083         estimate D2E/DX2                !
 ! D20   D(4,3,10,20)          179.8201         estimate D2E/DX2                !
 ! D21   D(11,3,10,18)         -59.3925         estimate D2E/DX2                !
 ! D22   D(11,3,10,19)         179.9386         estimate D2E/DX2                !
 ! D23   D(11,3,10,20)          60.067          estimate D2E/DX2                !
 ! D24   D(2,3,11,21)          -58.5654         estimate D2E/DX2                !
 ! D25   D(2,3,11,22)           61.3749         estimate D2E/DX2                !
 ! D26   D(2,3,11,23)         -178.6035         estimate D2E/DX2                !
 ! D27   D(4,3,11,21)           60.6926         estimate D2E/DX2                !
 ! D28   D(4,3,11,22)         -179.3671         estimate D2E/DX2                !
 ! D29   D(4,3,11,23)          -59.3455         estimate D2E/DX2                !
 ! D30   D(10,3,11,21)        -176.5666         estimate D2E/DX2                !
 ! D31   D(10,3,11,22)         -56.6263         estimate D2E/DX2                !
 ! D32   D(10,3,11,23)          63.3953         estimate D2E/DX2                !
 ! D33   D(3,4,5,6)            179.2152         estimate D2E/DX2                !
 ! D34   D(3,4,5,13)            -1.2326         estimate D2E/DX2                !
 ! D35   D(9,4,5,6)              0.4427         estimate D2E/DX2                !
 ! D36   D(9,4,5,13)           179.9949         estimate D2E/DX2                !
 ! D37   D(3,4,9,8)           -179.176          estimate D2E/DX2                !
 ! D38   D(3,4,9,17)             1.032          estimate D2E/DX2                !
 ! D39   D(5,4,9,8)             -0.4342         estimate D2E/DX2                !
 ! D40   D(5,4,9,17)           179.7737         estimate D2E/DX2                !
 ! D41   D(4,5,6,7)             -0.2224         estimate D2E/DX2                !
 ! D42   D(4,5,6,14)           179.7547         estimate D2E/DX2                !
 ! D43   D(13,5,6,7)          -179.7812         estimate D2E/DX2                !
 ! D44   D(13,5,6,14)            0.1959         estimate D2E/DX2                !
 ! D45   D(5,6,7,8)             -0.0167         estimate D2E/DX2                !
 ! D46   D(5,6,7,15)           179.9815         estimate D2E/DX2                !
 ! D47   D(14,6,7,8)          -179.9938         estimate D2E/DX2                !
 ! D48   D(14,6,7,15)            0.0044         estimate D2E/DX2                !
 ! D49   D(6,7,8,9)              0.0243         estimate D2E/DX2                !
 ! D50   D(6,7,8,16)          -179.9719         estimate D2E/DX2                !
 ! D51   D(15,7,8,9)          -179.974          estimate D2E/DX2                !
 ! D52   D(15,7,8,16)            0.0299         estimate D2E/DX2                !
 ! D53   D(7,8,9,4)              0.2069         estimate D2E/DX2                !
 ! D54   D(7,8,9,17)          -179.9935         estimate D2E/DX2                !
 ! D55   D(16,8,9,4)          -179.797          estimate D2E/DX2                !
 ! D56   D(16,8,9,17)            0.0027         estimate D2E/DX2                !
 --------------------------------------------------------------------------------
 Trust Radius=3.00D-01 FncErr=1.00D-07 GrdErr=1.00D-06 EigMax=2.50D+02 EigMin=1.00D-04
 Number of steps in this run=    130 maximum allowed number of steps=    144.
 GradGradGradGradGradGradGradGradGradGradGradGradGradGradGradGradGradGrad

                          Input orientation:                          
 ---------------------------------------------------------------------
 Center     Atomic      Atomic             Coordinates (Angstroms)
 Number     Number       Type             X           Y           Z
 ---------------------------------------------------------------------
      1          8           0       -2.645400   -1.288400    0.983900
      2          6           0       -1.901600   -0.313100    0.983300
      3          6           0       -1.098800    0.190700   -0.256400
      4          6           0        0.414100   -0.064700   -0.006900
      5          6           0        0.877200   -1.379600    0.170700
      6          6           0        2.228300   -1.641500    0.379700
      7          6           0        3.137000   -0.588500    0.409200
      8          6           0        2.703500    0.721600    0.231000
      9          6           0        1.351300    0.981400    0.022200
     10          6           0       -1.445300    1.689700   -0.509300
     11          6           0       -1.537100   -0.579900   -1.536700
     12          8           0       -1.686000    0.423600    2.100000
     13          1           0        0.183700   -2.208100    0.154100
     14          1           0        2.568000   -2.657700    0.518500
     15          1           0        4.186200   -0.789600    0.571600
     16          1           0        3.413600    1.535500    0.254400
     17          1           0        1.052700    2.008900   -0.112000
     18          1           0       -0.927600    2.078600   -1.387100
     19          1           0       -1.176900    2.325300    0.336400
     20          1           0       -2.513100    1.833600   -0.683700
     21          1           0       -1.394700   -1.657600   -1.446900
     22          1           0       -2.593400   -0.424200   -1.763300
     23          1           0       -0.967200   -0.256100   -2.408600
     24          1           0       -2.204600   -0.014900    2.774000
 ---------------------------------------------------------------------
                    Distance matrix (angstroms):
                    1          2          3          4          5
     1  O    0.000000
     2  C    1.226560   0.000000
     3  C    2.473470   1.560499   0.000000
     4  C    3.440882   2.530744   1.554460   0.000000
     5  C    3.616396   3.085364   2.559850   1.405335   0.000000
     6  C    4.923687   4.380075   3.851126   2.434559   1.392029
     7  C    5.852887   5.078674   4.358002   2.803871   2.406121
     8  C    5.763479   4.779488   3.870000   2.432327   2.784609
     9  C    4.695793   3.630537   2.589559   1.404819   2.412705
    10  C    3.541040   2.539148   1.559173   2.605320   3.908581
    11  C    2.843189   2.560165   1.557273   2.532371   3.063263
    12  O    2.257669   1.355075   2.439604   3.014612   3.680180
    13  H    3.088401   2.937188   2.750919   2.161751   1.080569
    14  H    5.410279   5.068581   4.707364   3.411595   2.147862
    15  H    6.862183   6.120283   5.438547   3.884441   3.385011
    16  H    6.724438   5.674502   4.736154   3.409680   3.864989
    17  H    5.074360   3.913982   2.820577   2.172251   3.404798
    18  H    4.461969   3.505382   2.207251   2.880772   4.200380
    19  H    3.954058   2.811552   2.216761   2.891580   4.239465
    20  H    3.541931   2.785883   2.209514   3.553885   4.748556
    21  H    2.758505   2.823207   2.218346   2.807612   2.802756
    22  H    2.880391   2.834562   2.209678   3.501319   4.086344
    23  H    3.923143   3.518713   2.202025   2.777190   3.364053
    24  H    2.240662   1.840472   3.232397   3.820141   4.258764
                    6          7          8          9         10
     6  C    0.000000
     7  C    1.391192   0.000000
     8  C    2.414988   1.391416   0.000000
     9  C    2.788645   2.408958   1.392673   0.000000
    10  C    5.038110   5.199164   4.324096   2.933454   0.000000
    11  C    4.356354   5.062984   4.775076   3.634650   2.493003
    12  O    4.748243   5.210036   4.780133   3.722040   2.910222
    13  H    2.133617   3.377893   3.865029   3.399058   4.276282
    14  H    1.080428   2.148789   3.394213   3.869072   6.005234
    15  H    2.143812   1.080572   2.144326   3.387468   6.247325
    16  H    3.393223   2.147521   1.080381   2.148028   4.920968
    17  H    3.866423   3.370822   2.121304   1.078391   2.549459
    18  H    5.188490   5.182768   4.200546   2.895403   1.090775
    19  H    5.228075   5.206272   4.200056   2.880379   1.091437
    20  H    5.973945   6.243767   5.411667   4.019717   1.091476
    21  H    4.057444   5.012423   5.027045   4.082045   3.476503
    22  H    5.415077   6.130598   5.774707   4.552404   2.712789
    23  H    4.461521   4.989483   4.625735   3.579893   2.760807
    24  H    5.294252   5.869752   5.576623   4.605371   3.776540
                   11         12         13         14         15
    11  C    0.000000
    12  O    3.775549   0.000000
    13  H    2.910497   3.769370   0.000000
    14  H    5.039141   5.485624   2.453531   0.000000
    15  H    6.102874   6.187939   4.266902   2.472082   0.000000
    16  H    5.673834   5.536107   4.945387   4.285757   2.470550
    17  H    3.929214   3.860906   4.313822   4.946799   4.256493
    18  H    2.731573   3.933708   4.688932   6.187331   6.181750
    19  H    3.475404   2.643091   4.736685   6.236002   6.206510
    20  H    2.739556   3.228185   4.930515   6.887281   7.303258
    21  H    1.090770   4.122711   2.314649   4.534974   5.997851
    22  H    1.091494   4.057983   3.817199   6.069200   7.179711
    23  H    1.090799   4.615857   3.420863   5.180081   5.976934
    24  H    4.398513   0.956820   4.168690   5.903337   6.803900
                   16         17         18         19         20
    16  H    0.000000
    17  H    2.435612   0.000000
    18  H    4.672847   2.356337   0.000000
    19  H    4.658669   2.296146   1.758825   0.000000
    20  H    6.007884   3.615591   1.751744   1.751515   0.000000
    21  H    6.017479   4.605969   3.765760   4.369335   3.744565
    22  H    6.632917   4.684102   3.029921   3.738310   2.503926
    23  H    5.430728   3.805863   2.548697   3.773940   3.119605
    24  H    6.349511   4.799455   4.829930   3.531940   3.932914
                   21         22         23         24
    21  H    0.000000
    22  H    1.748790   0.000000
    23  H    1.752662   1.757611   0.000000
    24  H    4.601130   4.572284   5.333730   0.000000
 Stoichiometry    C10H12O2
 Framework group  C1[X(C10H12O2)]
 Deg. of freedom    66
 Full point group                 C1      NOp   1
 Largest Abelian subgroup         C1      NOp   1
 Largest concise Abelian subgroup C1      NOp   1
                         Standard orientation:                         
 ---------------------------------------------------------------------
 Center     Atomic      Atomic             Coordinates (Angstroms)
 Number     Number       Type             X           Y           Z
 ---------------------------------------------------------------------
      1          8           0        2.516821   -1.471852   -0.119072
      2          6           0        1.838314   -0.530441   -0.516340
      3          6           0        1.021095    0.426841    0.406115
      4          6           0       -0.494031    0.167718    0.174607
      5          6           0       -1.033875   -1.098728    0.456825
      6          6           0       -2.389703   -1.356551    0.275159
      7          6           0       -3.226402   -0.346286   -0.188213
      8          6           0       -2.716407    0.917272   -0.469932
      9          6           0       -1.359610    1.173018   -0.287626
     10          6           0        1.453601    1.897306    0.120300
     11          6           0        1.357232    0.156747    1.902498
     12          8           0        1.715521   -0.242450   -1.834753
     13          1           0       -0.396700   -1.895030    0.813955
     14          1           0       -2.788705   -2.336702    0.492934
     15          1           0       -4.279122   -0.544416   -0.330204
     16          1           0       -3.370808    1.698277   -0.829114
     17          1           0       -1.000674    2.163887   -0.516260
     18          1           0        0.927628    2.602729    0.764910
     19          1           0        1.260821    2.192477   -0.912630
     20          1           0        2.520684    2.045758    0.295270
     21          1           0        1.149025   -0.871787    2.200067
     22          1           0        2.411534    0.335729    2.121066
     23          1           0        0.775229    0.801865    2.561996
     24          1           0        2.231063   -0.919753   -2.271766
 ---------------------------------------------------------------------
 Rotational constants (GHZ):           1.5807652           0.6606529           0.6205978
 Standard basis: 6-31G(d,p) (6D, 7F)
 There are   240 symmetry adapted cartesian basis functions of A   symmetry.
 There are   240 symmetry adapted basis functions of A   symmetry.
   240 basis functions,   420 primitive gaussians,   240 cartesian basis functions
    44 alpha electrons       44 beta electrons
       nuclear repulsion energy       692.7893906260 Hartrees.
 NAtoms=   24 NActive=   24 NUniq=   24 SFac= 1.00D+00 NAtFMM=   60 NAOKFM=F Big=F
 Integral buffers will be    131072 words long.
 Raffenetti 2 integral format.
 Two-electron integral symmetry is turned on.
 Nuclear repulsion after empirical dispersion term =      692.7432354713 Hartrees.
 One-electron integrals computed using PRISM.
 NBasis=   240 RedAO= T EigKep=  4.55D-04  NBF=   240
 NBsUse=   240 1.00D-06 EigRej= -1.00D+00 NBFU=   240
 ExpMin= 1.61D-01 ExpMax= 5.48D+03 ExpMxC= 8.25D+02 IAcc=3 IRadAn=         5 AccDes= 0.00D+00
 Harris functional with IExCor=  402 and IRadAn=       5 diagonalized for initial guess.
 HarFok:  IExCor=  402 AccDes= 0.00D+00 IRadAn=         5 IDoV= 1 UseB2=F ITyADJ=14
 ICtDFT=  3500011 ScaDFX=  1.000000  1.000000  1.000000  1.000000
 FoFCou: FMM=F IPFlag=           0 FMFlag=      100000 FMFlg1=           0
         NFxFlg=           0 DoJE=T BraDBF=F KetDBF=T FulRan=T
         wScrn=  0.000000 ICntrl=       500 IOpCl=  0 I1Cent=   200000004 NGrid=           0
         NMat0=    1 NMatS0=      1 NMatT0=    0 NMatD0=    1 NMtDS0=    0 NMtDT0=    0
 Petite list used in FoFCou.
 Requested convergence on RMS density matrix=1.00D-08 within 128 cycles.
 Requested convergence on MAX density matrix=1.00D-06.
 Requested convergence on             energy=1.00D-06.
 No special actions if energy rises.
 Integral accuracy reduced to 1.0D-05 until final iterations.
 Initial convergence to 1.0D-05 achieved.  Increase integral accuracy.
 SCF Done:  E(RB3LYP) =  -538.819306712     A.U. after   15 cycles
            NFock= 15  Conv=0.32D-08     -V/T= 2.0097

 **********************************************************************

            Population analysis using the SCF Density.

 **********************************************************************

 Orbital symmetries:
       Occupied  (A) (A) (A) (A) (A) (A) (A) (A) (A) (A) (A) (A)
                 (A) (A) (A) (A) (A) (A) (A) (A) (A) (A) (A) (A)
                 (A) (A) (A) (A) (A) (A) (A) (A) (A) (A) (A) (A)
                 (A) (A) (A) (A) (A) (A) (A) (A)
       Virtual   (A) (A) (A) (A) (A) (A) (A) (A) (A) (A) (A) (A)
                 (A) (A) (A) (A) (A) (A) (A) (A) (A) (A) (A) (A)
                 (A) (A) (A) (A) (A) (A) (A) (A) (A) (A) (A) (A)
                 (A) (A) (A) (A) (A) (A) (A) (A) (A) (A) (A) (A)
                 (A) (A) (A) (A) (A) (A) (A) (A) (A) (A) (A) (A)
                 (A) (A) (A) (A) (A) (A) (A) (A) (A) (A) (A) (A)
                 (A) (A) (A) (A) (A) (A) (A) (A) (A) (A) (A) (A)
                 (A) (A) (A) (A) (A) (A) (A) (A) (A) (A) (A) (A)
                 (A) (A) (A) (A) (A) (A) (A) (A) (A) (A) (A) (A)
                 (A) (A) (A) (A) (A) (A) (A) (A) (A) (A) (A) (A)
                 (A) (A) (A) (A) (A) (A) (A) (A) (A) (A) (A) (A)
                 (A) (A) (A) (A) (A) (A) (A) (A) (A) (A) (A) (A)
                 (A) (A) (A) (A) (A) (A) (A) (A) (A) (A) (A) (A)
                 (A) (A) (A) (A) (A) (A) (A) (A) (A) (A) (A) (A)
                 (A) (A) (A) (A) (A) (A) (A) (A) (A) (A) (A) (A)
                 (A) (A) (A) (A) (A) (A) (A) (A) (A) (A) (A) (A)
                 (A) (A) (A) (A)
 The electronic state is 1-A.
 Alpha  occ. eigenvalues --  -19.19848 -19.14003 -10.32232 -10.22589 -10.20334
 Alpha  occ. eigenvalues --  -10.18934 -10.18923 -10.18869 -10.18854 -10.18743
 Alpha  occ. eigenvalues --  -10.18541 -10.17704  -1.10660  -1.00976  -0.85940
 Alpha  occ. eigenvalues --   -0.81098  -0.74624  -0.73269  -0.68904  -0.66228
 Alpha  occ. eigenvalues --   -0.60819  -0.60173  -0.56068  -0.51982  -0.48384
 Alpha  occ. eigenvalues --   -0.48311  -0.46052  -0.44631  -0.44485  -0.42736
 Alpha  occ. eigenvalues --   -0.42149  -0.41421  -0.39567  -0.38503  -0.37450
 Alpha  occ. eigenvalues --   -0.36750  -0.35654  -0.35315  -0.33172  -0.33007
 Alpha  occ. eigenvalues --   -0.31694  -0.27382  -0.25098  -0.24244
 Alpha virt. eigenvalues --   -0.01007  -0.00320   0.01625   0.07913   0.09344
 Alpha virt. eigenvalues --    0.11505   0.13180   0.13835   0.14489   0.14811
 Alpha virt. eigenvalues --    0.16075   0.16919   0.18506   0.19314   0.19892
 Alpha virt. eigenvalues --    0.20715   0.22584   0.22701   0.24555   0.25584
 Alpha virt. eigenvalues --    0.29988   0.30946   0.31413   0.33963   0.35252
 Alpha virt. eigenvalues --    0.37394   0.46055   0.49354   0.51107   0.51378
 Alpha virt. eigenvalues --    0.52971   0.54459   0.55126   0.56363   0.56969
 Alpha virt. eigenvalues --    0.58525   0.59183   0.59651   0.60541   0.61189
 Alpha virt. eigenvalues --    0.62208   0.63321   0.64513   0.66820   0.67283
 Alpha virt. eigenvalues --    0.69388   0.72854   0.73486   0.75532   0.76399
 Alpha virt. eigenvalues --    0.78244   0.79446   0.81008   0.81767   0.82465
 Alpha virt. eigenvalues --    0.82803   0.84306   0.87036   0.87931   0.88892
 Alpha virt. eigenvalues --    0.89591   0.90895   0.91390   0.92374   0.94859
 Alpha virt. eigenvalues --    0.95693   0.96849   0.97463   0.98202   1.01677
 Alpha virt. eigenvalues --    1.03672   1.05604   1.08341   1.10164   1.11283
 Alpha virt. eigenvalues --    1.11840   1.14879   1.18399   1.20916   1.23174
 Alpha virt. eigenvalues --    1.25760   1.28259   1.31962   1.34034   1.38199
 Alpha virt. eigenvalues --    1.40505   1.42069   1.42500   1.43366   1.45729
 Alpha virt. eigenvalues --    1.47766   1.52303   1.54255   1.55961   1.58485
 Alpha virt. eigenvalues --    1.62248   1.69353   1.70738   1.74164   1.75767
 Alpha virt. eigenvalues --    1.78417   1.80746   1.82057   1.82741   1.83873
 Alpha virt. eigenvalues --    1.84006   1.86330   1.88524   1.90671   1.93001
 Alpha virt. eigenvalues --    1.93477   1.95980   1.96983   1.98151   1.98873
 Alpha virt. eigenvalues --    2.00494   2.01542   2.04797   2.05380   2.07269
 Alpha virt. eigenvalues --    2.07530   2.11572   2.11748   2.12654   2.14364
 Alpha virt. eigenvalues --    2.15525   2.18001   2.20125   2.26595   2.28897
 Alpha virt. eigenvalues --    2.30842   2.31375   2.33448   2.35376   2.36592
 Alpha virt. eigenvalues --    2.38166   2.38713   2.41907   2.42827   2.45506
 Alpha virt. eigenvalues --    2.46907   2.48011   2.49486   2.51765   2.54456
 Alpha virt. eigenvalues --    2.54927   2.56035   2.56480   2.57589   2.59811
 Alpha virt. eigenvalues --    2.61272   2.65723   2.67141   2.70284   2.72189
 Alpha virt. eigenvalues --    2.75186   2.76118   2.77882   2.79271   2.81608
 Alpha virt. eigenvalues --    2.83755   2.86735   2.88205   2.91061   2.91300
 Alpha virt. eigenvalues --    2.97524   3.00887   3.02557   3.06974   3.14494
 Alpha virt. eigenvalues --    3.19653   3.21752   3.24329   3.25387   3.26965
 Alpha virt. eigenvalues --    3.36710   3.43506   3.43729   3.44220   3.46233
 Alpha virt. eigenvalues --    3.50086   3.51032   3.52251   3.89923   3.95820
 Alpha virt. eigenvalues --    4.13493   4.16341   4.18519   4.22155   4.41066
 Alpha virt. eigenvalues --    4.44070   4.48014   4.52543   4.62463   4.71453
 Alpha virt. eigenvalues --    4.86343
          Condensed to atoms (all electrons):
               1          2          3          4          5          6
     1  O    8.070970   0.547302  -0.073408  -0.003692   0.001073   0.000040
     2  C    0.547302   4.420376   0.314650  -0.038284  -0.001787   0.000214
     3  C   -0.073408   0.314650   5.178874   0.335650  -0.060750   0.005313
     4  C   -0.003692  -0.038284   0.335650   4.760020   0.517709  -0.024909
     5  C    0.001073  -0.001787  -0.060750   0.517709   4.939310   0.522121
     6  C    0.000040   0.000214   0.005313  -0.024909   0.522121   4.814494
     7  C    0.000000   0.000013   0.000291  -0.036288  -0.038997   0.549824
     8  C    0.000001  -0.000076   0.006482  -0.023936  -0.044481  -0.030859
     9  C   -0.000091  -0.000526  -0.047410   0.550001  -0.054223  -0.042912
    10  C    0.001248  -0.037859   0.339180  -0.034830   0.005896  -0.000116
    11  C    0.003582  -0.042987   0.359026  -0.045298  -0.007959   0.000208
    12  O   -0.086158   0.259882  -0.096598   0.006627  -0.001325  -0.000050
    13  H    0.002323   0.002905  -0.008784  -0.045695   0.367541  -0.039229
    14  H   -0.000000  -0.000003  -0.000173   0.003660  -0.037823   0.367524
    15  H    0.000000   0.000000   0.000009   0.000864   0.005028  -0.042729
    16  H   -0.000000   0.000000  -0.000167   0.004008   0.000810   0.004684
    17  H   -0.000003   0.000116  -0.015083  -0.040778   0.005913   0.000383
    18  H   -0.000070   0.003675  -0.023412  -0.007147  -0.000150  -0.000001
    19  H    0.000036  -0.006490  -0.023526  -0.004562  -0.000115   0.000001
    20  H    0.000333  -0.002320  -0.027934   0.003797  -0.000094   0.000002
    21  H    0.003519  -0.005956  -0.021522  -0.007895   0.004295   0.000086
    22  H    0.001876  -0.003821  -0.026663   0.004889   0.000194  -0.000001
    23  H    0.000381   0.004899  -0.027621  -0.002480  -0.000322  -0.000063
    24  H    0.011162  -0.012628   0.010487  -0.000260  -0.000147  -0.000003
               7          8          9         10         11         12
     1  O    0.000000   0.000001  -0.000091   0.001248   0.003582  -0.086158
     2  C    0.000013  -0.000076  -0.000526  -0.037859  -0.042987   0.259882
     3  C    0.000291   0.006482  -0.047410   0.339180   0.359026  -0.096598
     4  C   -0.036288  -0.023936   0.550001  -0.034830  -0.045298   0.006627
     5  C   -0.038997  -0.044481  -0.054223   0.005896  -0.007959  -0.001325
     6  C    0.549824  -0.030859  -0.042912  -0.000116   0.000208  -0.000050
     7  C    4.800865   0.551320  -0.037981  -0.000008   0.000001   0.000003
     8  C    0.551320   4.830890   0.515693   0.000183  -0.000178  -0.000010
     9  C   -0.037981   0.515693   4.902508  -0.011134   0.001414   0.000457
    10  C   -0.000008   0.000183  -0.011134   4.992463  -0.060427   0.001246
    11  C    0.000001  -0.000178   0.001414  -0.060427   4.961026   0.002813
    12  O    0.000003  -0.000010   0.000457   0.001246   0.002813   8.112057
    13  H    0.004916   0.000453   0.005268   0.000171  -0.000007  -0.000070
    14  H   -0.041650   0.004657   0.000881   0.000001   0.000003   0.000000
    15  H    0.368135  -0.042371   0.004975  -0.000000   0.000000   0.000000
    16  H   -0.042301   0.366860  -0.037541   0.000005   0.000002   0.000000
    17  H    0.005308  -0.046816   0.368586   0.006354   0.000232  -0.000081
    18  H   -0.000006   0.000018   0.002384   0.376622  -0.004650   0.000085
    19  H   -0.000005   0.000048   0.000841   0.373993   0.005312   0.005338
    20  H    0.000000  -0.000006   0.000314   0.377744  -0.004981  -0.000081
    21  H   -0.000003   0.000009  -0.000244   0.005060   0.376455   0.000040
    22  H   -0.000000   0.000002  -0.000057  -0.004991   0.373364   0.000014
    23  H   -0.000006  -0.000016   0.000842  -0.005116   0.373388  -0.000034
    24  H    0.000000  -0.000001   0.000021  -0.000393  -0.000281   0.273194
              13         14         15         16         17         18
     1  O    0.002323  -0.000000   0.000000  -0.000000  -0.000003  -0.000070
     2  C    0.002905  -0.000003   0.000000   0.000000   0.000116   0.003675
     3  C   -0.008784  -0.000173   0.000009  -0.000167  -0.015083  -0.023412
     4  C   -0.045695   0.003660   0.000864   0.004008  -0.040778  -0.007147
     5  C    0.367541  -0.037823   0.005028   0.000810   0.005913  -0.000150
     6  C   -0.039229   0.367524  -0.042729   0.004684   0.000383  -0.000001
     7  C    0.004916  -0.041650   0.368135  -0.042301   0.005308  -0.000006
     8  C    0.000453   0.004657  -0.042371   0.366860  -0.046816   0.000018
     9  C    0.005268   0.000881   0.004975  -0.037541   0.368586   0.002384
    10  C    0.000171   0.000001  -0.000000   0.000005   0.006354   0.376622
    11  C   -0.000007   0.000003   0.000000   0.000002   0.000232  -0.004650
    12  O   -0.000070   0.000000   0.000000   0.000000  -0.000081   0.000085
    13  H    0.615661  -0.006013  -0.000204   0.000017  -0.000159  -0.000002
    14  H   -0.006013   0.627495  -0.006372  -0.000199   0.000017   0.000000
    15  H   -0.000204  -0.006372   0.636393  -0.006413  -0.000212  -0.000000
    16  H    0.000017  -0.000199  -0.006413   0.630774  -0.006588   0.000004
    17  H   -0.000159   0.000017  -0.000212  -0.006588   0.637380   0.001183
    18  H   -0.000002   0.000000  -0.000000   0.000004   0.001183   0.598603
    19  H    0.000001   0.000000   0.000000   0.000002   0.001588  -0.032337
    20  H   -0.000006  -0.000000  -0.000000  -0.000000  -0.000110  -0.031671
    21  H    0.002773   0.000003  -0.000000   0.000000  -0.000008   0.000030
    22  H   -0.000120  -0.000000   0.000000  -0.000000  -0.000009  -0.000212
    23  H    0.000059   0.000000  -0.000000   0.000000  -0.000016   0.002915
    24  H    0.000004   0.000000   0.000000   0.000000   0.000005   0.000016
              19         20         21         22         23         24
     1  O    0.000036   0.000333   0.003519   0.001876   0.000381   0.011162
     2  C   -0.006490  -0.002320  -0.005956  -0.003821   0.004899  -0.012628
     3  C   -0.023526  -0.027934  -0.021522  -0.026663  -0.027621   0.010487
     4  C   -0.004562   0.003797  -0.007895   0.004889  -0.002480  -0.000260
     5  C   -0.000115  -0.000094   0.004295   0.000194  -0.000322  -0.000147
     6  C    0.000001   0.000002   0.000086  -0.000001  -0.000063  -0.000003
     7  C   -0.000005   0.000000  -0.000003  -0.000000  -0.000006   0.000000
     8  C    0.000048  -0.000006   0.000009   0.000002  -0.000016  -0.000001
     9  C    0.000841   0.000314  -0.000244  -0.000057   0.000842   0.000021
    10  C    0.373993   0.377744   0.005060  -0.004991  -0.005116  -0.000393
    11  C    0.005312  -0.004981   0.376455   0.373364   0.373388  -0.000281
    12  O    0.005338  -0.000081   0.000040   0.000014  -0.000034   0.273194
    13  H    0.000001  -0.000006   0.002773  -0.000120   0.000059   0.000004
    14  H    0.000000  -0.000000   0.000003  -0.000000   0.000000   0.000000
    15  H    0.000000  -0.000000  -0.000000   0.000000  -0.000000   0.000000
    16  H    0.000002  -0.000000   0.000000  -0.000000   0.000000   0.000000
    17  H    0.001588  -0.000110  -0.000008  -0.000009  -0.000016   0.000005
    18  H   -0.032337  -0.031671   0.000030  -0.000212   0.002915   0.000016
    19  H    0.585771  -0.030256  -0.000199  -0.000004  -0.000021  -0.000156
    20  H   -0.030256   0.600774   0.000008   0.003807  -0.000045  -0.000081
    21  H   -0.000199   0.000008   0.584644  -0.028056  -0.031179  -0.000007
    22  H   -0.000004   0.003807  -0.028056   0.602337  -0.032430  -0.000008
    23  H   -0.000021  -0.000045  -0.031179  -0.032430   0.611250   0.000003
    24  H   -0.000156  -0.000081  -0.000007  -0.000008   0.000003   0.398700
 Mulliken charges:
               1
     1  O   -0.480425
     2  C    0.598704
     3  C   -0.096910
     4  C    0.128829
     5  C   -0.121719
     6  C   -0.084022
     7  C   -0.083433
     8  C   -0.087866
     9  C   -0.122066
    10  C   -0.325293
    11  C   -0.290057
    12  O   -0.477352
    13  H    0.098198
    14  H    0.087989
    15  H    0.082898
    16  H    0.086041
    17  H    0.082799
    18  H    0.114122
    19  H    0.124742
    20  H    0.110807
    21  H    0.118147
    22  H    0.109888
    23  H    0.105611
    24  H    0.320370
 Sum of Mulliken charges =  -0.00000
 Mulliken charges with hydrogens summed into heavy atoms:
               1
     1  O   -0.480425
     2  C    0.598704
     3  C   -0.096910
     4  C    0.128829
     5  C   -0.023522
     6  C    0.003968
     7  C   -0.000536
     8  C   -0.001825
     9  C   -0.039268
    10  C    0.024378
    11  C    0.043589
    12  O   -0.156982
 Electronic spatial extent (au):  <R**2>=           2061.6030
 Charge=             -0.0000 electrons
 Dipole moment (field-independent basis, Debye):
    X=             -0.8748    Y=              1.1284    Z=             -0.6087  Tot=              1.5521
 Quadrupole moment (field-independent basis, Debye-Ang):
   XX=            -69.1870   YY=            -68.3583   ZZ=            -68.9394
   XY=              4.0289   XZ=             -2.2822   YZ=              1.4536
 Traceless Quadrupole moment (field-independent basis, Debye-Ang):
   XX=             -0.3587   YY=              0.4699   ZZ=             -0.1112
   XY=              4.0289   XZ=             -2.2822   YZ=              1.4536
 Octapole moment (field-independent basis, Debye-Ang**2):
  XXX=             -6.4163  YYY=             -1.9818  ZZZ=            -16.3557  XYY=             -6.3199
  XXY=              7.1668  XXZ=            -17.9592  XZZ=             22.2573  YZZ=             -9.2928
  YYZ=             -5.2117  XYZ=             11.0360
 Hexadecapole moment (field-independent basis, Debye-Ang**3):
 XXXX=          -1620.5239 YYYY=           -571.1870 ZZZZ=           -400.6543 XXXY=             24.4554
 XXXZ=            -23.5735 YYYX=              1.5041 YYYZ=             -3.2746 ZZZX=            -45.2978
 ZZZY=             24.2481 XXYY=           -380.6616 XXZZ=           -334.7262 YYZZ=           -158.2604
 XXYZ=              9.1144 YYXZ=            -11.7001 ZZXY=            -26.5200
 N-N= 6.927432354713D+02 E-N=-2.638900466921D+03  KE= 5.336488570085D+02
 Calling FoFJK, ICntrl=      2127 FMM=F ISym2X=0 I1Cent= 0 IOpClX= 0 NMat=1 NMatS=1 NMatT=0.
 ***** Axes restored to original set *****
 -------------------------------------------------------------------
 Center     Atomic                   Forces (Hartrees/Bohr)
 Number     Number              X              Y              Z
 -------------------------------------------------------------------
      1        8           0.014390858    0.018722216    0.000508768
      2        6          -0.004849885   -0.015800214   -0.013717948
      3        6          -0.003015682    0.003394835   -0.007392064
      4        6          -0.005544907    0.005883656    0.000203495
      5        6          -0.001212789    0.003873237    0.000581195
      6        6          -0.003121492    0.004596163   -0.000834024
      7        6           0.004462801    0.000201981    0.000589186
      8        6          -0.002687363   -0.005401362   -0.000323841
      9        6          -0.002472082   -0.004462022    0.000920258
     10        6           0.004409238   -0.000623760    0.009090752
     11        6          -0.001843430   -0.005944141    0.006146132
     12        8           0.007932728    0.004049710   -0.016971091
     13        1          -0.004132199   -0.001491054    0.000104796
     14        1           0.000747551   -0.003401854    0.000383960
     15        1           0.003903171   -0.000718670    0.000610685
     16        1           0.002043738    0.002963966   -0.000068300
     17        1          -0.004219967    0.002499886   -0.000517107
     18        1           0.002421945   -0.002944160   -0.002078388
     19        1           0.000873231   -0.000919432    0.001992647
     20        1          -0.002034213   -0.004410049    0.000187103
     21        1           0.000506004   -0.000492617    0.002790724
     22        1          -0.001909656    0.001842210    0.002922823
     23        1           0.003569229    0.003960099    0.001819013
     24        1          -0.008216830   -0.005378625    0.013051226
 -------------------------------------------------------------------
 Cartesian Forces:  Max     0.018722216 RMS     0.005644202

 GradGradGradGradGradGradGradGradGradGradGradGradGradGradGradGradGradGrad
 Berny optimization.
 FormGI is forming the generalized inverse of G from B-inverse, IUseBI=4.
 Internal  Forces:  Max     0.023613422 RMS     0.004331441
 Search for a local minimum.
 Step number   1 out of a maximum of  130
 All quantities printed in internal units (Hartrees-Bohrs-Radians)
 Mixed Optimization -- RFO/linear search
 Second derivative matrix not updated -- first step.
 ITU=  0
     Eigenvalues ---    0.00230   0.00230   0.00230   0.00230   0.00721
     Eigenvalues ---    0.01296   0.02043   0.02096   0.02111   0.02158
     Eigenvalues ---    0.02193   0.02199   0.02200   0.02204   0.02286
     Eigenvalues ---    0.05044   0.05213   0.05225   0.05310   0.05318
     Eigenvalues ---    0.05530   0.05776   0.14941   0.16000   0.16000
     Eigenvalues ---    0.16000   0.16000   0.16000   0.16000   0.16000
     Eigenvalues ---    0.16000   0.16000   0.16000   0.16000   0.16000
     Eigenvalues ---    0.16166   0.22000   0.22000   0.23465   0.24994
     Eigenvalues ---    0.24997   0.25000   0.26777   0.26886   0.27042
     Eigenvalues ---    0.27275   0.34641   0.34643   0.34647   0.34720
     Eigenvalues ---    0.34723   0.34724   0.35925   0.35926   0.35943
     Eigenvalues ---    0.35948   0.36189   0.41676   0.42007   0.45337
     Eigenvalues ---    0.46186   0.46909   0.47062   0.53956   0.56163
     Eigenvalues ---    0.92535
 RFO step:  Lambda=-7.90144744D-03 EMin= 2.30000000D-03
 Linear search not attempted -- first point.
 Iteration  1 RMS(Cart)=  0.05065027 RMS(Int)=  0.00078640
 Iteration  2 RMS(Cart)=  0.00125968 RMS(Int)=  0.00023212
 Iteration  3 RMS(Cart)=  0.00000058 RMS(Int)=  0.00023212
 Variable       Old X    -DE/DX   Delta X   Delta X   Delta X     New X
                                 (Linear)    (Quad)   (Total)
    R1        2.31786  -0.02361   0.00000  -0.02530  -0.02530   2.29256
    R2        2.94892  -0.01888   0.00000  -0.06850  -0.06850   2.88041
    R3        2.56072  -0.00400   0.00000  -0.00730  -0.00730   2.55342
    R4        2.93750  -0.01239   0.00000  -0.04414  -0.04414   2.89336
    R5        2.94641  -0.01131   0.00000  -0.04085  -0.04085   2.90556
    R6        2.94282  -0.01102   0.00000  -0.03960  -0.03960   2.90322
    R7        2.65570  -0.00451   0.00000  -0.01072  -0.01073   2.64497
    R8        2.65472  -0.00621   0.00000  -0.01439  -0.01441   2.64032
    R9        2.63055   0.00190   0.00000   0.00395   0.00395   2.63450
   R10        2.04198   0.00379   0.00000   0.01033   0.01033   2.05231
   R11        2.62897   0.00320   0.00000   0.00744   0.00745   2.63642
   R12        2.04171   0.00348   0.00000   0.00948   0.00948   2.05120
   R13        2.62940   0.00198   0.00000   0.00492   0.00493   2.63432
   R14        2.04198   0.00402   0.00000   0.01094   0.01094   2.05292
   R15        2.63177   0.00367   0.00000   0.00774   0.00773   2.63950
   R16        2.04162   0.00358   0.00000   0.00973   0.00973   2.05136
   R17        2.03786   0.00362   0.00000   0.00978   0.00978   2.04764
   R18        2.06127   0.00177   0.00000   0.00499   0.00499   2.06626
   R19        2.06252   0.00122   0.00000   0.00345   0.00345   2.06597
   R20        2.06259   0.00138   0.00000   0.00389   0.00389   2.06648
   R21        2.06126   0.00078   0.00000   0.00221   0.00221   2.06346
   R22        2.06263   0.00150   0.00000   0.00424   0.00424   2.06687
   R23        2.06131   0.00159   0.00000   0.00447   0.00447   2.06578
   R24        1.80813   0.01611   0.00000   0.02829   0.02829   1.83642
    A1        2.17617   0.00323   0.00000   0.01260   0.01255   2.18872
    A2        2.12748   0.00211   0.00000   0.00829   0.00824   2.13572
    A3        1.97938  -0.00533   0.00000  -0.02058  -0.02063   1.95875
    A4        1.89668   0.00009   0.00000  -0.02524  -0.02534   1.87134
    A5        1.90172  -0.00000   0.00000  -0.00797  -0.00775   1.89397
    A6        1.92685  -0.00412   0.00000  -0.03221  -0.03199   1.89486
    A7        1.98263  -0.00277   0.00000  -0.00951  -0.01083   1.97180
    A8        1.90137   0.00146   0.00000   0.02046   0.01973   1.92110
    A9        1.85442   0.00524   0.00000   0.05457   0.05444   1.90886
   A10        2.08832  -0.00389   0.00000  -0.01354  -0.01359   2.07473
   A11        2.12972   0.00170   0.00000   0.00812   0.00807   2.13779
   A12        2.06494   0.00220   0.00000   0.00585   0.00573   2.07067
   A13        2.11163  -0.00010   0.00000  -0.00204  -0.00206   2.10957
   A14        2.09897  -0.00215   0.00000  -0.01211  -0.01210   2.08687
   A15        2.07256   0.00225   0.00000   0.01413   0.01414   2.08670
   A16        2.08835   0.00142   0.00000   0.00791   0.00790   2.09625
   A17        2.09603  -0.00109   0.00000  -0.00622  -0.00622   2.08981
   A18        2.09881  -0.00033   0.00000  -0.00168  -0.00168   2.09713
   A19        2.10186  -0.00469   0.00000  -0.01717  -0.01717   2.08469
   A20        2.09040   0.00237   0.00000   0.00876   0.00876   2.09916
   A21        2.09092   0.00231   0.00000   0.00840   0.00840   2.09931
   A22        2.09133   0.00152   0.00000   0.00854   0.00852   2.09985
   A23        2.09644  -0.00033   0.00000  -0.00167  -0.00166   2.09478
   A24        2.09541  -0.00120   0.00000  -0.00687  -0.00686   2.08855
   A25        2.10823  -0.00035   0.00000  -0.00295  -0.00299   2.10525
   A26        2.12023  -0.00323   0.00000  -0.01881  -0.01880   2.10143
   A27        2.05471   0.00358   0.00000   0.02178   0.02179   2.07650
   A28        1.94747  -0.00409   0.00000  -0.02495  -0.02524   1.92223
   A29        1.96010  -0.00063   0.00000  -0.00101  -0.00102   1.95908
   A30        1.94989  -0.00538   0.00000  -0.03419  -0.03452   1.91537
   A31        1.87467   0.00309   0.00000   0.02230   0.02233   1.89700
   A32        1.86370   0.00443   0.00000   0.02128   0.02066   1.88435
   A33        1.86253   0.00342   0.00000   0.02142   0.02138   1.88391
   A34        1.96544  -0.00168   0.00000  -0.00912  -0.00924   1.95621
   A35        1.95247  -0.00326   0.00000  -0.01982  -0.02007   1.93239
   A36        1.94251  -0.00612   0.00000  -0.03699  -0.03731   1.90520
   A37        1.85915   0.00283   0.00000   0.01780   0.01774   1.87689
   A38        1.86595   0.00436   0.00000   0.02671   0.02653   1.89248
   A39        1.87269   0.00485   0.00000   0.02717   0.02673   1.89942
   A40        1.81843   0.00480   0.00000   0.02860   0.02860   1.84703
    D1       -1.93473  -0.00082   0.00000   0.00603   0.00570  -1.92903
    D2        2.17982   0.00255   0.00000   0.03922   0.03931   2.21912
    D3        0.14956  -0.00144   0.00000  -0.00379  -0.00357   0.14598
    D4        1.18767  -0.00054   0.00000   0.02476   0.02444   1.21212
    D5       -0.98096   0.00283   0.00000   0.05795   0.05805  -0.92291
    D6       -3.01122  -0.00116   0.00000   0.01494   0.01517  -2.99605
    D7        0.02050  -0.00017   0.00000  -0.00122  -0.00124   0.01925
    D8       -3.10251  -0.00046   0.00000  -0.01942  -0.01940  -3.12191
    D9        1.07548  -0.00149   0.00000  -0.06080  -0.06104   1.01444
   D10       -2.08836  -0.00100   0.00000  -0.03803  -0.03831  -2.12667
   D11       -3.08787  -0.00327   0.00000  -0.09542  -0.09508   3.10024
   D12        0.03148  -0.00277   0.00000  -0.07266  -0.07235  -0.04088
   D13       -1.02466   0.00258   0.00000  -0.01885  -0.01890  -1.04356
   D14        2.09468   0.00308   0.00000   0.00391   0.00383   2.09851
   D15       -3.11268   0.00053   0.00000  -0.00501  -0.00521  -3.11789
   D16        1.06444  -0.00010   0.00000  -0.01530  -0.01532   1.04912
   D17       -1.02772  -0.00027   0.00000  -0.01813  -0.01800  -1.04572
   D18        1.05349   0.00227   0.00000   0.03937   0.03910   1.09260
   D19       -1.05258   0.00164   0.00000   0.02907   0.02900  -1.02358
   D20        3.13845   0.00147   0.00000   0.02625   0.02632  -3.11842
   D21       -1.03659  -0.00143   0.00000  -0.01695  -0.01701  -1.05360
   D22        3.14052  -0.00205   0.00000  -0.02725  -0.02711   3.11341
   D23        1.04837  -0.00223   0.00000  -0.03007  -0.02980   1.01857
   D24       -1.02216   0.00076   0.00000   0.01391   0.01382  -1.00834
   D25        1.07119   0.00091   0.00000   0.01638   0.01616   1.08735
   D26       -3.11722   0.00064   0.00000   0.01203   0.01198  -3.10524
   D27        1.05929  -0.00071   0.00000  -0.02373  -0.02421   1.03508
   D28       -3.13055  -0.00056   0.00000  -0.02126  -0.02187   3.13077
   D29       -1.03577  -0.00083   0.00000  -0.02562  -0.02605  -1.06182
   D30       -3.08167  -0.00008   0.00000   0.00895   0.00960  -3.07206
   D31       -0.98832   0.00007   0.00000   0.01142   0.01194  -0.97638
   D32        1.10646  -0.00020   0.00000   0.00707   0.00776   1.11422
   D33        3.12790   0.00004   0.00000   0.00363   0.00352   3.13142
   D34       -0.02151  -0.00004   0.00000   0.00127   0.00118  -0.02033
   D35        0.00773  -0.00044   0.00000  -0.01833  -0.01836  -0.01064
   D36        3.14150  -0.00052   0.00000  -0.02069  -0.02070   3.12080
   D37       -3.12721   0.00015   0.00000   0.00074   0.00056  -3.12665
   D38        0.01801  -0.00006   0.00000  -0.00666  -0.00672   0.01129
   D39       -0.00758   0.00057   0.00000   0.02297   0.02300   0.01542
   D40        3.13764   0.00036   0.00000   0.01557   0.01572  -3.12982
   D41       -0.00388   0.00008   0.00000   0.00380   0.00371  -0.00017
   D42        3.13731   0.00008   0.00000   0.00363   0.00358   3.14089
   D43       -3.13777   0.00018   0.00000   0.00624   0.00616  -3.13161
   D44        0.00342   0.00018   0.00000   0.00606   0.00603   0.00945
   D45       -0.00029   0.00018   0.00000   0.00664   0.00662   0.00633
   D46        3.14127   0.00004   0.00000   0.00112   0.00115  -3.14077
   D47       -3.14148   0.00018   0.00000   0.00682   0.00676  -3.13473
   D48        0.00008   0.00004   0.00000   0.00130   0.00128   0.00136
   D49        0.00042  -0.00005   0.00000  -0.00203  -0.00198  -0.00155
   D50       -3.14110  -0.00015   0.00000  -0.00601  -0.00597   3.13611
   D51       -3.14114   0.00009   0.00000   0.00350   0.00350  -3.13764
   D52        0.00052  -0.00001   0.00000  -0.00049  -0.00049   0.00003
   D53        0.00361  -0.00034   0.00000  -0.01311  -0.01310  -0.00949
   D54       -3.14148  -0.00015   0.00000  -0.00605  -0.00600   3.13571
   D55       -3.13805  -0.00024   0.00000  -0.00912  -0.00912   3.13601
   D56        0.00005  -0.00005   0.00000  -0.00207  -0.00202  -0.00198
         Item               Value     Threshold  Converged?
 Maximum Force            0.023613     0.000450     NO 
 RMS     Force            0.004331     0.000300     NO 
 Maximum Displacement     0.152766     0.001800     NO 
 RMS     Displacement     0.050919     0.001200     NO 
 Predicted change in Energy=-4.206753D-03
 GradGradGradGradGradGradGradGradGradGradGradGradGradGradGradGradGradGrad

                          Input orientation:                          
 ---------------------------------------------------------------------
 Center     Atomic      Atomic             Coordinates (Angstroms)
 Number     Number       Type             X           Y           Z
 ---------------------------------------------------------------------
      1          8           0       -2.564560   -1.318546    0.915745
      2          6           0       -1.849387   -0.338593    0.913806
      3          6           0       -1.088088    0.196642   -0.293374
      4          6           0        0.401162   -0.047189   -0.034614
      5          6           0        0.842447   -1.356099    0.191347
      6          6           0        2.190856   -1.627033    0.419285
      7          6           0        3.122219   -0.588313    0.424456
      8          6           0        2.691260    0.719588    0.207725
      9          6           0        1.338786    0.988483   -0.014677
     10          6           0       -1.431328    1.685385   -0.466308
     11          6           0       -1.540467   -0.578733   -1.540138
     12          8           0       -1.643655    0.408977    2.020415
     13          1           0        0.123716   -2.170255    0.198519
     14          1           0        2.512795   -2.648957    0.593121
     15          1           0        4.173731   -0.796448    0.601030
     16          1           0        3.407172    1.535551    0.214834
     17          1           0        1.026926    2.013703   -0.175238
     18          1           0       -0.916710    2.091106   -1.341589
     19          1           0       -1.154106    2.278487    0.409249
     20          1           0       -2.507267    1.800485   -0.624193
     21          1           0       -1.380774   -1.653831   -1.435306
     22          1           0       -2.606198   -0.420662   -1.728545
     23          1           0       -0.973233   -0.227895   -2.406258
     24          1           0       -2.151397   -0.020853    2.728807
 ---------------------------------------------------------------------
                    Distance matrix (angstroms):
                    1          2          3          4          5
     1  O    0.000000
     2  C    1.213170   0.000000
     3  C    2.436746   1.524249   0.000000
     4  C    3.363782   2.459550   1.531103   0.000000
     5  C    3.483369   2.967025   2.524465   1.399656   0.000000
     6  C    4.791202   4.269449   3.819051   2.430008   1.394119
     7  C    5.754482   5.001869   4.342594   2.812066   2.416857
     8  C    5.681454   4.715482   3.848122   2.427185   2.779722
     9  C    4.628626   3.575984   2.567957   1.397195   2.405382
    10  C    3.495409   2.485151   1.537555   2.558553   3.853983
    11  C    2.761785   2.484943   1.536318   2.513774   3.046410
    12  O    2.247820   1.351211   2.389008   2.934707   3.555515
    13  H    2.909750   2.785634   2.704187   2.153772   1.086036
    14  H    5.258670   4.946641   4.674363   3.409142   2.150109
    15  H    6.765811   6.048588   5.428898   3.898425   3.402720
    16  H    6.655728   5.624268   4.717872   3.406375   3.865230
    17  H    5.019253   3.872014   2.790870   2.158387   3.394699
    18  H    4.408706   3.443854   2.171893   2.831479   4.162661
    19  H    3.896738   2.754470   2.198208   2.832779   4.152580
    20  H    3.478943   2.715493   2.166984   3.495777   4.674367
    21  H    2.653528   2.732723   2.194066   2.778224   2.770804
    22  H    2.792884   2.749821   2.178403   3.471757   4.056375
    23  H    3.841555   3.435509   2.158171   2.747054   3.364087
    24  H    2.267576   1.867190   3.211154   3.762013   4.145442
                    6          7          8          9         10
     6  C    0.000000
     7  C    1.395136   0.000000
     8  C    2.408691   1.394024   0.000000
     9  C    2.784829   2.420693   1.396765   0.000000
    10  C    4.987645   5.167006   4.287519   2.891916   0.000000
    11  C    4.342930   5.059680   4.759009   3.615701   2.508237
    12  O    4.627357   5.123986   4.708908   3.656827   2.803228
    13  H    2.148696   3.397736   3.865690   3.391088   4.210240
    14  H    1.085446   2.155482   3.395214   3.870231   5.955252
    15  H    2.157475   1.086359   2.156566   3.406169   6.222170
    16  H    3.394578   2.153122   1.085530   2.151785   4.888506
    17  H    3.868223   3.394167   2.142756   1.083565   2.497104
    18  H    5.155793   5.158599   4.159193   2.839672   1.093416
    19  H    5.142174   5.148371   4.154228   2.838720   1.093262
    20  H    5.908391   6.204606   5.374487   3.977811   1.093536
    21  H    4.024521   4.987082   4.991405   4.049200   3.477337
    22  H    5.392609   6.121951   5.754335   4.526139   2.721947
    23  H    4.466849   4.991549   4.599906   3.541845   2.762951
    24  H    5.173863   5.782998   5.509576   4.552674   3.693035
                   11         12         13         14         15
    11  C    0.000000
    12  O    3.696452   0.000000
    13  H    2.885373   3.618749   0.000000
    14  H    5.026486   5.353897   2.468312   0.000000
    15  H    6.106067   6.108166   4.295577   2.488084   0.000000
    16  H    5.659439   5.480889   4.951196   4.295709   2.484951
    17  H    3.895533   3.811567   4.296625   4.953644   4.289746
    18  H    2.748914   3.828978   4.649044   6.162208   6.166387
    19  H    3.480387   2.516064   4.633416   6.144890   6.154498
    20  H    2.726597   3.110638   4.833808   6.817655   7.271930
    21  H    1.091937   4.033149   2.280257   4.501631   5.977817
    22  H    1.093740   3.958471   3.771881   6.046448   7.178828
    23  H    1.093163   4.522223   3.429420   5.197135   5.988177
    24  H    4.348374   0.971790   4.024726   5.763920   6.718350
                   16         17         18         19         20
    16  H    0.000000
    17  H    2.458934   0.000000
    18  H    4.628936   2.268058   0.000000
    19  H    4.625473   2.273463   1.776768   0.000000
    20  H    5.979527   3.568970   1.768895   1.768484   0.000000
    21  H    5.984943   4.564602   3.774743   4.349355   3.722793
    22  H    6.615445   4.640957   3.051734   3.736863   2.482513
    23  H    5.400723   3.742037   2.552347   3.773823   3.105372
    24  H    6.296042   4.761789   4.748994   3.414953   3.832300
                   21         22         23         24
    21  H    0.000000
    22  H    1.763054   0.000000
    23  H    1.772605   1.778491   0.000000
    24  H    4.538757   4.498298   5.272554   0.000000
 Stoichiometry    C10H12O2
 Framework group  C1[X(C10H12O2)]
 Deg. of freedom    66
 Full point group                 C1      NOp   1
 Largest Abelian subgroup         C1      NOp   1
 Largest concise Abelian subgroup C1      NOp   1
                         Standard orientation:                         
 ---------------------------------------------------------------------
 Center     Atomic      Atomic             Coordinates (Angstroms)
 Number     Number       Type             X           Y           Z
 ---------------------------------------------------------------------
      1          8           0        2.435725   -1.476927   -0.137977
      2          6           0        1.780538   -0.523262   -0.502716
      3          6           0        1.024647    0.431425    0.414092
      4          6           0       -0.470074    0.185204    0.191696
      5          6           0       -0.983398   -1.098498    0.409972
      6          6           0       -2.339906   -1.366266    0.231776
      7          6           0       -3.207161   -0.349571   -0.168976
      8          6           0       -2.703988    0.930498   -0.396005
      9          6           0       -1.343416    1.194250   -0.222133
     10          6           0        1.452109    1.870129    0.080199
     11          6           0        1.400694    0.112843    1.869209
     12          8           0        1.645700   -0.194261   -1.806307
     13          1           0       -0.314630   -1.898720    0.713073
     14          1           0       -2.718196   -2.368705    0.405576
     15          1           0       -4.264829   -0.555029   -0.307911
     16          1           0       -3.369501    1.727353   -0.713007
     17          1           0       -0.974679    2.195685   -0.409948
     18          1           0        0.942389    2.577078    0.740477
     19          1           0        1.231310    2.137456   -0.956626
     20          1           0        2.529029    1.980754    0.234552
     21          1           0        1.179531   -0.923441    2.132891
     22          1           0        2.469285    0.274768    2.037027
     23          1           0        0.835401    0.767714    2.537484
     24          1           0        2.143226   -0.865921   -2.302005
 ---------------------------------------------------------------------
 Rotational constants (GHZ):           1.6151958           0.6832190           0.6357762
 Standard basis: 6-31G(d,p) (6D, 7F)
 There are   240 symmetry adapted cartesian basis functions of A   symmetry.
 There are   240 symmetry adapted basis functions of A   symmetry.
   240 basis functions,   420 primitive gaussians,   240 cartesian basis functions
    44 alpha electrons       44 beta electrons
       nuclear repulsion energy       700.0272054611 Hartrees.
 NAtoms=   24 NActive=   24 NUniq=   24 SFac= 1.00D+00 NAtFMM=   60 NAOKFM=F Big=F
 Integral buffers will be    131072 words long.
 Raffenetti 2 integral format.
 Two-electron integral symmetry is turned on.
 Nuclear repulsion after empirical dispersion term =      699.9802764898 Hartrees.
 One-electron integrals computed using PRISM.
 NBasis=   240 RedAO= T EigKep=  4.54D-04  NBF=   240
 NBsUse=   240 1.00D-06 EigRej= -1.00D+00 NBFU=   240
 Initial guess from the checkpoint file:  "Ac5_conf-1.chk"
 B after Tr=     0.000000   -0.000000   -0.000000
         Rot=    0.999936   -0.009402   -0.006203    0.001235 Ang=  -1.30 deg.
 ExpMin= 1.61D-01 ExpMax= 5.48D+03 ExpMxC= 8.25D+02 IAcc=3 IRadAn=         5 AccDes= 0.00D+00
 Harris functional with IExCor=  402 and IRadAn=       5 diagonalized for initial guess.
 HarFok:  IExCor=  402 AccDes= 0.00D+00 IRadAn=         5 IDoV= 1 UseB2=F ITyADJ=14
 ICtDFT=  3500011 ScaDFX=  1.000000  1.000000  1.000000  1.000000
 FoFCou: FMM=F IPFlag=           0 FMFlag=      100000 FMFlg1=           0
         NFxFlg=           0 DoJE=T BraDBF=F KetDBF=T FulRan=T
         wScrn=  0.000000 ICntrl=       500 IOpCl=  0 I1Cent=   200000004 NGrid=           0
         NMat0=    1 NMatS0=      1 NMatT0=    0 NMatD0=    1 NMtDS0=    0 NMtDT0=    0
 Petite list used in FoFCou.
 Requested convergence on RMS density matrix=1.00D-08 within 128 cycles.
 Requested convergence on MAX density matrix=1.00D-06.
 Requested convergence on             energy=1.00D-06.
 No special actions if energy rises.
 Integral accuracy reduced to 1.0D-05 until final iterations.
 Initial convergence to 1.0D-05 achieved.  Increase integral accuracy.
 SCF Done:  E(RB3LYP) =  -538.822968479     A.U. after   12 cycles
            NFock= 12  Conv=0.67D-08     -V/T= 2.0094
 Calling FoFJK, ICntrl=      2127 FMM=F ISym2X=0 I1Cent= 0 IOpClX= 0 NMat=1 NMatS=1 NMatT=0.
 ***** Axes restored to original set *****
 -------------------------------------------------------------------
 Center     Atomic                   Forces (Hartrees/Bohr)
 Number     Number              X              Y              Z
 -------------------------------------------------------------------
      1        8           0.001205946    0.000510214    0.001761878
      2        6          -0.003369908   -0.002476444   -0.000946819
      3        6          -0.000670509    0.000835954   -0.001010660
      4        6           0.000385757    0.001526814    0.000694155
      5        6           0.002694593   -0.002046919    0.000625319
      6        6          -0.001420883    0.000110472   -0.000205042
      7        6           0.000606698    0.000594364    0.000107729
      8        6          -0.000451700   -0.000853220    0.000103470
      9        6           0.002164119   -0.000076325   -0.000453773
     10        6          -0.000281283    0.002415955    0.000478137
     11        6          -0.000005013   -0.000817739   -0.002930236
     12        8          -0.000160579    0.000036734    0.002647116
     13        1           0.000103343    0.000110099    0.000163926
     14        1          -0.000003153   -0.000264993    0.000079930
     15        1          -0.000456839    0.000101218   -0.000155299
     16        1           0.000001473    0.000319682   -0.000032816
     17        1           0.000129403   -0.000409870    0.000114895
     18        1          -0.000515413   -0.000045851   -0.000429610
     19        1          -0.000138499   -0.001398391   -0.000883379
     20        1          -0.000073872    0.000224215   -0.000363276
     21        1           0.000000890    0.001287814    0.000548785
     22        1           0.000319153    0.000128309    0.000276702
     23        1          -0.000140241    0.000015255   -0.000484018
     24        1           0.000076518    0.000172651    0.000292885
 -------------------------------------------------------------------
 Cartesian Forces:  Max     0.003369908 RMS     0.001039841

 GradGradGradGradGradGradGradGradGradGradGradGradGradGradGradGradGradGrad
 Berny optimization.
 Using GEDIIS/GDIIS optimizer.
 FormGI is forming the generalized inverse of G from B-inverse, IUseBI=4.
 Internal  Forces:  Max     0.004713050 RMS     0.000878445
 Search for a local minimum.
 Step number   2 out of a maximum of  130
 All quantities printed in internal units (Hartrees-Bohrs-Radians)
 Mixed Optimization -- En-DIIS/RFO-DIIS
 Update second derivatives using D2CorX and points    1    2
 DE= -3.66D-03 DEPred=-4.21D-03 R= 8.70D-01
 TightC=F SS=  1.41D+00  RLast= 2.54D-01 DXNew= 5.0454D-01 7.6145D-01
 Trust test= 8.70D-01 RLast= 2.54D-01 DXMaxT set to 5.05D-01
 ITU=  1  0
 Use linear search instead of GDIIS.
     Eigenvalues ---    0.00229   0.00230   0.00230   0.00231   0.00722
     Eigenvalues ---    0.01305   0.02045   0.02098   0.02112   0.02159
     Eigenvalues ---    0.02193   0.02199   0.02200   0.02204   0.02287
     Eigenvalues ---    0.04799   0.05336   0.05377   0.05535   0.05611
     Eigenvalues ---    0.05623   0.06189   0.15369   0.15443   0.15999
     Eigenvalues ---    0.15999   0.16000   0.16000   0.16000   0.16000
     Eigenvalues ---    0.16000   0.16000   0.16000   0.16000   0.16000
     Eigenvalues ---    0.16453   0.21920   0.22003   0.23451   0.24683
     Eigenvalues ---    0.25000   0.25085   0.26828   0.26990   0.27109
     Eigenvalues ---    0.30762   0.34619   0.34642   0.34690   0.34697
     Eigenvalues ---    0.34722   0.34898   0.35878   0.35928   0.35946
     Eigenvalues ---    0.35994   0.36256   0.41975   0.42321   0.45309
     Eigenvalues ---    0.46224   0.46986   0.47123   0.54220   0.55875
     Eigenvalues ---    0.91030
 RFO step:  Lambda=-7.35238490D-04 EMin= 2.29144163D-03
 Quartic linear search produced a step of -0.08285.
 Iteration  1 RMS(Cart)=  0.09498523 RMS(Int)=  0.00233669
 Iteration  2 RMS(Cart)=  0.00380677 RMS(Int)=  0.00020582
 Iteration  3 RMS(Cart)=  0.00000469 RMS(Int)=  0.00020580
 Iteration  4 RMS(Cart)=  0.00000000 RMS(Int)=  0.00020580
 Variable       Old X    -DE/DX   Delta X   Delta X   Delta X     New X
                                 (Linear)    (Quad)   (Total)
    R1        2.29256  -0.00112   0.00210  -0.00442  -0.00233   2.29023
    R2        2.88041   0.00471   0.00568   0.00682   0.01249   2.89291
    R3        2.55342   0.00251   0.00061   0.00328   0.00388   2.55730
    R4        2.89336   0.00397   0.00366   0.00732   0.01098   2.90434
    R5        2.90556   0.00152   0.00338  -0.00035   0.00303   2.90859
    R6        2.90322   0.00174   0.00328   0.00054   0.00382   2.90704
    R7        2.64497   0.00245   0.00089   0.00371   0.00461   2.64957
    R8        2.64032   0.00091   0.00119   0.00005   0.00125   2.64156
    R9        2.63450  -0.00123  -0.00033  -0.00183  -0.00216   2.63234
   R10        2.05231  -0.00015  -0.00086   0.00100   0.00014   2.05245
   R11        2.63642   0.00019  -0.00062   0.00124   0.00062   2.63704
   R12        2.05120   0.00026  -0.00079   0.00193   0.00114   2.05234
   R13        2.63432  -0.00057  -0.00041  -0.00059  -0.00100   2.63333
   R14        2.05292  -0.00049  -0.00091   0.00022  -0.00068   2.05224
   R15        2.63950  -0.00046  -0.00064   0.00011  -0.00053   2.63897
   R16        2.05136   0.00024  -0.00081   0.00191   0.00110   2.05246
   R17        2.04764  -0.00044  -0.00081   0.00019  -0.00062   2.04702
   R18        2.06626   0.00008  -0.00041   0.00089   0.00047   2.06673
   R19        2.06597  -0.00150  -0.00029  -0.00349  -0.00378   2.06219
   R20        2.06648   0.00015  -0.00032   0.00091   0.00059   2.06707
   R21        2.06346  -0.00121  -0.00018  -0.00289  -0.00308   2.06039
   R22        2.06687  -0.00034  -0.00035  -0.00033  -0.00068   2.06619
   R23        2.06578   0.00032  -0.00037   0.00142   0.00105   2.06683
   R24        1.83642   0.00010  -0.00234   0.00389   0.00155   1.83797
    A1        2.18872   0.00133  -0.00104   0.00653   0.00421   2.19293
    A2        2.13572  -0.00222  -0.00068  -0.00699  -0.00892   2.12679
    A3        1.95875   0.00089   0.00171   0.00042   0.00087   1.95962
    A4        1.87134  -0.00089   0.00210  -0.00891  -0.00681   1.86453
    A5        1.89397   0.00031   0.00064   0.00251   0.00314   1.89711
    A6        1.89486   0.00089   0.00265   0.00069   0.00332   1.89818
    A7        1.97180   0.00098   0.00090   0.00445   0.00545   1.97725
    A8        1.92110  -0.00009  -0.00163   0.00015  -0.00142   1.91968
    A9        1.90886  -0.00117  -0.00451   0.00089  -0.00361   1.90525
   A10        2.07473  -0.00024   0.00113  -0.00289  -0.00177   2.07296
   A11        2.13779   0.00180  -0.00067   0.00746   0.00679   2.14458
   A12        2.07067  -0.00157  -0.00047  -0.00456  -0.00502   2.06564
   A13        2.10957   0.00064   0.00017   0.00259   0.00276   2.11233
   A14        2.08687  -0.00028   0.00100  -0.00292  -0.00192   2.08495
   A15        2.08670  -0.00036  -0.00117   0.00028  -0.00090   2.08580
   A16        2.09625   0.00008  -0.00065   0.00110   0.00044   2.09669
   A17        2.08981  -0.00012   0.00052  -0.00131  -0.00080   2.08901
   A18        2.09713   0.00004   0.00014   0.00022   0.00036   2.09748
   A19        2.08469  -0.00005   0.00142  -0.00320  -0.00178   2.08291
   A20        2.09916   0.00004  -0.00073   0.00173   0.00101   2.10017
   A21        2.09931   0.00001  -0.00070   0.00147   0.00078   2.10009
   A22        2.09985   0.00041  -0.00071   0.00239   0.00169   2.10154
   A23        2.09478   0.00001   0.00014   0.00040   0.00054   2.09532
   A24        2.08855  -0.00043   0.00057  -0.00280  -0.00223   2.08632
   A25        2.10525   0.00048   0.00025   0.00167   0.00192   2.10717
   A26        2.10143  -0.00023   0.00156  -0.00357  -0.00202   2.09942
   A27        2.07650  -0.00025  -0.00181   0.00190   0.00010   2.07660
   A28        1.92223   0.00024   0.00209  -0.00224  -0.00013   1.92211
   A29        1.95908  -0.00102   0.00008  -0.00539  -0.00531   1.95377
   A30        1.91537   0.00043   0.00286  -0.00278   0.00011   1.91548
   A31        1.89700   0.00051  -0.00185   0.00679   0.00494   1.90194
   A32        1.88435  -0.00047  -0.00171  -0.00108  -0.00274   1.88162
   A33        1.88391   0.00033  -0.00177   0.00504   0.00328   1.88719
   A34        1.95621  -0.00103   0.00077  -0.00761  -0.00684   1.94936
   A35        1.93239  -0.00036   0.00166  -0.00544  -0.00377   1.92863
   A36        1.90520   0.00077   0.00309   0.00027   0.00339   1.90860
   A37        1.87689   0.00051  -0.00147   0.00342   0.00193   1.87881
   A38        1.89248   0.00024  -0.00220   0.00608   0.00391   1.89639
   A39        1.89942  -0.00012  -0.00221   0.00384   0.00167   1.90109
   A40        1.84703   0.00061  -0.00237   0.00741   0.00504   1.85207
    D1       -1.92903   0.00087  -0.00047   0.10022   0.09984  -1.82919
    D2        2.21912   0.00003  -0.00326   0.09870   0.09551   2.31463
    D3        0.14598   0.00075   0.00030   0.09582   0.09617   0.24215
    D4        1.21212   0.00003  -0.00203   0.00921   0.00714   1.21926
    D5       -0.92291  -0.00080  -0.00481   0.00770   0.00282  -0.92010
    D6       -2.99605  -0.00008  -0.00126   0.00482   0.00347  -2.99258
    D7        0.01925  -0.00037   0.00010  -0.04473  -0.04431  -0.02505
    D8       -3.12191   0.00043   0.00161   0.04308   0.04436  -3.07755
    D9        1.01444  -0.00028   0.00506  -0.13676  -0.13167   0.88277
   D10       -2.12667  -0.00038   0.00317  -0.13846  -0.13526  -2.26193
   D11        3.10024   0.00011   0.00788  -0.13691  -0.12906   2.97117
   D12       -0.04088   0.00001   0.00599  -0.13861  -0.13265  -0.17353
   D13       -1.04356  -0.00078   0.00157  -0.13252  -0.13095  -1.17452
   D14        2.09851  -0.00089  -0.00032  -0.13422  -0.13454   1.96397
   D15       -3.11789  -0.00013   0.00043   0.01956   0.02002  -3.09787
   D16        1.04912  -0.00025   0.00127   0.01613   0.01740   1.06652
   D17       -1.04572  -0.00029   0.00149   0.01516   0.01665  -1.02907
   D18        1.09260   0.00017  -0.00324   0.02628   0.02306   1.11565
   D19       -1.02358   0.00005  -0.00240   0.02285   0.02044  -1.00313
   D20       -3.11842   0.00000  -0.00218   0.02188   0.01969  -3.09873
   D21       -1.05360   0.00046   0.00141   0.02235   0.02376  -1.02984
   D22        3.11341   0.00034   0.00225   0.01892   0.02115   3.13456
   D23        1.01857   0.00029   0.00247   0.01795   0.02040   1.03897
   D24       -1.00834   0.00040  -0.00115   0.00102  -0.00013  -1.00846
   D25        1.08735   0.00012  -0.00134  -0.00349  -0.00480   1.08255
   D26       -3.10524   0.00024  -0.00099  -0.00193  -0.00292  -3.10816
   D27        1.03508  -0.00020   0.00201  -0.00923  -0.00720   1.02788
   D28        3.13077  -0.00048   0.00181  -0.01374  -0.01188   3.11889
   D29       -1.06182  -0.00036   0.00216  -0.01219  -0.01000  -1.07182
   D30       -3.07206   0.00018  -0.00080  -0.00290  -0.00376  -3.07583
   D31       -0.97638  -0.00011  -0.00099  -0.00741  -0.00844  -0.98481
   D32        1.11422   0.00002  -0.00064  -0.00586  -0.00656   1.10766
   D33        3.13142  -0.00002  -0.00029  -0.00101  -0.00128   3.13014
   D34       -0.02033  -0.00013  -0.00010  -0.00637  -0.00645  -0.02678
   D35       -0.01064   0.00008   0.00152   0.00063   0.00214  -0.00849
   D36        3.12080  -0.00003   0.00172  -0.00473  -0.00302   3.11778
   D37       -3.12665   0.00003  -0.00005   0.00229   0.00226  -3.12439
   D38        0.01129   0.00007   0.00056   0.00295   0.00351   0.01480
   D39        0.01542  -0.00007  -0.00191   0.00059  -0.00132   0.01411
   D40       -3.12982  -0.00003  -0.00130   0.00125  -0.00006  -3.12988
   D41       -0.00017  -0.00004  -0.00031  -0.00164  -0.00194  -0.00211
   D42        3.14089  -0.00006  -0.00030  -0.00216  -0.00245   3.13844
   D43       -3.13161   0.00007  -0.00051   0.00374   0.00324  -3.12837
   D44        0.00945   0.00005  -0.00050   0.00322   0.00273   0.01218
   D45        0.00633   0.00001  -0.00055   0.00143   0.00088   0.00721
   D46       -3.14077   0.00003  -0.00009   0.00171   0.00161  -3.13916
   D47       -3.13473   0.00003  -0.00056   0.00195   0.00139  -3.13333
   D48        0.00136   0.00005  -0.00011   0.00223   0.00213   0.00348
[...]
                 (A) (A) (A) (A) (A) (A) (A) (A) (A) (A) (A) (A)
                 (A) (A) (A) (A) (A) (A) (A) (A) (A) (A) (A) (A)
                 (A) (A) (A) (A) (A) (A) (A) (A) (A) (A) (A) (A)
                 (A) (A) (A) (A) (A) (A) (A) (A) (A) (A) (A) (A)
                 (A) (A) (A) (A) (A) (A) (A) (A) (A) (A) (A) (A)
                 (A) (A) (A) (A) (A) (A) (A) (A) (A) (A) (A) (A)
                 (A) (A) (A) (A) (A) (A) (A) (A) (A) (A) (A) (A)
                 (A) (A) (A) (A) (A) (A) (A) (A) (A) (A) (A) (A)
                 (A) (A) (A) (A) (A) (A) (A) (A) (A) (A) (A) (A)
                 (A) (A) (A) (A) (A) (A) (A) (A) (A) (A) (A) (A)
                 (A) (A) (A) (A) (A) (A) (A) (A) (A) (A) (A) (A)
                 (A) (A) (A) (A)
 The electronic state is 1-A.
 Alpha  occ. eigenvalues --  -19.67655 -19.62375 -10.68017 -10.57655 -10.55996
 Alpha  occ. eigenvalues --  -10.54681 -10.54631 -10.54595 -10.54481 -10.54431
 Alpha  occ. eigenvalues --  -10.53798 -10.53093  -1.23834  -1.14200  -0.97257
 Alpha  occ. eigenvalues --   -0.92292  -0.84638  -0.83416  -0.78783  -0.75732
 Alpha  occ. eigenvalues --   -0.69645  -0.68923  -0.64396  -0.60320  -0.58446
 Alpha  occ. eigenvalues --   -0.56851  -0.54571  -0.52286  -0.52092  -0.50703
 Alpha  occ. eigenvalues --   -0.49775  -0.49037  -0.47361  -0.45864  -0.44320
 Alpha  occ. eigenvalues --   -0.44021  -0.43025  -0.41888  -0.40350  -0.39743
 Alpha  occ. eigenvalues --   -0.39196  -0.35658  -0.31145  -0.30375
 Alpha virt. eigenvalues --    0.01260   0.01500   0.04894   0.06338   0.07824
 Alpha virt. eigenvalues --    0.09045   0.10139   0.11651   0.11832   0.12433
 Alpha virt. eigenvalues --    0.13822   0.14612   0.15153   0.15955   0.17070
 Alpha virt. eigenvalues --    0.17798   0.18771   0.19455   0.20862   0.21542
 Alpha virt. eigenvalues --    0.22431   0.23000   0.23700   0.24548   0.25230
 Alpha virt. eigenvalues --    0.26176   0.27180   0.27597   0.28153   0.29333
 Alpha virt. eigenvalues --    0.30407   0.30528   0.31593   0.32875   0.33667
 Alpha virt. eigenvalues --    0.34300   0.36582   0.37046   0.37354   0.37918
 Alpha virt. eigenvalues --    0.38721   0.39140   0.40566   0.40694   0.41809
 Alpha virt. eigenvalues --    0.42084   0.43505   0.43958   0.44052   0.44739
 Alpha virt. eigenvalues --    0.45453   0.45854   0.46807   0.47385   0.48041
 Alpha virt. eigenvalues --    0.49266   0.49679   0.49978   0.51123   0.51923
 Alpha virt. eigenvalues --    0.52089   0.52878   0.53118   0.53478   0.54724
 Alpha virt. eigenvalues --    0.55776   0.57085   0.58186   0.58789   0.60673
 Alpha virt. eigenvalues --    0.62510   0.63918   0.65000   0.66113   0.68033
 Alpha virt. eigenvalues --    0.69191   0.69272   0.70209   0.71117   0.72809
 Alpha virt. eigenvalues --    0.73803   0.74619   0.76010   0.76837   0.78299
 Alpha virt. eigenvalues --    0.79068   0.80839   0.82717   0.83301   0.83943
 Alpha virt. eigenvalues --    0.86467   0.88244   0.89268   0.90017   0.90734
 Alpha virt. eigenvalues --    0.92481   0.92930   0.94450   0.95818   0.96719
 Alpha virt. eigenvalues --    0.97828   1.00513   1.02466   1.04609   1.05530
 Alpha virt. eigenvalues --    1.06249   1.07774   1.07842   1.08886   1.10197
 Alpha virt. eigenvalues --    1.12627   1.13350   1.14939   1.15620   1.16305
 Alpha virt. eigenvalues --    1.18289   1.21041   1.23401   1.24996   1.25357
 Alpha virt. eigenvalues --    1.26496   1.27496   1.28679   1.29412   1.30317
 Alpha virt. eigenvalues --    1.31501   1.33692   1.35018   1.36279   1.39668
 Alpha virt. eigenvalues --    1.41994   1.43214   1.44813   1.45986   1.47630
 Alpha virt. eigenvalues --    1.49138   1.49966   1.51958   1.53528   1.54450
 Alpha virt. eigenvalues --    1.55398   1.56142   1.58732   1.59060   1.59871
 Alpha virt. eigenvalues --    1.60818   1.62252   1.63404   1.64684   1.65306
 Alpha virt. eigenvalues --    1.65733   1.66796   1.67489   1.68766   1.69532
 Alpha virt. eigenvalues --    1.71607   1.72343   1.73043   1.74129   1.74870
 Alpha virt. eigenvalues --    1.75165   1.76196   1.78936   1.81671   1.83048
 Alpha virt. eigenvalues --    1.85295   1.89396   1.90876   1.92309   1.93353
 Alpha virt. eigenvalues --    1.94623   1.95166   1.96334   1.97645   2.00983
 Alpha virt. eigenvalues --    2.01232   2.03171   2.07125   2.07394   2.08151
 Alpha virt. eigenvalues --    2.10324   2.11347   2.13519   2.14683   2.17278
 Alpha virt. eigenvalues --    2.17329   2.18321   2.20353   2.21108   2.22652
 Alpha virt. eigenvalues --    2.24470   2.26485   2.26614   2.29574   2.31467
 Alpha virt. eigenvalues --    2.32146   2.33249   2.34476   2.36100   2.36409
 Alpha virt. eigenvalues --    2.38051   2.39627   2.40774   2.44964   2.45320
 Alpha virt. eigenvalues --    2.46814   2.47711   2.50354   2.51601   2.52439
 Alpha virt. eigenvalues --    2.54683   2.55990   2.56197   2.57470   2.59605
 Alpha virt. eigenvalues --    2.61535   2.61686   2.63425   2.64052   2.65272
 Alpha virt. eigenvalues --    2.65933   2.67143   2.67369   2.69227   2.69496
 Alpha virt. eigenvalues --    2.70525   2.71992   2.73317   2.75036   2.77012
 Alpha virt. eigenvalues --    2.78063   2.78899   2.79181   2.80457   2.81269
 Alpha virt. eigenvalues --    2.81552   2.82245   2.84693   2.85269   2.85697
 Alpha virt. eigenvalues --    2.88114   2.90188   2.90713   2.91329   2.93282
 Alpha virt. eigenvalues --    2.95139   2.98588   2.99598   3.02266   3.02608
 Alpha virt. eigenvalues --    3.04359   3.05120   3.06661   3.08444   3.09937
 Alpha virt. eigenvalues --    3.10763   3.12631   3.14193   3.15134   3.16034
 Alpha virt. eigenvalues --    3.16676   3.18331   3.19222   3.19625   3.21576
 Alpha virt. eigenvalues --    3.22019   3.23302   3.24788   3.25539   3.25872
 Alpha virt. eigenvalues --    3.26640   3.27937   3.29146   3.29684   3.30490
 Alpha virt. eigenvalues --    3.31705   3.32868   3.34863   3.35623   3.36401
 Alpha virt. eigenvalues --    3.37448   3.37757   3.39436   3.41094   3.42815
 Alpha virt. eigenvalues --    3.44784   3.45749   3.47046   3.47187   3.47789
 Alpha virt. eigenvalues --    3.48554   3.50084   3.51656   3.52523   3.52824
 Alpha virt. eigenvalues --    3.55194   3.56043   3.58229   3.60268   3.62413
 Alpha virt. eigenvalues --    3.63354   3.66667   3.67943   3.69283   3.69853
 Alpha virt. eigenvalues --    3.71572   3.76995   3.78699   3.80342   3.83082
 Alpha virt. eigenvalues --    3.89519   3.90251   3.92013   3.92848   3.95056
 Alpha virt. eigenvalues --    4.01394   4.01820   4.02373   4.02857   4.05249
 Alpha virt. eigenvalues --    4.08943   4.09888   4.11880   4.12653   4.15679
 Alpha virt. eigenvalues --    4.16366   4.16901   4.17565   4.18675   4.20590
 Alpha virt. eigenvalues --    4.22651   4.25701   4.27243   4.29144   4.30530
 Alpha virt. eigenvalues --    4.34084   4.35421   4.37240   4.38968   4.40978
 Alpha virt. eigenvalues --    4.46026   4.48403   4.51201   4.52119   4.57430
 Alpha virt. eigenvalues --    4.60739   4.63514   4.65702   4.68889   4.70754
 Alpha virt. eigenvalues --    4.76323   4.83649   4.84446   4.86244   4.87539
 Alpha virt. eigenvalues --    4.92805   5.01615   5.05565   5.16186   5.16394
 Alpha virt. eigenvalues --    5.17332   5.22224   5.23565   5.30616   5.34803
 Alpha virt. eigenvalues --    5.39537   5.41802   5.44485   5.51972   5.59969
 Alpha virt. eigenvalues --    5.60412   5.74890   5.87372   5.88794   6.17455
 Alpha virt. eigenvalues --    6.21956   6.35031   6.35461   6.47554   6.50436
 Alpha virt. eigenvalues --    6.66758   6.70490   6.75457   6.84775   6.91119
 Alpha virt. eigenvalues --    7.08237   7.12336   7.29289  22.23022  22.53775
 Alpha virt. eigenvalues --   22.57682  22.65869  22.70792  22.86076  22.89898
 Alpha virt. eigenvalues --   22.92070  23.26981  23.39886  44.06874  44.08961
          Condensed to atoms (all electrons):
               1          2          3          4          5          6
     1  O    7.837059   0.652556  -0.087037  -0.021215  -0.001847   0.001377
     2  C    0.652556   4.668778   0.199076  -0.034048  -0.014083   0.001698
     3  C   -0.087037   0.199076   5.585057   0.170124  -0.040777   0.009991
     4  C   -0.021215  -0.034048   0.170124   5.340798   0.416407  -0.043623
     5  C   -0.001847  -0.014083  -0.040777   0.416407   5.099163   0.482813
     6  C    0.001377   0.001698   0.009991  -0.043623   0.482813   4.938165
     7  C   -0.000076  -0.000143  -0.003845  -0.060341  -0.020075   0.490557
     8  C    0.000080  -0.001232   0.011786  -0.039803  -0.070940  -0.016077
     9  C   -0.001458   0.002411  -0.040208   0.417726  -0.012575  -0.078760
    10  C    0.002886  -0.053517   0.232231  -0.086165   0.019714  -0.000377
    11  C    0.013382  -0.084045   0.293932  -0.090726  -0.011779   0.001244
    12  O   -0.089706   0.375921  -0.100481  -0.022915   0.009307  -0.002399
    13  H    0.010094  -0.002923   0.018076  -0.051552   0.392939  -0.010677
    14  H   -0.000000   0.000001  -0.000116   0.006141  -0.030847   0.407323
    15  H   -0.000000  -0.000002   0.000059   0.000695   0.004611  -0.034062
    16  H   -0.000000  -0.000010  -0.000334   0.006971  -0.000062   0.004136
    17  H   -0.000019  -0.000079  -0.010181  -0.030296   0.003336   0.000087
    18  H   -0.000433   0.013243  -0.035690  -0.010918  -0.001279  -0.000068
    19  H    0.000224  -0.015878  -0.041233   0.007280  -0.000021  -0.000100
    20  H    0.000687  -0.009007  -0.037584   0.016834  -0.000689   0.000048
    21  H    0.002327  -0.021421   0.015742  -0.039356   0.009020   0.001177
    22  H    0.000720  -0.014387  -0.027978   0.021354   0.000996  -0.000049
    23  H    0.000597   0.018351  -0.045689  -0.005418  -0.006543  -0.000129
    24  H    0.005673  -0.026184   0.014189   0.001683  -0.001263  -0.000035
               7          8          9         10         11         12
     1  O   -0.000076   0.000080  -0.001458   0.002886   0.013382  -0.089706
     2  C   -0.000143  -0.001232   0.002411  -0.053517  -0.084045   0.375921
     3  C   -0.003845   0.011786  -0.040208   0.232231   0.293932  -0.100481
     4  C   -0.060341  -0.039803   0.417726  -0.086165  -0.090726  -0.022915
     5  C   -0.020075  -0.070940  -0.012575   0.019714  -0.011779   0.009307
     6  C    0.490557  -0.016077  -0.078760  -0.000377   0.001244  -0.002399
     7  C    4.913922   0.503893  -0.017933   0.000180   0.000641   0.000808
     8  C    0.503893   4.906177   0.495356  -0.001518  -0.001754  -0.001324
     9  C   -0.017933   0.495356   5.073581  -0.026167  -0.004220   0.004003
    10  C    0.000180  -0.001518  -0.026167   5.286710  -0.081327  -0.004963
    11  C    0.000641  -0.001754  -0.004220  -0.081327   5.154168   0.006907
    12  O    0.000808  -0.001324   0.004003  -0.004963   0.006907   7.934587
    13  H    0.002480  -0.000055   0.002280   0.001014  -0.006261   0.000046
    14  H   -0.034544   0.004103  -0.000070   0.000009  -0.000036  -0.000018
    15  H    0.409511  -0.034026   0.004532  -0.000009   0.000003   0.000001
    16  H   -0.033560   0.406012  -0.032137   0.000123  -0.000008  -0.000011
    17  H    0.002150  -0.013930   0.397479  -0.000358  -0.000502   0.000070
    18  H   -0.000006   0.000240   0.001590   0.415361  -0.014497   0.000373
    19  H   -0.000008  -0.000606  -0.007528   0.425802   0.011756   0.003976
    20  H   -0.000011   0.000063   0.000172   0.410737  -0.008845   0.000747
    21  H    0.000078  -0.000022   0.000777   0.010356   0.401302   0.000076
    22  H    0.000002   0.000016  -0.000588  -0.010368   0.401042  -0.000083
    23  H   -0.000118  -0.000059   0.002828  -0.012769   0.421586  -0.000120
    24  H    0.000002  -0.000002   0.000298  -0.000877  -0.001389   0.294239
              13         14         15         16         17         18
     1  O    0.010094  -0.000000  -0.000000  -0.000000  -0.000019  -0.000433
     2  C   -0.002923   0.000001  -0.000002  -0.000010  -0.000079   0.013243
     3  C    0.018076  -0.000116   0.000059  -0.000334  -0.010181  -0.035690
     4  C   -0.051552   0.006141   0.000695   0.006971  -0.030296  -0.010918
     5  C    0.392939  -0.030847   0.004611  -0.000062   0.003336  -0.001279
     6  C   -0.010677   0.407323  -0.034062   0.004136   0.000087  -0.000068
     7  C    0.002480  -0.034544   0.409511  -0.033560   0.002150  -0.000006
     8  C   -0.000055   0.004103  -0.034026   0.406012  -0.013930   0.000240
     9  C    0.002280  -0.000070   0.004532  -0.032137   0.397479   0.001590
    10  C    0.001014   0.000009  -0.000009   0.000123  -0.000358   0.415361
    11  C   -0.006261  -0.000036   0.000003  -0.000008  -0.000502  -0.014497
    12  O    0.000046  -0.000018   0.000001  -0.000011   0.000070   0.000373
    13  H    0.455557  -0.003020  -0.000247   0.000059  -0.000176  -0.000026
    14  H   -0.003020   0.509017  -0.003795  -0.000269   0.000071  -0.000000
    15  H   -0.000247  -0.003795   0.512852  -0.003840  -0.000283   0.000001
    16  H    0.000059  -0.000269  -0.003840   0.513336  -0.003311   0.000014
    17  H   -0.000176   0.000071  -0.000283  -0.003311   0.497751  -0.003607
    18  H   -0.000026  -0.000000   0.000001   0.000014  -0.003607   0.516842
    19  H   -0.000027  -0.000000   0.000001   0.000013  -0.004735  -0.028130
    20  H   -0.000021  -0.000000   0.000000  -0.000001   0.000699  -0.020703
    21  H   -0.000206  -0.000007  -0.000001  -0.000002  -0.000008  -0.000101
    22  H    0.000004  -0.000002   0.000000  -0.000000  -0.000046   0.000203
    23  H    0.000027   0.000007  -0.000002   0.000003   0.000283   0.001616
    24  H   -0.000122   0.000002  -0.000000   0.000001   0.000013   0.000107
              19         20         21         22         23         24
     1  O    0.000224   0.000687   0.002327   0.000720   0.000597   0.005673
     2  C   -0.015878  -0.009007  -0.021421  -0.014387   0.018351  -0.026184
     3  C   -0.041233  -0.037584   0.015742  -0.027978  -0.045689   0.014189
     4  C    0.007280   0.016834  -0.039356   0.021354  -0.005418   0.001683
     5  C   -0.000021  -0.000689   0.009020   0.000996  -0.006543  -0.001263
     6  C   -0.000100   0.000048   0.001177  -0.000049  -0.000129  -0.000035
     7  C   -0.000008  -0.000011   0.000078   0.000002  -0.000118   0.000002
     8  C   -0.000606   0.000063  -0.000022   0.000016  -0.000059  -0.000002
     9  C   -0.007528   0.000172   0.000777  -0.000588   0.002828   0.000298
    10  C    0.425802   0.410737   0.010356  -0.010368  -0.012769  -0.000877
    11  C    0.011756  -0.008845   0.401302   0.401042   0.421586  -0.001389
    12  O    0.003976   0.000747   0.000076  -0.000083  -0.000120   0.294239
    13  H   -0.000027  -0.000021  -0.000206   0.000004   0.000027  -0.000122
    14  H   -0.000000  -0.000000  -0.000007  -0.000002   0.000007   0.000002
    15  H    0.000001   0.000000  -0.000001   0.000000  -0.000002  -0.000000
    16  H    0.000013  -0.000001  -0.000002  -0.000000   0.000003   0.000001
    17  H   -0.004735   0.000699  -0.000008  -0.000046   0.000283   0.000013
    18  H   -0.028130  -0.020703  -0.000101   0.000203   0.001616   0.000107
    19  H    0.477137  -0.016105  -0.000298  -0.000106  -0.000219  -0.000313
    20  H   -0.016105   0.495270  -0.000048   0.002610   0.000290  -0.000258
    21  H   -0.000298  -0.000048   0.495178  -0.018826  -0.021607  -0.000028
    22  H   -0.000106   0.002610  -0.018826   0.516975  -0.025513  -0.000023
    23  H   -0.000219   0.000290  -0.021607  -0.025513   0.515156   0.000033
    24  H   -0.000313  -0.000258  -0.000028  -0.000023   0.000033   0.377818
 Mulliken charges:
               1
     1  O   -0.325871
     2  C    0.344922
     3  C   -0.079112
     4  C    0.130364
     5  C   -0.225526
     6  C   -0.152259
     7  C   -0.153564
     8  C   -0.146380
     9  C   -0.181388
    10  C   -0.526708
    11  C   -0.400575
    12  O   -0.409042
    13  H    0.192737
    14  H    0.146051
    15  H    0.144000
    16  H    0.142876
    17  H    0.165590
    18  H    0.165865
    19  H    0.189116
    20  H    0.165116
    21  H    0.165898
    22  H    0.154046
    23  H    0.157409
    24  H    0.336435
 Sum of Mulliken charges =  -0.00000
 Mulliken charges with hydrogens summed into heavy atoms:
               1
     1  O   -0.325871
     2  C    0.344922
     3  C   -0.079112
     4  C    0.130364
     5  C   -0.032789
     6  C   -0.006207
     7  C   -0.009564
     8  C   -0.003504
     9  C   -0.015798
    10  C   -0.006611
    11  C    0.076777
    12  O   -0.072607
 Electronic spatial extent (au):  <R**2>=           2021.7947
 Charge=              0.0000 electrons
 Dipole moment (field-independent basis, Debye):
    X=             -0.7360    Y=              1.2505    Z=             -0.6701  Tot=              1.5983
 Quadrupole moment (field-independent basis, Debye-Ang):
   XX=            -69.0590   YY=            -69.5608   ZZ=            -71.7813
   XY=              3.7286   XZ=             -2.1969   YZ=              1.9758
 Traceless Quadrupole moment (field-independent basis, Debye-Ang):
   XX=              1.0747   YY=              0.5729   ZZ=             -1.6476
   XY=              3.7286   XZ=             -2.1969   YZ=              1.9758
 Octapole moment (field-independent basis, Debye-Ang**2):
  XXX=             -4.6510  YYY=             -1.6558  ZZZ=            -13.8628  XYY=             -7.3151
  XXY=              4.6323  XXZ=            -18.0170  XZZ=             22.2314  YZZ=             -9.3034
  YYZ=             -6.4907  XYZ=             12.7920
 Hexadecapole moment (field-independent basis, Debye-Ang**3):
 XXXX=          -1581.9952 YYYY=           -606.5968 ZZZZ=           -395.4576 XXXY=             16.8728
 XXXZ=            -19.8142 YYYX=              2.2593 YYYZ=             -1.2209 ZZZX=            -39.6999
 ZZZY=             23.4440 XXYY=           -381.4713 XXZZ=           -341.6083 YYZZ=           -161.2081
 XXYZ=             13.9633 YYXZ=            -15.2439 ZZXY=            -27.9706
 N-N= 6.989851430966D+02 E-N=-2.652974691980D+03  KE= 5.359010057212D+02
 Unable to Open any file for archive entry.
 1\1\GINC-NOTCH075\SP\RM062X\def2TZVP\C10H12O2\U6032257\03-Feb-2022\0\\
 # M062X/def2tzvp int=(grid=ultrafine) nmr=giao guess=read geom=check\\
 Ac5.xyz\\0,1\O,0,-2.4481089866,-1.4464220055,0.8958797571\C,0,-1.85523
 43801,-0.3888522352,0.8993611095\C,0,-1.0924705183,0.2097579592,-0.285
 6307362\C,0,0.40192232,-0.0400305762,-0.0192987835\C,0,0.8322917991,-1
 .3419241988,0.2773166957\C,0,2.1796765645,-1.619112362,0.4923283762\C,
 0,3.1275586018,-0.5977148995,0.4109126109\C,0,2.7111486867,0.699080397
 8,0.118520037\C,0,1.3587261746,0.9762804089,-0.0914770069\C,0,-1.44127
 23382,1.7028243901,-0.4142761096\C,0,-1.5151270296,-0.5285472472,-1.56
 96509071\O,0,-1.7764596397,0.3859528959,2.0073492737\H,0,0.1015594387,
 -2.1417486742,0.3497467461\H,0,2.4892917705,-2.6337120327,0.7242925562
 \H,0,4.1789542839,-0.8114070164,0.5766191822\H,0,3.4378462356,1.503532
 3137,0.0552285302\H,0,1.0597707428,1.9940330782,-0.3117069629\H,0,-0.9
 580277254,2.128424353,-1.2979468609\H,0,-1.1338873102,2.269189477,0.46
 59767928\H,0,-2.5212775971,1.8236062005,-0.5373310405\H,0,-1.341468873
 3,-1.601662154,-1.4862285076\H,0,-2.5795280154,-0.3751607142,-1.769464
 4784\H,0,-0.9386971005,-0.1444506329,-2.4154616453\H,0,-2.2532871036,-
 0.0969367255,2.7030413716\\Version=ES64L-G16RevC.01\State=1-A\HF=-538.
 7393004\RMSD=1.623e-09\Dipole=0.3218393,0.5395621,0.0266363\Quadrupole
 =0.4006116,-0.5887532,0.1881415,-3.3290086,-0.4439748,-1.4559636\PG=C0
 1 [X(C10H12O2)]\\@
 The archive entry for this job was punched.


 THE ... SCIENTISTS WERE WRONG ... THE MOST PERSISTENT PRINCIPLES 
 OF THE UNIVERSE WERE ACCIDENT AND ERROR.

                          -- FRANK HERBERT IN DUNE
 Job cpu time:       0 days  0 hours 38 minutes  8.2 seconds.
 Elapsed time:       0 days  0 hours  1 minutes 18.7 seconds.
 File lengths (MBytes):  RWF=    114 Int=      0 D2E=      0 Chk=     19 Scr=      1
 Normal termination of Gaussian 16 at Thu Feb  3 03:37:01 2022.
