 Entering Gaussian System, Link 0=/uufs/chpc.utah.edu/sys/installdir/gaussian16/C01/AVX2/g16/g16
 Input=Ac5_conf-2.com
 Output=Ac5_conf-2.log
 Initial command:
 /uufs/chpc.utah.edu/sys/installdir/gaussian16/C01/AVX2/g16/l1.exe "/scratch/general/lustre/u6032257/3856659/notchpeak.peaks/Gau-223038.inp" -scrdir="/scratch/general/lustre/u6032257/3856659/notchpeak.peaks/"
 Entering Link 1 = /uufs/chpc.utah.edu/sys/installdir/gaussian16/C01/AVX2/g16/l1.exe PID=    223040.
  
 Copyright (c) 1988-2019, Gaussian, Inc.  All Rights Reserved.
  
 This is part of the Gaussian(R) 16 program.  It is based on
 the Gaussian(R) 09 system (copyright 2009, Gaussian, Inc.),
 the Gaussian(R) 03 system (copyright 2003, Gaussian, Inc.),
 the Gaussian(R) 98 system (copyright 1998, Gaussian, Inc.),
 the Gaussian(R) 94 system (copyright 1995, Gaussian, Inc.),
 the Gaussian 92(TM) system (copyright 1992, Gaussian, Inc.),
 the Gaussian 90(TM) system (copyright 1990, Gaussian, Inc.),
 the Gaussian 88(TM) system (copyright 1988, Gaussian, Inc.),
 the Gaussian 86(TM) system (copyright 1986, Carnegie Mellon
 University), and the Gaussian 82(TM) system (copyright 1983,
 Carnegie Mellon University). Gaussian is a federally registered
 trademark of Gaussian, Inc.
  
 This software contains proprietary and confidential information,
 including trade secrets, belonging to Gaussian, Inc.
  
 This software is provided under written license and may be
 used, copied, transmitted, or stored only in accord with that
 written license.
  
 The following legend is applicable only to US Government
 contracts under FAR:
  
                    RESTRICTED RIGHTS LEGEND
  
 Use, reproduction and disclosure by the US Government is
 subject to restrictions as set forth in subparagraphs (a)
 and (c) of the Commercial Computer Software - Restricted
 Rights clause in FAR 52.227-19.
  
 Gaussian, Inc.
 340 Quinnipiac St., Bldg. 40, Wallingford CT 06492
  
  
 ---------------------------------------------------------------
 Warning -- This program may not be used in any manner that
 competes with the business of Gaussian, Inc. or will provide
 assistance to any competitor of Gaussian, Inc.  The licensee
 of this program is prohibited from giving any competitor of
 Gaussian, Inc. access to this program.  By using this program,
 the user acknowledges that Gaussian, Inc. is engaged in the
 business of creating and licensing software in the field of
 computational chemistry and represents and warrants to the
 licensee that it is not a competitor of Gaussian, Inc. and that
 it will not use this program in any manner prohibited above.
 ---------------------------------------------------------------
  

 Cite this work as:
 Gaussian 16, Revision C.01,
 M. J. Frisch, G. W. Trucks, H. B. Schlegel, G. E. Scuseria, 
 M. A. Robb, J. R. Cheeseman, G. Scalmani, V. Barone, 
 G. A. Petersson, H. Nakatsuji, X. Li, M. Caricato, A. V. Marenich, 
 J. Bloino, B. G. Janesko, R. Gomperts, B. Mennucci, H. P. Hratchian, 
 J. V. Ortiz, A. F. Izmaylov, J. L. Sonnenberg, D. Williams-Young, 
 F. Ding, F. Lipparini, F. Egidi, J. Goings, B. Peng, A. Petrone, 
 T. Henderson, D. Ranasinghe, V. G. Zakrzewski, J. Gao, N. Rega, 
 G. Zheng, W. Liang, M. Hada, M. Ehara, K. Toyota, R. Fukuda, 
 J. Hasegawa, M. Ishida, T. Nakajima, Y. Honda, O. Kitao, H. Nakai, 
 T. Vreven, K. Throssell, J. A. Montgomery, Jr., J. E. Peralta, 
 F. Ogliaro, M. J. Bearpark, J. J. Heyd, E. N. Brothers, K. N. Kudin, 
 V. N. Staroverov, T. A. Keith, R. Kobayashi, J. Normand, 
 K. Raghavachari, A. P. Rendell, J. C. Burant, S. S. Iyengar, 
 J. Tomasi, M. Cossi, J. M. Millam, M. Klene, C. Adamo, R. Cammi, 
 J. W. Ochterski, R. L. Martin, K. Morokuma, O. Farkas, 
 J. B. Foresman, and D. J. Fox, Gaussian, Inc., Wallingford CT, 2019.
 
 ******************************************
 Gaussian 16:  ES64L-G16RevC.01  3-Jul-2019
                 3-Feb-2022 
 ******************************************
 %NProcShared=32
 Will use up to   32 processors via shared memory.
 %mem=16GB
 %chk=Ac5_conf-2.chk
 ----------------------------------------------------------------------
 # B3LYP/6-31G(d,p) empiricaldispersion=GD3BJ int=(grid=ultrafine) opt 
 freq=noraman
 ----------------------------------------------------------------------
 1/18=20,19=15,26=4,38=1/1,3;
 2/9=110,12=2,17=6,18=5,40=1/2;
 3/5=1,6=6,7=101,11=2,25=1,30=1,71=1,74=-5,75=-5,124=41/1,2,3;
 4//1;
 5/5=2,38=5/2;
 6/7=2,8=2,9=2,10=2,28=1/1;
 7//1,2,3,16;
 1/18=20,19=15,26=4/3(2);
 2/9=110/2;
 99//99;
 2/9=110/2;
 3/5=1,6=6,7=101,11=2,25=1,30=1,71=1,74=-5,75=-5,124=41/1,2,3;
 4/5=5,16=3,69=1/1;
 5/5=2,38=5/2;
 7//1,2,3,16;
 1/18=20,19=15,26=4/3(-5);
 2/9=110/2;
 6/7=2,8=2,9=2,10=2,19=2,28=1/1;
 99/9=1/99;
 -------
 Ac5.xyz
 -------
 Symbolic Z-matrix:
 Charge =  0 Multiplicity = 1
 O                    -2.5682   -1.243     1.243 
 C                    -1.8801   -0.247     1.0468 
 C                    -1.1138    0.0507   -0.2792 
 C                     0.4056   -0.1758   -0.0296 
 C                     1.1557    0.7743    0.6845 
 C                     2.5185    0.5954    0.9056 
 C                     3.1533   -0.5399    0.413 
 C                     2.4336   -1.4969   -0.2948 
 C                     1.0704   -1.3156   -0.5141 
 C                    -1.3781    1.516    -0.746 
 C                    -1.6712   -0.8458   -1.4295 
 O                    -1.7177    0.702     2.0009 
 H                     0.6835    1.6558    1.0903 
 H                     3.0787    1.334     1.4604 
 H                     4.2107   -0.6813    0.5846 
 H                     2.9295   -2.3795   -0.672 
 H                     0.5466   -2.0827   -1.0618 
 H                    -0.806     1.7511   -1.6447 
 H                    -1.1127    2.2636    0.0014 
 H                    -2.4305    1.6826   -0.9815 
 H                    -1.6395   -1.9082   -1.1823 
 H                    -2.7164   -0.6203   -1.6484 
 H                    -1.1117   -0.7062   -2.3555 
 H                    -2.2156    0.3621    2.7444 
 

 GradGradGradGradGradGradGradGradGradGradGradGradGradGradGradGradGradGrad
 Berny optimization.
 Initialization pass.
                           ----------------------------
                           !    Initial Parameters    !
                           ! (Angstroms and Degrees)  !
 --------------------------                            --------------------------
 ! Name  Definition              Value          Derivative Info.                !
 --------------------------------------------------------------------------------
 ! R1    R(1,2)                  1.2264         estimate D2E/DX2                !
 ! R2    R(2,3)                  1.5602         estimate D2E/DX2                !
 ! R3    R(2,12)                 1.3555         estimate D2E/DX2                !
 ! R4    R(3,4)                  1.5563         estimate D2E/DX2                !
 ! R5    R(3,10)                 1.5604         estimate D2E/DX2                !
 ! R6    R(3,11)                 1.5613         estimate D2E/DX2                !
 ! R7    R(4,5)                  1.4054         estimate D2E/DX2                !
 ! R8    R(4,9)                  1.4056         estimate D2E/DX2                !
 ! R9    R(5,6)                  1.3922         estimate D2E/DX2                !
 ! R10   R(5,13)                 1.0792         estimate D2E/DX2                !
 ! R11   R(6,7)                  1.3909         estimate D2E/DX2                !
 ! R12   R(6,14)                 1.0804         estimate D2E/DX2                !
 ! R13   R(7,8)                  1.391          estimate D2E/DX2                !
 ! R14   R(7,15)                 1.0805         estimate D2E/DX2                !
 ! R15   R(8,9)                  1.3926         estimate D2E/DX2                !
 ! R16   R(8,16)                 1.0804         estimate D2E/DX2                !
 ! R17   R(9,17)                 1.0783         estimate D2E/DX2                !
 ! R18   R(10,18)                1.091          estimate D2E/DX2                !
 ! R19   R(10,19)                1.0899         estimate D2E/DX2                !
 ! R20   R(10,20)                1.0912         estimate D2E/DX2                !
 ! R21   R(11,21)                1.0912         estimate D2E/DX2                !
 ! R22   R(11,22)                1.0914         estimate D2E/DX2                !
 ! R23   R(11,23)                1.0909         estimate D2E/DX2                !
 ! R24   R(12,24)                0.9572         estimate D2E/DX2                !
 ! A1    A(1,2,3)              124.5084         estimate D2E/DX2                !
 ! A2    A(1,2,12)             121.5487         estimate D2E/DX2                !
 ! A3    A(3,2,12)             113.9415         estimate D2E/DX2                !
 ! A4    A(2,3,4)              108.387          estimate D2E/DX2                !
 ! A5    A(2,3,10)             110.5022         estimate D2E/DX2                !
 ! A6    A(2,3,11)             109.954          estimate D2E/DX2                !
 ! A7    A(4,3,10)             110.4874         estimate D2E/DX2                !
 ! A8    A(4,3,11)             112.528          estimate D2E/DX2                !
 ! A9    A(10,3,11)            104.9712         estimate D2E/DX2                !
 ! A10   A(3,4,5)              120.2748         estimate D2E/DX2                !
 ! A11   A(3,4,9)              121.6316         estimate D2E/DX2                !
 ! A12   A(5,4,9)              118.091          estimate D2E/DX2                !
 ! A13   A(4,5,6)              121.0828         estimate D2E/DX2                !
 ! A14   A(4,5,13)             120.6439         estimate D2E/DX2                !
 ! A15   A(6,5,13)             118.2657         estimate D2E/DX2                !
 ! A16   A(5,6,7)              119.6976         estimate D2E/DX2                !
 ! A17   A(5,6,14)             120.0863         estimate D2E/DX2                !
 ! A18   A(7,6,14)             120.2158         estimate D2E/DX2                !
 ! A19   A(6,7,8)              120.375          estimate D2E/DX2                !
 ! A20   A(6,7,15)             119.8153         estimate D2E/DX2                !
 ! A21   A(8,7,15)             119.8091         estimate D2E/DX2                !
 ! A22   A(7,8,9)              119.8053         estimate D2E/DX2                !
 ! A23   A(7,8,16)             120.1479         estimate D2E/DX2                !
 ! A24   A(9,8,16)             120.0467         estimate D2E/DX2                !
 ! A25   A(4,9,8)              120.948          estimate D2E/DX2                !
 ! A26   A(4,9,17)             121.4781         estimate D2E/DX2                !
 ! A27   A(8,9,17)             117.5729         estimate D2E/DX2                !
 ! A28   A(3,10,18)            111.0983         estimate D2E/DX2                !
 ! A29   A(3,10,19)            113.4361         estimate D2E/DX2                !
 ! A30   A(3,10,20)            111.7948         estimate D2E/DX2                !
 ! A31   A(18,10,19)           106.8205         estimate D2E/DX2                !
 ! A32   A(18,10,20)           107.1611         estimate D2E/DX2                !
 ! A33   A(19,10,20)           106.1473         estimate D2E/DX2                !
 ! A34   A(3,11,21)            112.4428         estimate D2E/DX2                !
 ! A35   A(3,11,22)            111.7788         estimate D2E/DX2                !
 ! A36   A(3,11,23)            111.6429         estimate D2E/DX2                !
 ! A37   A(21,11,22)           105.9264         estimate D2E/DX2                !
 ! A38   A(21,11,23)           107.5767         estimate D2E/DX2                !
 ! A39   A(22,11,23)           107.1263         estimate D2E/DX2                !
 ! A40   A(2,12,24)            103.6393         estimate D2E/DX2                !
 ! D1    D(1,2,3,4)           -106.7387         estimate D2E/DX2                !
 ! D2    D(1,2,3,10)           132.0586         estimate D2E/DX2                !
 ! D3    D(1,2,3,11)            16.6432         estimate D2E/DX2                !
 ! D4    D(12,2,3,4)            72.8346         estimate D2E/DX2                !
 ! D5    D(12,2,3,10)          -48.3681         estimate D2E/DX2                !
 ! D6    D(12,2,3,11)         -163.7835         estimate D2E/DX2                !
 ! D7    D(1,2,12,24)            1.4514         estimate D2E/DX2                !
 ! D8    D(3,2,12,24)         -178.136          estimate D2E/DX2                !
 ! D9    D(2,3,4,5)            -75.8943         estimate D2E/DX2                !
 ! D10   D(2,3,4,9)            104.7044         estimate D2E/DX2                !
 ! D11   D(10,3,4,5)            45.3175         estimate D2E/DX2                !
 ! D12   D(10,3,4,9)          -134.0837         estimate D2E/DX2                !
 ! D13   D(11,3,4,5)           162.2884         estimate D2E/DX2                !
 ! D14   D(11,3,4,9)           -17.1129         estimate D2E/DX2                !
 ! D15   D(2,3,10,18)          177.0673         estimate D2E/DX2                !
 ! D16   D(2,3,10,19)           56.7155         estimate D2E/DX2                !
 ! D17   D(2,3,10,20)          -63.2703         estimate D2E/DX2                !
 ! D18   D(4,3,10,18)           57.1192         estimate D2E/DX2                !
 ! D19   D(4,3,10,19)          -63.2327         estimate D2E/DX2                !
 ! D20   D(4,3,10,20)          176.7815         estimate D2E/DX2                !
 ! D21   D(11,3,10,18)         -64.434          estimate D2E/DX2                !
 ! D22   D(11,3,10,19)         175.2141         estimate D2E/DX2                !
 ! D23   D(11,3,10,20)          55.2283         estimate D2E/DX2                !
 ! D24   D(2,3,11,21)          -55.321          estimate D2E/DX2                !
 ! D25   D(2,3,11,22)           63.6743         estimate D2E/DX2                !
 ! D26   D(2,3,11,23)         -176.3454         estimate D2E/DX2                !
 ! D27   D(4,3,11,21)           65.6027         estimate D2E/DX2                !
 ! D28   D(4,3,11,22)         -175.402          estimate D2E/DX2                !
 ! D29   D(4,3,11,23)          -55.4218         estimate D2E/DX2                !
 ! D30   D(10,3,11,21)        -174.1888         estimate D2E/DX2                !
 ! D31   D(10,3,11,22)         -55.1936         estimate D2E/DX2                !
 ! D32   D(10,3,11,23)          64.7867         estimate D2E/DX2                !
 ! D33   D(3,4,5,6)           -179.3321         estimate D2E/DX2                !
 ! D34   D(3,4,5,13)             1.6895         estimate D2E/DX2                !
 ! D35   D(9,4,5,6)              0.09           estimate D2E/DX2                !
 ! D36   D(9,4,5,13)          -178.8883         estimate D2E/DX2                !
 ! D37   D(3,4,9,8)            179.3018         estimate D2E/DX2                !
 ! D38   D(3,4,9,17)            -1.0853         estimate D2E/DX2                !
 ! D39   D(5,4,9,8)             -0.1121         estimate D2E/DX2                !
 ! D40   D(5,4,9,17)           179.5008         estimate D2E/DX2                !
 ! D41   D(4,5,6,7)              0.0512         estimate D2E/DX2                !
 ! D42   D(4,5,6,14)          -179.7343         estimate D2E/DX2                !
 ! D43   D(13,5,6,7)           179.0532         estimate D2E/DX2                !
 ! D44   D(13,5,6,14)           -0.7323         estimate D2E/DX2                !
 ! D45   D(5,6,7,8)             -0.174          estimate D2E/DX2                !
 ! D46   D(5,6,7,15)          -179.9211         estimate D2E/DX2                !
 ! D47   D(14,6,7,8)           179.6112         estimate D2E/DX2                !
 ! D48   D(14,6,7,15)           -0.1359         estimate D2E/DX2                !
 ! D49   D(6,7,8,9)              0.1523         estimate D2E/DX2                !
 ! D50   D(6,7,8,16)          -179.728          estimate D2E/DX2                !
 ! D51   D(15,7,8,9)           179.8994         estimate D2E/DX2                !
 ! D52   D(15,7,8,16)            0.0191         estimate D2E/DX2                !
 ! D53   D(7,8,9,4)             -0.0071         estimate D2E/DX2                !
 ! D54   D(7,8,9,17)          -179.6347         estimate D2E/DX2                !
 ! D55   D(16,8,9,4)           179.8733         estimate D2E/DX2                !
 ! D56   D(16,8,9,17)            0.2458         estimate D2E/DX2                !
 --------------------------------------------------------------------------------
 Trust Radius=3.00D-01 FncErr=1.00D-07 GrdErr=1.00D-06 EigMax=2.50D+02 EigMin=1.00D-04
 Number of steps in this run=    130 maximum allowed number of steps=    144.
 GradGradGradGradGradGradGradGradGradGradGradGradGradGradGradGradGradGrad

                          Input orientation:                          
 ---------------------------------------------------------------------
 Center     Atomic      Atomic             Coordinates (Angstroms)
 Number     Number       Type             X           Y           Z
 ---------------------------------------------------------------------
      1          8           0       -2.568200   -1.243000    1.243000
      2          6           0       -1.880100   -0.247000    1.046800
      3          6           0       -1.113800    0.050700   -0.279200
      4          6           0        0.405600   -0.175800   -0.029600
      5          6           0        1.155700    0.774300    0.684500
      6          6           0        2.518500    0.595400    0.905600
      7          6           0        3.153300   -0.539900    0.413000
      8          6           0        2.433600   -1.496900   -0.294800
      9          6           0        1.070400   -1.315600   -0.514100
     10          6           0       -1.378100    1.516000   -0.746000
     11          6           0       -1.671200   -0.845800   -1.429500
     12          8           0       -1.717700    0.702000    2.000900
     13          1           0        0.683500    1.655800    1.090300
     14          1           0        3.078700    1.334000    1.460400
     15          1           0        4.210700   -0.681300    0.584600
     16          1           0        2.929500   -2.379500   -0.672000
     17          1           0        0.546600   -2.082700   -1.061800
     18          1           0       -0.806000    1.751100   -1.644700
     19          1           0       -1.112700    2.263600    0.001400
     20          1           0       -2.430500    1.682600   -0.981500
     21          1           0       -1.639500   -1.908200   -1.182300
     22          1           0       -2.716400   -0.620300   -1.648400
     23          1           0       -1.111700   -0.706200   -2.355500
     24          1           0       -2.215600    0.362100    2.744400
 ---------------------------------------------------------------------
                    Distance matrix (angstroms):
                    1          2          3          4          5
     1  O    0.000000
     2  C    1.226374   0.000000
     3  C    2.471039   1.560166   0.000000
     4  C    3.406158   2.527475   1.556335   0.000000
     5  C    4.271868   3.223414   2.569620   1.405446   0.000000
     6  C    5.419232   4.480765   3.859281   2.435918   1.392162
     7  C    5.823986   5.081595   4.363037   2.806834   2.406499
     8  C    5.239017   4.687232   3.870317   2.434835   2.783955
     9  C    4.041297   3.504820   2.587022   1.405647   2.410726
    10  C    3.603407   2.564041   1.560404   2.560664   3.002764
    11  C    2.846864   2.556220   1.561281   2.592628   3.883952
    12  O    2.254060   1.355464   2.446986   3.066246   3.161418
    13  H    4.358889   3.192896   2.771672   2.164755   1.079207
    14  H    6.210932   5.221142   4.717004   3.412486   2.147839
    15  H    6.833921   6.123732   5.443553   3.887359   3.385525
    16  H    5.931573   5.534806   4.733755   3.411604   3.864313
    17  H    3.964742   3.702008   2.814389   2.172921   3.403383
    18  H    4.517609   3.519981   2.202428   2.790962   3.198058
    19  H    3.994533   2.825752   2.230620   2.873477   2.798264
    20  H    3.677839   2.853121   2.211339   3.521822   4.057265
    21  H    2.680868   2.790405   2.220189   2.917595   4.300452
    22  H    2.961404   2.846551   2.212075   3.544711   4.730802
    23  H    3.919024   3.518089   2.209960   2.827249   4.071189
    24  H    2.225955   1.834505   3.233124   3.854232   3.972249
                    6          7          8          9         10
     6  C    0.000000
     7  C    1.390875   0.000000
     8  C    2.413688   1.390970   0.000000
     9  C    2.786479   2.408256   1.392579   0.000000
    10  C    4.331141   5.109167   4.879570   3.750585   0.000000
    11  C    5.008327   5.173411   4.308231   2.928317   2.476122
    12  O    4.376807   5.271658   5.228641   4.262562   2.885028
    13  H    2.127390   3.373388   3.862754   3.398972   2.764369
    14  H    1.080350   2.148049   3.392768   3.866820   4.976383
    15  H    2.143955   1.080525   2.143976   3.386881   6.150879
    16  H    3.392311   2.147426   1.080361   2.147805   5.808254
    17  H    3.864100   3.368999   2.119486   1.078325   4.093268
    18  H    4.346490   5.015862   4.781918   3.768791   1.090978
    19  H    4.097082   5.121307   5.177387   4.224019   1.089931
    20  H    5.407009   6.169519   5.851517   4.632922   1.091220
    21  H    5.283588   5.233370   4.188910   2.853283   3.461767
    22  H    5.950212   6.221673   5.396588   4.013718   2.677527
    23  H    5.050474   5.087482   4.176224   2.919535   2.756743
    24  H    5.084026   5.922341   5.857276   4.922428   3.770382
                   11         12         13         14         15
    11  C    0.000000
    12  O    3.763707   0.000000
    13  H    4.260517   2.739469   0.000000
    14  H    5.971985   4.867958   2.444895   0.000000
    15  H    6.219357   6.250228   4.261327   2.471818   0.000000
    16  H    4.908409   6.183567   4.943062   4.284796   2.470708
    17  H    2.565884   4.718235   4.315861   4.944377   4.254431
    18  H    2.745682   3.901565   3.115753   4.990642   6.004467
    19  H    3.468107   2.608183   2.186655   4.534388   6.111558
    20  H    2.677694   3.219374   3.740330   6.036198   7.221235
    21  H    1.091241   4.117283   4.823187   6.305326   6.233142
    22  H    1.091426   4.007901   4.923457   6.860547   7.278374
    23  H    1.090873   4.618277   4.547013   6.023534   6.080522
    24  H    4.379136   0.957198   3.579733   5.533792   6.859355
                   16         17         18         19         20
    16  H    0.000000
    17  H    2.432745   0.000000
    18  H    5.653491   4.106984   0.000000
    19  H    6.192837   4.772211   1.751104   0.000000
    20  H    6.732462   4.800735   1.755997   1.743631   0.000000
    21  H    4.621503   2.196361   3.781404   4.368361   3.682370
    22  H    5.993691   3.623518   3.045190   3.689251   2.414507
    23  H    4.686726   2.513637   2.576240   3.791397   3.055074
    24  H    6.757234   5.300373   4.814612   3.515130   3.958817
                   21         22         23         24
    21  H    0.000000
    22  H    1.742311   0.000000
    23  H    1.760618   1.755685   0.000000
    24  H    4.572212   4.529084   5.326241   0.000000
 Stoichiometry    C10H12O2
 Framework group  C1[X(C10H12O2)]
 Deg. of freedom    66
 Full point group                 C1      NOp   1
 Largest Abelian subgroup         C1      NOp   1
 Largest concise Abelian subgroup C1      NOp   1
                         Standard orientation:                         
 ---------------------------------------------------------------------
 Center     Atomic      Atomic             Coordinates (Angstroms)
 Number     Number       Type             X           Y           Z
 ---------------------------------------------------------------------
      1          8           0       -2.427827    0.194907   -1.571948
      2          6           0       -1.826279   -0.372815   -0.666507
      3          6           0       -1.024937    0.356862    0.455785
      4          6           0        0.494373    0.165483    0.177850
      5          6           0        1.115828   -1.064428    0.454239
      6          6           0        2.476433   -1.249756    0.225063
      7          6           0        3.238125   -0.203570   -0.284695
      8          6           0        2.647222    1.023067   -0.569287
      9          6           0        1.285905    1.205519   -0.339496
     10          6           0       -1.400398   -0.217649    1.857152
     11          6           0       -1.437710    1.861504    0.512938
     12          8           0       -1.801252   -1.724617   -0.570140
     13          1           0        0.543809   -1.896358    0.835520
     14          1           0        2.936772   -2.203355    0.439293
     15          1           0        4.294060   -0.345719   -0.464499
     16          1           0        3.241465    1.831815   -0.969264
     17          1           0        0.864053    2.168687   -0.578522
     18          1           0       -0.807943    0.250001    2.644891
     19          1           0       -1.243776   -1.293008    1.940946
     20          1           0       -2.450474   -0.044228    2.098038
     21          1           0       -1.319904    2.362644   -0.449240
     22          1           0       -2.486942    1.983420    0.787635
     23          1           0       -0.847526    2.413045    1.246075
     24          1           0       -2.302334   -2.014563   -1.332424
 ---------------------------------------------------------------------
 Rotational constants (GHZ):           1.5659050           0.6666468           0.6128509
 Standard basis: 6-31G(d,p) (6D, 7F)
 There are   240 symmetry adapted cartesian basis functions of A   symmetry.
 There are   240 symmetry adapted basis functions of A   symmetry.
   240 basis functions,   420 primitive gaussians,   240 cartesian basis functions
    44 alpha electrons       44 beta electrons
       nuclear repulsion energy       692.4318822425 Hartrees.
 NAtoms=   24 NActive=   24 NUniq=   24 SFac= 1.00D+00 NAtFMM=   60 NAOKFM=F Big=F
 Integral buffers will be    131072 words long.
 Raffenetti 2 integral format.
 Two-electron integral symmetry is turned on.
 Nuclear repulsion after empirical dispersion term =      692.3857412544 Hartrees.
 One-electron integrals computed using PRISM.
 NBasis=   240 RedAO= T EigKep=  4.54D-04  NBF=   240
 NBsUse=   240 1.00D-06 EigRej= -1.00D+00 NBFU=   240
 ExpMin= 1.61D-01 ExpMax= 5.48D+03 ExpMxC= 8.25D+02 IAcc=3 IRadAn=         5 AccDes= 0.00D+00
 Harris functional with IExCor=  402 and IRadAn=       5 diagonalized for initial guess.
 HarFok:  IExCor=  402 AccDes= 0.00D+00 IRadAn=         5 IDoV= 1 UseB2=F ITyADJ=14
 ICtDFT=  3500011 ScaDFX=  1.000000  1.000000  1.000000  1.000000
 FoFCou: FMM=F IPFlag=           0 FMFlag=      100000 FMFlg1=           0
         NFxFlg=           0 DoJE=T BraDBF=F KetDBF=T FulRan=T
         wScrn=  0.000000 ICntrl=       500 IOpCl=  0 I1Cent=   200000004 NGrid=           0
         NMat0=    1 NMatS0=      1 NMatT0=    0 NMatD0=    1 NMtDS0=    0 NMtDT0=    0
 Petite list used in FoFCou.
 Requested convergence on RMS density matrix=1.00D-08 within 128 cycles.
 Requested convergence on MAX density matrix=1.00D-06.
 Requested convergence on             energy=1.00D-06.
 No special actions if energy rises.
 Integral accuracy reduced to 1.0D-05 until final iterations.
 Initial convergence to 1.0D-05 achieved.  Increase integral accuracy.
 SCF Done:  E(RB3LYP) =  -538.817540432     A.U. after   15 cycles
            NFock= 15  Conv=0.32D-08     -V/T= 2.0097

 **********************************************************************

            Population analysis using the SCF Density.

 **********************************************************************

 Orbital symmetries:
       Occupied  (A) (A) (A) (A) (A) (A) (A) (A) (A) (A) (A) (A)
                 (A) (A) (A) (A) (A) (A) (A) (A) (A) (A) (A) (A)
                 (A) (A) (A) (A) (A) (A) (A) (A) (A) (A) (A) (A)
                 (A) (A) (A) (A) (A) (A) (A) (A)
       Virtual   (A) (A) (A) (A) (A) (A) (A) (A) (A) (A) (A) (A)
                 (A) (A) (A) (A) (A) (A) (A) (A) (A) (A) (A) (A)
                 (A) (A) (A) (A) (A) (A) (A) (A) (A) (A) (A) (A)
                 (A) (A) (A) (A) (A) (A) (A) (A) (A) (A) (A) (A)
                 (A) (A) (A) (A) (A) (A) (A) (A) (A) (A) (A) (A)
                 (A) (A) (A) (A) (A) (A) (A) (A) (A) (A) (A) (A)
                 (A) (A) (A) (A) (A) (A) (A) (A) (A) (A) (A) (A)
                 (A) (A) (A) (A) (A) (A) (A) (A) (A) (A) (A) (A)
                 (A) (A) (A) (A) (A) (A) (A) (A) (A) (A) (A) (A)
                 (A) (A) (A) (A) (A) (A) (A) (A) (A) (A) (A) (A)
                 (A) (A) (A) (A) (A) (A) (A) (A) (A) (A) (A) (A)
                 (A) (A) (A) (A) (A) (A) (A) (A) (A) (A) (A) (A)
                 (A) (A) (A) (A) (A) (A) (A) (A) (A) (A) (A) (A)
                 (A) (A) (A) (A) (A) (A) (A) (A) (A) (A) (A) (A)
                 (A) (A) (A) (A) (A) (A) (A) (A) (A) (A) (A) (A)
                 (A) (A) (A) (A) (A) (A) (A) (A) (A) (A) (A) (A)
                 (A) (A) (A) (A)
 The electronic state is 1-A.
 Alpha  occ. eigenvalues --  -19.20009 -19.13942 -10.32286 -10.22703 -10.20358
 Alpha  occ. eigenvalues --  -10.18900 -10.18863 -10.18826 -10.18780 -10.18728
 Alpha  occ. eigenvalues --  -10.18323 -10.17855  -1.10798  -1.00955  -0.85899
 Alpha  occ. eigenvalues --   -0.81058  -0.74576  -0.73249  -0.68826  -0.66192
 Alpha  occ. eigenvalues --   -0.60935  -0.60057  -0.56097  -0.52002  -0.48743
 Alpha  occ. eigenvalues --   -0.48009  -0.45832  -0.45144  -0.44488  -0.42672
 Alpha  occ. eigenvalues --   -0.42192  -0.41381  -0.39202  -0.38276  -0.37344
 Alpha  occ. eigenvalues --   -0.36973  -0.35856  -0.35269  -0.33339  -0.32582
 Alpha  occ. eigenvalues --   -0.31590  -0.27641  -0.25034  -0.24193
 Alpha virt. eigenvalues --   -0.01441  -0.00069   0.02019   0.07820   0.09383
 Alpha virt. eigenvalues --    0.11435   0.13416   0.13881   0.14125   0.14978
 Alpha virt. eigenvalues --    0.15826   0.17390   0.18148   0.19337   0.19737
 Alpha virt. eigenvalues --    0.21255   0.22069   0.23089   0.24903   0.25991
 Alpha virt. eigenvalues --    0.30805   0.30880   0.33438   0.33844   0.35023
 Alpha virt. eigenvalues --    0.35861   0.45844   0.49493   0.50342   0.51954
 Alpha virt. eigenvalues --    0.53262   0.54681   0.54921   0.55303   0.57234
 Alpha virt. eigenvalues --    0.58474   0.59458   0.59557   0.60601   0.61221
 Alpha virt. eigenvalues --    0.62230   0.63723   0.64898   0.66962   0.67670
 Alpha virt. eigenvalues --    0.68530   0.71596   0.73297   0.74754   0.76789
 Alpha virt. eigenvalues --    0.78631   0.79895   0.80710   0.82080   0.82614
 Alpha virt. eigenvalues --    0.83200   0.84836   0.86575   0.88474   0.88903
 Alpha virt. eigenvalues --    0.89596   0.90656   0.92199   0.92728   0.93828
 Alpha virt. eigenvalues --    0.95749   0.96052   0.96947   0.99548   1.01052
 Alpha virt. eigenvalues --    1.03199   1.05138   1.06855   1.09128   1.11829
 Alpha virt. eigenvalues --    1.13688   1.16009   1.17312   1.20192   1.23703
 Alpha virt. eigenvalues --    1.25961   1.31528   1.32520   1.34057   1.36674
 Alpha virt. eigenvalues --    1.40473   1.41597   1.42241   1.42744   1.45951
 Alpha virt. eigenvalues --    1.47074   1.50062   1.53818   1.56499   1.59253
 Alpha virt. eigenvalues --    1.61711   1.68539   1.72340   1.73515   1.77587
 Alpha virt. eigenvalues --    1.79305   1.80202   1.82022   1.82999   1.83602
 Alpha virt. eigenvalues --    1.84366   1.86479   1.87783   1.88997   1.93146
 Alpha virt. eigenvalues --    1.94691   1.95473   1.97525   1.97822   1.98589
 Alpha virt. eigenvalues --    1.99506   2.01637   2.04169   2.05899   2.07004
 Alpha virt. eigenvalues --    2.08372   2.10935   2.11701   2.13626   2.15200
 Alpha virt. eigenvalues --    2.16162   2.18032   2.19895   2.23640   2.29012
 Alpha virt. eigenvalues --    2.29787   2.31264   2.32663   2.35101   2.37176
 Alpha virt. eigenvalues --    2.38303   2.38816   2.42125   2.42876   2.45480
 Alpha virt. eigenvalues --    2.46067   2.48463   2.49411   2.52003   2.54343
 Alpha virt. eigenvalues --    2.54664   2.55551   2.57021   2.58460   2.58769
 Alpha virt. eigenvalues --    2.60743   2.65391   2.67205   2.69427   2.72270
 Alpha virt. eigenvalues --    2.74797   2.76469   2.77547   2.79321   2.81320
 Alpha virt. eigenvalues --    2.84009   2.86960   2.88349   2.90963   2.92091
 Alpha virt. eigenvalues --    2.97653   3.00637   3.03499   3.07501   3.14319
 Alpha virt. eigenvalues --    3.19883   3.21720   3.24436   3.25401   3.27209
 Alpha virt. eigenvalues --    3.36786   3.43437   3.43906   3.44417   3.45717
 Alpha virt. eigenvalues --    3.50416   3.51263   3.52329   3.89960   3.97360
 Alpha virt. eigenvalues --    4.12540   4.15057   4.17106   4.23088   4.36309
 Alpha virt. eigenvalues --    4.44870   4.48637   4.51754   4.55837   4.70618
 Alpha virt. eigenvalues --    4.85905
          Condensed to atoms (all electrons):
               1          2          3          4          5          6
     1  O    8.049335   0.564052  -0.075146  -0.001213  -0.000045   0.000002
     2  C    0.564052   4.404746   0.312469  -0.031398  -0.005838   0.000038
     3  C   -0.075146   0.312469   5.173447   0.343256  -0.060019   0.005350
     4  C   -0.001213  -0.031398   0.343256   4.763956   0.527032  -0.023656
     5  C   -0.000045  -0.005838  -0.060019   0.527032   4.906598   0.520617
     6  C    0.000002   0.000038   0.005350  -0.023656   0.520617   4.823058
     7  C   -0.000000   0.000012   0.000253  -0.036767  -0.037794   0.548623
     8  C    0.000000  -0.000062   0.006624  -0.025812  -0.045274  -0.031082
     9  C    0.000203  -0.000648  -0.053132   0.552581  -0.044768  -0.043716
    10  C    0.001442  -0.038482   0.344398  -0.045503  -0.006624   0.000345
    11  C    0.001156  -0.042002   0.360273  -0.038728   0.004869  -0.000126
    12  O   -0.085522   0.255832  -0.092093  -0.001496   0.001453  -0.000052
    13  H    0.000017   0.000179  -0.009308  -0.044264   0.370129  -0.041950
    14  H    0.000000  -0.000003  -0.000167   0.003763  -0.038055   0.367510
    15  H   -0.000000   0.000000   0.000010   0.000859   0.004974  -0.042632
    16  H    0.000000   0.000000  -0.000175   0.004075   0.000847   0.004642
    17  H   -0.000110   0.000021  -0.013801  -0.040844   0.005869   0.000395
    18  H   -0.000060   0.003433  -0.027460  -0.003251   0.000440  -0.000114
    19  H   -0.000001  -0.006263  -0.021847  -0.007255   0.002493   0.000117
    20  H    0.000160  -0.001557  -0.029865   0.004616   0.000209  -0.000002
    21  H    0.006339  -0.004726  -0.021947  -0.005587  -0.000174   0.000003
    22  H    0.001273  -0.003848  -0.024266   0.003841  -0.000099   0.000002
    23  H    0.000393   0.004701  -0.026551  -0.004229  -0.000019  -0.000005
    24  H    0.012548  -0.011589   0.010490  -0.000115  -0.000209  -0.000007
               7          8          9         10         11         12
     1  O   -0.000000   0.000000   0.000203   0.001442   0.001156  -0.085522
     2  C    0.000012  -0.000062  -0.000648  -0.038482  -0.042002   0.255832
     3  C    0.000253   0.006624  -0.053132   0.344398   0.360273  -0.092093
     4  C   -0.036767  -0.025812   0.552581  -0.045503  -0.038728  -0.001496
     5  C   -0.037794  -0.045274  -0.044768  -0.006624   0.004869   0.001453
     6  C    0.548623  -0.031082  -0.043716   0.000345  -0.000126  -0.000052
     7  C    4.800858   0.550524  -0.037029  -0.000005  -0.000007   0.000004
     8  C    0.550524   4.832599   0.517105  -0.000126   0.000147  -0.000001
     9  C   -0.037029   0.517105   4.882410   0.002381  -0.008704   0.000026
    10  C   -0.000005  -0.000126   0.002381   4.987908  -0.062760   0.002591
    11  C   -0.000007   0.000147  -0.008704  -0.062760   4.964898   0.002570
    12  O    0.000004  -0.000001   0.000026   0.002591   0.002570   8.115019
    13  H    0.005176   0.000409   0.005506   0.000516   0.000077   0.003703
    14  H   -0.042114   0.004724   0.000813   0.000004   0.000002  -0.000001
    15  H    0.367893  -0.042424   0.004991  -0.000000  -0.000000   0.000000
    16  H   -0.042419   0.366928  -0.037342   0.000002   0.000008   0.000000
    17  H    0.005321  -0.045561   0.368583   0.000148   0.006397  -0.000005
    18  H   -0.000010  -0.000018   0.000515   0.379091  -0.004082   0.000100
    19  H   -0.000004   0.000008  -0.000233   0.374297   0.005228   0.003749
    20  H    0.000000   0.000001  -0.000059   0.375204  -0.006391  -0.000063
    21  H   -0.000004   0.000156   0.000692   0.005444   0.372991   0.000099
    22  H    0.000000  -0.000007   0.000359  -0.006335   0.377265  -0.000004
    23  H   -0.000006  -0.000055   0.001223  -0.004319   0.373790  -0.000034
    24  H    0.000001  -0.000001  -0.000010  -0.000420  -0.000284   0.270960
              13         14         15         16         17         18
     1  O    0.000017   0.000000  -0.000000   0.000000  -0.000110  -0.000060
     2  C    0.000179  -0.000003   0.000000   0.000000   0.000021   0.003433
     3  C   -0.009308  -0.000167   0.000010  -0.000175  -0.013801  -0.027460
     4  C   -0.044264   0.003763   0.000859   0.004075  -0.040844  -0.003251
     5  C    0.370129  -0.038055   0.004974   0.000847   0.005869   0.000440
     6  C   -0.041950   0.367510  -0.042632   0.004642   0.000395  -0.000114
     7  C    0.005176  -0.042114   0.367893  -0.042419   0.005321  -0.000010
     8  C    0.000409   0.004724  -0.042424   0.366928  -0.045561  -0.000018
     9  C    0.005506   0.000813   0.004991  -0.037342   0.368583   0.000515
    10  C    0.000516   0.000004  -0.000000   0.000002   0.000148   0.379091
    11  C    0.000077   0.000002  -0.000000   0.000008   0.006397  -0.004082
    12  O    0.003703  -0.000001   0.000000   0.000000  -0.000005   0.000100
    13  H    0.621151  -0.006373  -0.000206   0.000017  -0.000157   0.000196
    14  H   -0.006373   0.630007  -0.006382  -0.000200   0.000017   0.000001
    15  H   -0.000206  -0.006382   0.636704  -0.006391  -0.000212  -0.000000
    16  H    0.000017  -0.000200  -0.006391   0.629782  -0.006635   0.000000
    17  H   -0.000157   0.000017  -0.000212  -0.006635   0.631834  -0.000001
    18  H    0.000196   0.000001  -0.000000   0.000000  -0.000001   0.594119
    19  H    0.001768   0.000005  -0.000000   0.000000  -0.000005  -0.029779
    20  H   -0.000099  -0.000000  -0.000000  -0.000000  -0.000005  -0.031298
    21  H   -0.000000   0.000000   0.000000   0.000003   0.001993  -0.000014
    22  H   -0.000005  -0.000000  -0.000000  -0.000000  -0.000118  -0.000177
    23  H   -0.000006   0.000000  -0.000000   0.000001   0.000308   0.002378
    24  H    0.000089   0.000000  -0.000000   0.000000   0.000001   0.000015
              19         20         21         22         23         24
     1  O   -0.000001   0.000160   0.006339   0.001273   0.000393   0.012548
     2  C   -0.006263  -0.001557  -0.004726  -0.003848   0.004701  -0.011589
     3  C   -0.021847  -0.029865  -0.021947  -0.024266  -0.026551   0.010490
     4  C   -0.007255   0.004616  -0.005587   0.003841  -0.004229  -0.000115
     5  C    0.002493   0.000209  -0.000174  -0.000099  -0.000019  -0.000209
     6  C    0.000117  -0.000002   0.000003   0.000002  -0.000005  -0.000007
     7  C   -0.000004   0.000000  -0.000004   0.000000  -0.000006   0.000001
     8  C    0.000008   0.000001   0.000156  -0.000007  -0.000055  -0.000001
     9  C   -0.000233  -0.000059   0.000692   0.000359   0.001223  -0.000010
    10  C    0.374297   0.375204   0.005444  -0.006335  -0.004319  -0.000420
    11  C    0.005228  -0.006391   0.372991   0.377265   0.373790  -0.000284
    12  O    0.003749  -0.000063   0.000099  -0.000004  -0.000034   0.270960
    13  H    0.001768  -0.000099  -0.000000  -0.000005  -0.000006   0.000089
    14  H    0.000005  -0.000000   0.000000  -0.000000   0.000000   0.000000
    15  H   -0.000000  -0.000000   0.000000  -0.000000  -0.000000  -0.000000
    16  H    0.000000  -0.000000   0.000003  -0.000000   0.000001   0.000000
    17  H   -0.000005  -0.000005   0.001993  -0.000118   0.000308   0.000001
    18  H   -0.029779  -0.031298  -0.000014  -0.000177   0.002378   0.000015
    19  H    0.590445  -0.031026  -0.000203   0.000070  -0.000011  -0.000104
    20  H   -0.031026   0.608613   0.000041   0.004391  -0.000021  -0.000065
    21  H   -0.000203   0.000041   0.582956  -0.029173  -0.032971  -0.000014
    22  H    0.000070   0.004391  -0.029173   0.600268  -0.031975  -0.000007
    23  H   -0.000011  -0.000021  -0.032971  -0.031975   0.610795   0.000003
    24  H   -0.000104  -0.000065  -0.000014  -0.000007   0.000003   0.397653
 Mulliken charges:
               1
     1  O   -0.474823
     2  C    0.600933
     3  C   -0.100793
     4  C    0.106138
     5  C   -0.106612
     6  C   -0.087357
     7  C   -0.082506
     8  C   -0.088801
     9  C   -0.111746
    10  C   -0.309199
    11  C   -0.306583
    12  O   -0.476834
    13  H    0.093434
    14  H    0.086450
    15  H    0.082817
    16  H    0.086856
    17  H    0.086564
    18  H    0.115977
    19  H    0.118552
    20  H    0.107215
    21  H    0.124098
    22  H    0.108545
    23  H    0.106611
    24  H    0.321065
 Sum of Mulliken charges =  -0.00000
 Mulliken charges with hydrogens summed into heavy atoms:
               1
     1  O   -0.474823
     2  C    0.600933
     3  C   -0.100793
     4  C    0.106138
     5  C   -0.013178
     6  C   -0.000907
     7  C    0.000311
     8  C   -0.001946
     9  C   -0.025182
    10  C    0.032545
    11  C    0.032670
    12  O   -0.155769
 Electronic spatial extent (au):  <R**2>=           2068.2277
 Charge=             -0.0000 electrons
 Dipole moment (field-independent basis, Debye):
    X=              0.7626    Y=             -0.8369    Z=              1.0786  Tot=              1.5637
 Quadrupole moment (field-independent basis, Debye-Ang):
   XX=            -68.4757   YY=            -64.9711   ZZ=            -72.9528
   XY=              3.3772   XZ=             -4.0529   YZ=              2.1654
 Traceless Quadrupole moment (field-independent basis, Debye-Ang):
   XX=              0.3242   YY=              3.8288   ZZ=             -4.1529
   XY=              3.3772   XZ=             -4.0529   YZ=              2.1654
 Octapole moment (field-independent basis, Debye-Ang**2):
  XXX=              2.4077  YYY=            -10.6674  ZZZ=             -3.4123  XYY=             -7.5513
  XXY=            -15.7065  XXZ=             -0.4871  XZZ=             -6.9856  YZZ=             -8.5319
  YYZ=             -9.5177  XYZ=            -14.4942
 Hexadecapole moment (field-independent basis, Debye-Ang**3):
 XXXX=          -1611.3597 YYYY=           -570.5349 ZZZZ=           -421.6436 XXXY=             37.7784
 XXXZ=            -24.8434 YYYX=             26.2640 YYYZ=              8.6127 ZZZX=             11.6419
 ZZZY=             17.2368 XXYY=           -343.9706 XXZZ=           -373.6390 YYZZ=           -154.9818
 XXYZ=             18.1433 YYXZ=             22.8895 ZZXY=             24.4828
 N-N= 6.923857412544D+02 E-N=-2.638184812608D+03  KE= 5.336451451080D+02
 Calling FoFJK, ICntrl=      2127 FMM=F ISym2X=0 I1Cent= 0 IOpClX= 0 NMat=1 NMatS=1 NMatT=0.
 ***** Axes restored to original set *****
 -------------------------------------------------------------------
 Center     Atomic                   Forces (Hartrees/Bohr)
 Number     Number              X              Y              Z
 -------------------------------------------------------------------
      1        8           0.013902464    0.019555082   -0.003483971
      2        6          -0.007399523   -0.018514498   -0.011814886
      3        6          -0.003925295    0.004589914   -0.010429329
      4        6          -0.005805725    0.000215377   -0.001996259
      5        6          -0.000838894   -0.002886207   -0.000343999
      6        6          -0.003998122   -0.003516038   -0.002665341
      7        6           0.004474206   -0.001367425    0.000306605
      8        6          -0.001692974    0.005211615    0.002516143
      9        6          -0.001754463    0.003077302    0.002736456
     10        6           0.002206447    0.003409660    0.008160864
     11        6           0.001701673   -0.006571234    0.010826805
     12        8           0.007751629    0.001422810   -0.016484966
     13        1          -0.003563925    0.001812698    0.000425751
     14        1           0.001511900    0.002757371    0.001736665
     15        1           0.004023387   -0.000506282    0.000559257
     16        1           0.001198681   -0.003004643   -0.001497300
     17        1          -0.004733893   -0.000595875   -0.001706286
     18        1           0.002258915   -0.003910273   -0.001467215
     19        1           0.001398822   -0.001146872    0.002789839
     20        1          -0.002870980   -0.003675466    0.000439241
     21        1           0.000675131   -0.000248578    0.002447259
     22        1          -0.000850797    0.003321679    0.003530864
     23        1           0.003678342    0.003569991    0.001144295
     24        1          -0.007347007   -0.003000108    0.014269507
 -------------------------------------------------------------------
 Cartesian Forces:  Max     0.019555082 RMS     0.005864017

 GradGradGradGradGradGradGradGradGradGradGradGradGradGradGradGradGradGrad
 Berny optimization.
 FormGI is forming the generalized inverse of G from B-inverse, IUseBI=4.
 Internal  Forces:  Max     0.024239544 RMS     0.004409117
 Search for a local minimum.
 Step number   1 out of a maximum of  130
 All quantities printed in internal units (Hartrees-Bohrs-Radians)
 Mixed Optimization -- RFO/linear search
 Second derivative matrix not updated -- first step.
 ITU=  0
     Eigenvalues ---    0.00230   0.00230   0.00230   0.00230   0.00718
     Eigenvalues ---    0.01290   0.02038   0.02092   0.02108   0.02158
     Eigenvalues ---    0.02197   0.02200   0.02204   0.02209   0.02281
     Eigenvalues ---    0.05127   0.05165   0.05210   0.05302   0.05326
     Eigenvalues ---    0.05561   0.05615   0.14839   0.15998   0.16000
     Eigenvalues ---    0.16000   0.16000   0.16000   0.16000   0.16000
     Eigenvalues ---    0.16000   0.16000   0.16000   0.16000   0.16000
     Eigenvalues ---    0.16225   0.22000   0.22000   0.23465   0.24999
     Eigenvalues ---    0.25000   0.25000   0.26714   0.26785   0.26805
     Eigenvalues ---    0.27120   0.34648   0.34670   0.34672   0.34700
     Eigenvalues ---    0.34712   0.34821   0.35931   0.35951   0.35952
     Eigenvalues ---    0.36090   0.36198   0.41654   0.41973   0.45295
     Eigenvalues ---    0.46210   0.46908   0.47113   0.53875   0.56080
     Eigenvalues ---    0.92614
 RFO step:  Lambda=-8.44801900D-03 EMin= 2.30000000D-03
 Linear search not attempted -- first point.
 Iteration  1 RMS(Cart)=  0.05121765 RMS(Int)=  0.00091580
 Iteration  2 RMS(Cart)=  0.00153978 RMS(Int)=  0.00024982
 Iteration  3 RMS(Cart)=  0.00000125 RMS(Int)=  0.00024982
 Iteration  4 RMS(Cart)=  0.00000000 RMS(Int)=  0.00024982
 Variable       Old X    -DE/DX   Delta X   Delta X   Delta X     New X
                                 (Linear)    (Quad)   (Total)
    R1        2.31751  -0.02424   0.00000  -0.02594  -0.02594   2.29157
    R2        2.94829  -0.01818   0.00000  -0.06574  -0.06574   2.88255
    R3        2.56145  -0.00262   0.00000  -0.00478  -0.00478   2.55668
    R4        2.94105  -0.01108   0.00000  -0.03961  -0.03961   2.90143
    R5        2.94874  -0.00847   0.00000  -0.03067  -0.03067   2.91807
    R6        2.95039  -0.01512   0.00000  -0.05488  -0.05488   2.89552
    R7        2.65591  -0.00383   0.00000  -0.00916  -0.00916   2.64675
    R8        2.65629  -0.00585   0.00000  -0.01361  -0.01361   2.64268
    R9        2.63080   0.00217   0.00000   0.00455   0.00455   2.63536
   R10        2.03941   0.00320   0.00000   0.00866   0.00866   2.04807
   R11        2.62837   0.00321   0.00000   0.00742   0.00741   2.63579
   R12        2.04157   0.00356   0.00000   0.00968   0.00968   2.05124
   R13        2.62855   0.00213   0.00000   0.00515   0.00515   2.63371
   R14        2.04190   0.00409   0.00000   0.01113   0.01113   2.05303
   R15        2.63159   0.00343   0.00000   0.00718   0.00718   2.63877
   R16        2.04159   0.00353   0.00000   0.00959   0.00959   2.05117
   R17        2.03774   0.00359   0.00000   0.00969   0.00969   2.04743
   R18        2.06165   0.00155   0.00000   0.00436   0.00436   2.06601
   R19        2.05967   0.00147   0.00000   0.00411   0.00411   2.06378
   R20        2.06211   0.00211   0.00000   0.00595   0.00595   2.06806
   R21        2.06215   0.00082   0.00000   0.00230   0.00230   2.06444
   R22        2.06250   0.00079   0.00000   0.00223   0.00223   2.06473
   R23        2.06145   0.00137   0.00000   0.00386   0.00386   2.06531
   R24        1.80884   0.01597   0.00000   0.02806   0.02806   1.83690
    A1        2.17308   0.00311   0.00000   0.01199   0.01189   2.18497
    A2        2.12143   0.00252   0.00000   0.00969   0.00958   2.13101
    A3        1.98865  -0.00563   0.00000  -0.02185  -0.02196   1.96669
    A4        1.89171   0.00161   0.00000  -0.01866  -0.01911   1.87260
    A5        1.92863  -0.00185   0.00000  -0.01340  -0.01266   1.91597
    A6        1.91906  -0.00433   0.00000  -0.03892  -0.03898   1.88008
    A7        1.92837  -0.00177   0.00000   0.00489   0.00406   1.93242
    A8        1.96398  -0.00118   0.00000  -0.00192  -0.00351   1.96047
    A9        1.83209   0.00748   0.00000   0.06924   0.06912   1.90121
   A10        2.09919  -0.00012   0.00000   0.00099   0.00085   2.10004
   A11        2.12287  -0.00180   0.00000  -0.00552  -0.00566   2.11722
   A12        2.06108   0.00192   0.00000   0.00480   0.00467   2.06575
   A13        2.11329  -0.00030   0.00000  -0.00271  -0.00271   2.11059
   A14        2.10563  -0.00233   0.00000  -0.01334  -0.01334   2.09230
   A15        2.06413   0.00263   0.00000   0.01606   0.01606   2.08019
   A16        2.08912   0.00167   0.00000   0.00902   0.00902   2.09814
   A17        2.09590  -0.00129   0.00000  -0.00720  -0.00720   2.08871
   A18        2.09816  -0.00038   0.00000  -0.00182  -0.00182   2.09634
   A19        2.10094  -0.00480   0.00000  -0.01782  -0.01782   2.08312
   A20        2.09117   0.00242   0.00000   0.00902   0.00902   2.10019
   A21        2.09106   0.00238   0.00000   0.00879   0.00879   2.09985
   A22        2.09100   0.00159   0.00000   0.00856   0.00856   2.09956
   A23        2.09698  -0.00028   0.00000  -0.00122  -0.00122   2.09576
   A24        2.09521  -0.00131   0.00000  -0.00734  -0.00734   2.08787
   A25        2.11094  -0.00009   0.00000  -0.00190  -0.00191   2.10903
   A26        2.12019  -0.00359   0.00000  -0.02060  -0.02061   2.09958
   A27        2.05203   0.00368   0.00000   0.02255   0.02254   2.07457
   A28        1.93903  -0.00473   0.00000  -0.02942  -0.02974   1.90929
   A29        1.97983  -0.00198   0.00000  -0.00976  -0.00985   1.96998
   A30        1.95119  -0.00423   0.00000  -0.02574  -0.02603   1.92516
   A31        1.86437   0.00389   0.00000   0.02429   0.02417   1.88854
   A32        1.87031   0.00431   0.00000   0.02182   0.02132   1.89163
   A33        1.85262   0.00376   0.00000   0.02471   0.02464   1.87726
   A34        1.96250  -0.00093   0.00000  -0.00342  -0.00346   1.95903
   A35        1.95091  -0.00527   0.00000  -0.03294  -0.03333   1.91758
   A36        1.94854  -0.00543   0.00000  -0.03268  -0.03304   1.91549
   A37        1.84876   0.00347   0.00000   0.02147   0.02141   1.87017
   A38        1.87757   0.00391   0.00000   0.02620   0.02618   1.90375
   A39        1.86971   0.00528   0.00000   0.02738   0.02668   1.89638
   A40        1.80885   0.00614   0.00000   0.03643   0.03643   1.84528
    D1       -1.86294   0.00056   0.00000   0.02689   0.02671  -1.83623
    D2        2.30486   0.00285   0.00000   0.04102   0.04110   2.34595
    D3        0.29048  -0.00262   0.00000  -0.01250  -0.01238   0.27810
    D4        1.27120   0.00014   0.00000   0.00035   0.00016   1.27137
    D5       -0.84418   0.00243   0.00000   0.01448   0.01455  -0.82963
    D6       -2.85856  -0.00303   0.00000  -0.03903  -0.03892  -2.89749
    D7        0.02533  -0.00008   0.00000  -0.00892  -0.00889   0.01644
    D8       -3.10906   0.00032   0.00000   0.01672   0.01670  -3.09236
    D9       -1.32461  -0.00024   0.00000   0.03499   0.03487  -1.28974
   D10        1.82744  -0.00092   0.00000   0.00382   0.00374   1.83118
   D11        0.79094  -0.00258   0.00000   0.00958   0.00984   0.80078
   D12       -2.34020  -0.00326   0.00000  -0.02159  -0.02129  -2.36149
   D13        2.83247   0.00487   0.00000   0.09831   0.09810   2.93056
   D14       -0.29868   0.00420   0.00000   0.06714   0.06697  -0.23170
   D15        3.09041   0.00085   0.00000   0.00805   0.00787   3.09827
   D16        0.98987   0.00065   0.00000   0.00485   0.00476   0.99463
   D17       -1.10428   0.00026   0.00000  -0.00155  -0.00150  -1.10577
   D18        0.99692   0.00118   0.00000   0.03684   0.03704   1.03396
   D19       -1.10362   0.00098   0.00000   0.03364   0.03393  -1.06969
   D20        3.08542   0.00059   0.00000   0.02725   0.02768   3.11310
   D21       -1.12459  -0.00095   0.00000  -0.00524  -0.00558  -1.13017
   D22        3.05806  -0.00115   0.00000  -0.00845  -0.00869   3.04937
   D23        0.96392  -0.00154   0.00000  -0.01484  -0.01495   0.94897
   D24       -0.96553   0.00064   0.00000   0.01994   0.01956  -0.94597
   D25        1.11133   0.00079   0.00000   0.02224   0.02171   1.13303
   D26       -3.07781   0.00016   0.00000   0.01200   0.01182  -3.06599
   D27        1.14498  -0.00114   0.00000  -0.03241  -0.03249   1.11249
   D28       -3.06134  -0.00099   0.00000  -0.03011  -0.03035  -3.09169
   D29       -0.96729  -0.00162   0.00000  -0.04035  -0.04023  -1.00752
   D30       -3.04017   0.00081   0.00000   0.01648   0.01690  -3.02327
   D31       -0.96331   0.00096   0.00000   0.01879   0.01904  -0.94426
   D32        1.13074   0.00033   0.00000   0.00854   0.00916   1.13990
   D33       -3.12994  -0.00026   0.00000  -0.01364  -0.01375   3.13950
   D34        0.02949  -0.00031   0.00000  -0.01524  -0.01530   0.01419
   D35        0.00157   0.00037   0.00000   0.01638   0.01641   0.01798
   D36       -3.12219   0.00032   0.00000   0.01478   0.01486  -3.10733
   D37        3.12941   0.00023   0.00000   0.01259   0.01259  -3.14119
   D38       -0.01894   0.00050   0.00000   0.02205   0.02194   0.00300
   D39       -0.00196  -0.00042   0.00000  -0.01790  -0.01792  -0.01988
   D40        3.13288  -0.00014   0.00000  -0.00844  -0.00857   3.12431
   D41        0.00089  -0.00010   0.00000  -0.00520  -0.00516  -0.00427
   D42       -3.13696  -0.00018   0.00000  -0.00728  -0.00724   3.13899
   D43        3.12507  -0.00010   0.00000  -0.00392  -0.00391   3.12116
   D44       -0.01278  -0.00018   0.00000  -0.00600  -0.00599  -0.01877
   D45       -0.00304  -0.00013   0.00000  -0.00490  -0.00486  -0.00790
   D46       -3.14022  -0.00009   0.00000  -0.00272  -0.00273   3.14024
   D47        3.13481  -0.00005   0.00000  -0.00283  -0.00279   3.13202
   D48       -0.00237  -0.00001   0.00000  -0.00065  -0.00065  -0.00302
   D49        0.00266   0.00008   0.00000   0.00338   0.00335   0.00601
   D50       -3.13685   0.00005   0.00000   0.00291   0.00284  -3.13401
   D51        3.13984   0.00004   0.00000   0.00120   0.00122   3.14105
   D52        0.00033   0.00001   0.00000   0.00073   0.00070   0.00104
   D53       -0.00012   0.00019   0.00000   0.00827   0.00823   0.00811
   D54       -3.13522  -0.00005   0.00000  -0.00068  -0.00083  -3.13604
   D55        3.13938   0.00022   0.00000   0.00874   0.00875  -3.13505
   D56        0.00429  -0.00001   0.00000  -0.00021  -0.00031   0.00398
         Item               Value     Threshold  Converged?
 Maximum Force            0.024240     0.000450     NO 
 RMS     Force            0.004409     0.000300     NO 
 Maximum Displacement     0.168893     0.001800     NO 
 RMS     Displacement     0.051633     0.001200     NO 
 Predicted change in Energy=-4.487738D-03
 GradGradGradGradGradGradGradGradGradGradGradGradGradGradGradGradGradGrad

                          Input orientation:                          
 ---------------------------------------------------------------------
 Center     Atomic      Atomic             Coordinates (Angstroms)
 Number     Number       Type             X           Y           Z
 ---------------------------------------------------------------------
      1          8           0       -2.495343   -1.234358    1.201178
      2          6           0       -1.841718   -0.236556    0.982816
      3          6           0       -1.107691    0.065893   -0.319684
      4          6           0        0.389450   -0.156881   -0.062171
      5          6           0        1.122034    0.766827    0.693979
      6          6           0        2.481776    0.575706    0.937705
      7          6           0        3.134217   -0.548727    0.432302
      8          6           0        2.412000   -1.481959   -0.309231
      9          6           0        1.050087   -1.288943   -0.549664
     10          6           0       -1.377643    1.525665   -0.744734
     11          6           0       -1.659645   -0.875280   -1.395464
     12          8           0       -1.658678    0.722250    1.919629
     13          1           0        0.627536    1.636544    1.110716
     14          1           0        3.030384    1.305833    1.524385
     15          1           0        4.193716   -0.698878    0.619952
     16          1           0        2.906387   -2.364795   -0.702104
     17          1           0        0.510045   -2.031739   -1.124538
     18          1           0       -0.813776    1.749124   -1.654347
     19          1           0       -1.091776    2.250388    0.020612
     20          1           0       -2.442063    1.669457   -0.954439
     21          1           0       -1.604081   -1.924223   -1.095310
     22          1           0       -2.712070   -0.648928   -1.582436
     23          1           0       -1.102325   -0.739956   -2.325811
     24          1           0       -2.126226    0.408935    2.712159
 ---------------------------------------------------------------------
                    Distance matrix (angstroms):
                    1          2          3          4          5
     1  O    0.000000
     2  C    1.212649   0.000000
     3  C    2.435006   1.525378   0.000000
     4  C    3.328519   2.465047   1.535373   0.000000
     5  C    4.165022   3.142297   2.547645   1.400600   0.000000
     6  C    5.302590   4.399364   3.837344   2.431926   1.394570
     7  C    5.723042   5.016018   4.351668   2.816344   2.418271
     8  C    5.140492   4.616766   3.845020   2.430552   2.779835
     9  C    3.954554   3.437811   2.558217   1.398447   2.403750
    10  C    3.557183   2.511019   1.544175   2.533668   2.982301
    11  C    2.751341   2.469278   1.532241   2.548050   3.847081
    12  O    2.245996   1.352934   2.397690   2.982488   3.039172
    13  H    4.242952   3.101947   2.742991   2.156090   1.083792
    14  H    6.090213   5.139030   4.696988   3.410458   2.149860
    15  H    6.735582   6.063981   5.438078   3.902754   3.404261
    16  H    5.837727   5.469265   4.708218   3.408720   3.865232
    17  H    3.882928   3.632412   2.768559   2.158301   3.393156
    18  H    4.459019   3.457487   2.168173   2.759642   3.197953
    19  H    3.937917   2.770043   2.210899   2.827689   2.748696
    20  H    3.616858   2.783210   2.180569   3.485558   4.029245
    21  H    2.558148   2.687620   2.192843   2.857454   4.227885
    22  H    2.852754   2.740088   2.163225   3.488946   4.678331
    23  H    3.824210   3.427408   2.161936   2.772983   4.041943
    24  H    2.262680   1.867680   3.216701   3.787569   3.840876
                    6          7          8          9         10
     6  C    0.000000
     7  C    1.394798   0.000000
     8  C    2.407012   1.393697   0.000000
     9  C    2.781891   2.419871   1.396378   0.000000
    10  C    4.316033   5.103469   4.857661   3.722089   0.000000
    11  C    4.969951   5.140863   4.257494   2.868648   2.503500
    12  O    4.257817   5.176811   5.137780   4.180875   2.797014
    13  H    2.143249   3.393980   3.863370   3.390264   2.734179
    14  H    1.085472   2.154720   3.393572   3.867314   4.962654
    15  H    2.157839   1.086414   2.156643   3.405669   6.152317
    16  H    3.393496   2.153343   1.085434   2.150941   5.787091
    17  H    3.865144   3.392544   2.141125   1.083453   4.045089
    18  H    4.353883   5.022037   4.759712   3.731508   1.093286
    19  H    4.051653   5.085621   5.129879   4.176081   1.092108
    20  H    5.387086   6.159406   5.823199   4.594680   1.094368
    21  H    5.203559   5.164983   4.116118   2.783148   3.475041
    22  H    5.901430   6.184519   5.345193   3.953487   2.685385
    23  H    5.022677   5.058857   4.119180   2.844110   2.776445
    24  H    4.940665   5.812669   5.770595   4.859139   3.709120
                   11         12         13         14         15
    11  C    0.000000
    12  O    3.679938   0.000000
    13  H    4.221540   2.591727   0.000000
    14  H    5.939625   4.741739   2.460522   0.000000
    15  H    6.193129   6.161110   4.291000   2.488012   0.000000
    16  H    4.852634   6.102717   4.948757   4.294897   2.486026
    17  H    2.473531   4.642712   4.297263   4.950585   4.288262
    18  H    2.769478   3.813349   3.120196   5.007834   6.019976
    19  H    3.478153   2.502568   2.126303   4.488398   6.082252
    20  H    2.698586   3.125885   3.699782   6.018676   7.219507
    21  H    1.092457   4.012064   4.746128   6.226904   6.169120
    22  H    1.092608   3.905665   4.861010   6.815365   7.248647
    23  H    1.092916   4.524526   4.522156   6.007374   6.060301
    24  H    4.328911   0.972045   3.413920   5.367109   6.748795
                   16         17         18         19         20
    16  H    0.000000
    17  H    2.455979   0.000000
    18  H    5.627673   4.040807   0.000000
    19  H    6.148784   4.713154   1.770321   0.000000
    20  H    6.704087   4.737376   1.774130   1.763939   0.000000
    21  H    4.548960   2.117060   3.798761   4.351450   3.692776
    22  H    5.940223   3.536081   3.059304   3.687974   2.417063
    23  H    4.620206   2.389874   2.594155   3.801049   3.079096
    24  H    6.684157   5.256145   4.752368   3.421324   3.890065
                   21         22         23         24
    21  H    0.000000
    22  H    1.758212   0.000000
    23  H    1.779995   1.775436   0.000000
    24  H    4.495896   4.461595   5.267776   0.000000
 Stoichiometry    C10H12O2
 Framework group  C1[X(C10H12O2)]
 Deg. of freedom    66
 Full point group                 C1      NOp   1
 Largest Abelian subgroup         C1      NOp   1
 Largest concise Abelian subgroup C1      NOp   1
                         Standard orientation:                         
 ---------------------------------------------------------------------
 Center     Atomic      Atomic             Coordinates (Angstroms)
 Number     Number       Type             X           Y           Z
 ---------------------------------------------------------------------
      1          8           0       -2.338477    0.234679   -1.576192
      2          6           0       -1.779499   -0.337305   -0.664658
      3          6           0       -1.033590    0.346743    0.476603
      4          6           0        0.468245    0.168554    0.211818
      5          6           0        1.078761   -1.076023    0.411761
      6          6           0        2.441310   -1.252627    0.172813
      7          6           0        3.219191   -0.185692   -0.276645
      8          6           0        2.619413    1.053605   -0.492980
      9          6           0        1.254400    1.226718   -0.254983
     10          6           0       -1.431512   -0.298622    1.821831
     11          6           0       -1.451492    1.820837    0.489538
     12          8           0       -1.725324   -1.687004   -0.588430
     13          1           0        0.486273   -1.921159    0.742383
     14          1           0        2.893987   -2.225474    0.336831
     15          1           0        4.281079   -0.320814   -0.462202
     16          1           0        3.212248    1.890067   -0.849414
     17          1           0        0.811080    2.198631   -0.435878
     18          1           0       -0.860841    0.166088    2.630320
     19          1           0       -1.245879   -1.374523    1.847825
     20          1           0       -2.496889   -0.142580    2.017448
     21          1           0       -1.303022    2.301308   -0.480290
     22          1           0       -2.513909    1.903524    0.730839
     23          1           0       -0.877882    2.360682    1.247168
     24          1           0       -2.187193   -2.014278   -1.378644
 ---------------------------------------------------------------------
 Rotational constants (GHZ):           1.5974925           0.6886183           0.6292954
 Standard basis: 6-31G(d,p) (6D, 7F)
 There are   240 symmetry adapted cartesian basis functions of A   symmetry.
 There are   240 symmetry adapted basis functions of A   symmetry.
   240 basis functions,   420 primitive gaussians,   240 cartesian basis functions
    44 alpha electrons       44 beta electrons
       nuclear repulsion energy       699.6048678911 Hartrees.
 NAtoms=   24 NActive=   24 NUniq=   24 SFac= 1.00D+00 NAtFMM=   60 NAOKFM=F Big=F
 Integral buffers will be    131072 words long.
 Raffenetti 2 integral format.
 Two-electron integral symmetry is turned on.
 Nuclear repulsion after empirical dispersion term =      699.5579595790 Hartrees.
 One-electron integrals computed using PRISM.
 NBasis=   240 RedAO= T EigKep=  4.54D-04  NBF=   240
 NBsUse=   240 1.00D-06 EigRej= -1.00D+00 NBFU=   240
 Initial guess from the checkpoint file:  "Ac5_conf-2.chk"
 B after Tr=     0.000000   -0.000000    0.000000
         Rot=    0.999865   -0.015015    0.006118   -0.002839 Ang=  -1.89 deg.
 ExpMin= 1.61D-01 ExpMax= 5.48D+03 ExpMxC= 8.25D+02 IAcc=3 IRadAn=         5 AccDes= 0.00D+00
 Harris functional with IExCor=  402 and IRadAn=       5 diagonalized for initial guess.
 HarFok:  IExCor=  402 AccDes= 0.00D+00 IRadAn=         5 IDoV= 1 UseB2=F ITyADJ=14
 ICtDFT=  3500011 ScaDFX=  1.000000  1.000000  1.000000  1.000000
 FoFCou: FMM=F IPFlag=           0 FMFlag=      100000 FMFlg1=           0
         NFxFlg=           0 DoJE=T BraDBF=F KetDBF=T FulRan=T
         wScrn=  0.000000 ICntrl=       500 IOpCl=  0 I1Cent=   200000004 NGrid=           0
         NMat0=    1 NMatS0=      1 NMatT0=    0 NMatD0=    1 NMtDS0=    0 NMtDT0=    0
 Petite list used in FoFCou.
 Requested convergence on RMS density matrix=1.00D-08 within 128 cycles.
 Requested convergence on MAX density matrix=1.00D-06.
 Requested convergence on             energy=1.00D-06.
 No special actions if energy rises.
 Integral accuracy reduced to 1.0D-05 until final iterations.
 Initial convergence to 1.0D-05 achieved.  Increase integral accuracy.
 SCF Done:  E(RB3LYP) =  -538.821339074     A.U. after   12 cycles
            NFock= 12  Conv=0.83D-08     -V/T= 2.0094
 Calling FoFJK, ICntrl=      2127 FMM=F ISym2X=0 I1Cent= 0 IOpClX= 0 NMat=1 NMatS=1 NMatT=0.
 ***** Axes restored to original set *****
 -------------------------------------------------------------------
 Center     Atomic                   Forces (Hartrees/Bohr)
 Number     Number              X              Y              Z
 -------------------------------------------------------------------
      1        8          -0.000011834    0.002520027    0.000993519
      2        6          -0.000125197   -0.005925323    0.001701137
      3        6          -0.001402132    0.001636758   -0.002387606
      4        6          -0.000053927   -0.000453741    0.000741690
      5        6           0.003277674    0.000925732    0.001286317
      6        6          -0.001547771   -0.000043243   -0.000454740
      7        6           0.000488143   -0.000750584   -0.000135809
      8        6          -0.000247343    0.000764714    0.000358321
      9        6           0.002401651   -0.001142952   -0.000295005
     10        6           0.000239358    0.002535077   -0.000532560
     11        6          -0.000678617   -0.001355188   -0.002007362
     12        8          -0.001959275    0.001452375    0.002418834
     13        1           0.000424824   -0.000560581   -0.000110312
     14        1           0.000013625    0.000286696    0.000133483
     15        1          -0.000466788    0.000085600   -0.000118291
     16        1          -0.000065801   -0.000292243   -0.000161250
     17        1           0.000664386    0.000540109    0.000276698
     18        1          -0.000292588   -0.000176181   -0.000424204
     19        1          -0.000173707   -0.001837665   -0.000763961
     20        1          -0.000038278   -0.000231110   -0.000127031
     21        1          -0.000229778    0.001795623    0.000381126
     22        1           0.000050467    0.000004460   -0.000169623
     23        1          -0.000534783    0.000034432   -0.000697560
     24        1           0.000267691    0.000187208    0.000094190
 -------------------------------------------------------------------
 Cartesian Forces:  Max     0.005925323 RMS     0.001271712

 GradGradGradGradGradGradGradGradGradGradGradGradGradGradGradGradGradGrad
 Berny optimization.
 Using GEDIIS/GDIIS optimizer.
 FormGI is forming the generalized inverse of G from B-inverse, IUseBI=4.
 Internal  Forces:  Max     0.005675849 RMS     0.001047384
 Search for a local minimum.
 Step number   2 out of a maximum of  130
 All quantities printed in internal units (Hartrees-Bohrs-Radians)
 Mixed Optimization -- RFO/linear search
 Update second derivatives using D2CorX and points    1    2
 DE= -3.80D-03 DEPred=-4.49D-03 R= 8.46D-01
 TightC=F SS=  1.41D+00  RLast= 2.50D-01 DXNew= 5.0454D-01 7.5064D-01
 Trust test= 8.46D-01 RLast= 2.50D-01 DXMaxT set to 5.05D-01
 ITU=  1  0
 Use linear search instead of GDIIS.
     Eigenvalues ---    0.00229   0.00230   0.00230   0.00231   0.00728
     Eigenvalues ---    0.01303   0.02038   0.02093   0.02110   0.02159
     Eigenvalues ---    0.02197   0.02200   0.02204   0.02209   0.02280
     Eigenvalues ---    0.04843   0.05292   0.05360   0.05613   0.05616
     Eigenvalues ---    0.05636   0.06096   0.15054   0.15510   0.15998
     Eigenvalues ---    0.16000   0.16000   0.16000   0.16000   0.16000
     Eigenvalues ---    0.16000   0.16000   0.16000   0.16000   0.16021
     Eigenvalues ---    0.16559   0.21888   0.22000   0.23427   0.24834
     Eigenvalues ---    0.24995   0.25102   0.26563   0.26768   0.26965
     Eigenvalues ---    0.31038   0.34631   0.34653   0.34691   0.34708
     Eigenvalues ---    0.34721   0.35034   0.35892   0.35951   0.35963
     Eigenvalues ---    0.36127   0.36395   0.41945   0.42501   0.45274
     Eigenvalues ---    0.46236   0.47019   0.47154   0.54058   0.55869
     Eigenvalues ---    0.90675
 RFO step:  Lambda=-7.72569008D-04 EMin= 2.28937746D-03
 Quartic linear search produced a step of -0.10488.
 Iteration  1 RMS(Cart)=  0.07255202 RMS(Int)=  0.00233454
 Iteration  2 RMS(Cart)=  0.00333950 RMS(Int)=  0.00035141
 Iteration  3 RMS(Cart)=  0.00000627 RMS(Int)=  0.00035140
 Iteration  4 RMS(Cart)=  0.00000000 RMS(Int)=  0.00035140
 Variable       Old X    -DE/DX   Delta X   Delta X   Delta X     New X
                                 (Linear)    (Quad)   (Total)
    R1        2.29157  -0.00189   0.00272  -0.00650  -0.00378   2.28779
    R2        2.88255   0.00568   0.00689   0.00671   0.01360   2.89615
    R3        2.55668   0.00267   0.00050   0.00356   0.00406   2.56073
    R4        2.90143   0.00512   0.00415   0.00948   0.01364   2.91507
    R5        2.91807   0.00083   0.00322  -0.00292   0.00030   2.91837
    R6        2.89552   0.00196   0.00576  -0.00362   0.00214   2.89765
    R7        2.64675   0.00227   0.00096   0.00303   0.00399   2.65074
    R8        2.64268   0.00194   0.00143   0.00155   0.00298   2.64567
    R9        2.63536  -0.00128  -0.00048  -0.00160  -0.00208   2.63328
   R10        2.04807  -0.00069  -0.00091  -0.00011  -0.00101   2.04706
   R11        2.63579   0.00004  -0.00078   0.00126   0.00048   2.63627
   R12        2.05124   0.00027  -0.00101   0.00245   0.00144   2.05268
   R13        2.63371  -0.00084  -0.00054  -0.00081  -0.00135   2.63235
   R14        2.05303  -0.00049  -0.00117   0.00083  -0.00034   2.05269
   R15        2.63877  -0.00058  -0.00075   0.00022  -0.00053   2.63824
   R16        2.05117   0.00027  -0.00101   0.00242   0.00141   2.05258
   R17        2.04743  -0.00085  -0.00102  -0.00031  -0.00133   2.04610
   R18        2.06601   0.00017  -0.00046   0.00123   0.00077   2.06678
   R19        2.06378  -0.00180  -0.00043  -0.00386  -0.00429   2.05949
   R20        2.06806   0.00003  -0.00062   0.00117   0.00055   2.06861
   R21        2.06444  -0.00163  -0.00024  -0.00377  -0.00401   2.06043
   R22        2.06473  -0.00002  -0.00023   0.00036   0.00013   2.06486
   R23        2.06531   0.00033  -0.00040   0.00155   0.00114   2.06645
   R24        1.83690  -0.00011  -0.00294   0.00492   0.00198   1.83888
    A1        2.18497   0.00138  -0.00125   0.00824   0.00479   2.18976
    A2        2.13101  -0.00263  -0.00100  -0.00634  -0.00951   2.12150
    A3        1.96669   0.00129   0.00230   0.00171   0.00184   1.96853
    A4        1.87260  -0.00078   0.00200  -0.00636  -0.00430   1.86830
    A5        1.91597   0.00089   0.00133   0.00134   0.00258   1.91855
    A6        1.88008   0.00019   0.00409  -0.00694  -0.00284   1.87724
    A7        1.93242   0.00015  -0.00043   0.00162   0.00128   1.93371
    A8        1.96047   0.00114   0.00037   0.00702   0.00756   1.96803
    A9        1.90121  -0.00154  -0.00725   0.00290  -0.00434   1.89687
   A10        2.10004   0.00089  -0.00009   0.00309   0.00301   2.10305
   A11        2.11722   0.00133   0.00059   0.00343   0.00404   2.12125
   A12        2.06575  -0.00222  -0.00049  -0.00657  -0.00705   2.05870
   A13        2.11059   0.00074   0.00028   0.00265   0.00293   2.11352
   A14        2.09230  -0.00021   0.00140  -0.00324  -0.00184   2.09046
   A15        2.08019  -0.00053  -0.00168   0.00055  -0.00113   2.07905
   A16        2.09814   0.00049  -0.00095   0.00315   0.00220   2.10034
   A17        2.08871  -0.00041   0.00075  -0.00299  -0.00223   2.08647
   A18        2.09634  -0.00008   0.00019  -0.00016   0.00004   2.09637
   A19        2.08312  -0.00021   0.00187  -0.00501  -0.00315   2.07998
   A20        2.10019   0.00010  -0.00095   0.00254   0.00159   2.10178
   A21        2.09985   0.00010  -0.00092   0.00249   0.00157   2.10142
   A22        2.09956   0.00031  -0.00090   0.00237   0.00147   2.10103
   A23        2.09576   0.00006   0.00013   0.00059   0.00072   2.09647
   A24        2.08787  -0.00037   0.00077  -0.00296  -0.00219   2.08568
   A25        2.10903   0.00088   0.00020   0.00342   0.00362   2.11265
   A26        2.09958  -0.00019   0.00216  -0.00442  -0.00226   2.09732
   A27        2.07457  -0.00069  -0.00236   0.00099  -0.00137   2.07320
   A28        1.90929   0.00017   0.00312  -0.00456  -0.00141   1.90789
   A29        1.96998  -0.00114   0.00103  -0.00797  -0.00694   1.96304
   A30        1.92516  -0.00011   0.00273  -0.00607  -0.00332   1.92184
   A31        1.88854   0.00060  -0.00254   0.00876   0.00623   1.89478
   A32        1.89163  -0.00009  -0.00224   0.00289   0.00071   1.89233
   A33        1.87726   0.00062  -0.00258   0.00778   0.00519   1.88245
   A34        1.95903  -0.00119   0.00036  -0.00733  -0.00698   1.95206
   A35        1.91758   0.00007   0.00350  -0.00747  -0.00395   1.91363
   A36        1.91549   0.00111   0.00347   0.00134   0.00486   1.92035
   A37        1.87017   0.00024  -0.00225   0.00255   0.00027   1.87045
   A38        1.90375   0.00034  -0.00275   0.00953   0.00680   1.91055
   A39        1.89638  -0.00058  -0.00280   0.00174  -0.00098   1.89540
   A40        1.84528   0.00050  -0.00382   0.00970   0.00588   1.85116
    D1       -1.83623  -0.00056  -0.00280   0.02223   0.01935  -1.81688
    D2        2.34595  -0.00078  -0.00431   0.02333   0.01891   2.36487
    D3        0.27810   0.00046   0.00130   0.02314   0.02434   0.30244
    D4        1.27137   0.00057  -0.00002   0.14106   0.14115   1.41251
    D5       -0.82963   0.00035  -0.00153   0.14215   0.14070  -0.68893
    D6       -2.89749   0.00159   0.00408   0.14196   0.14613  -2.75135
    D7        0.01644   0.00073   0.00093   0.06397   0.06443   0.08087
    D8       -3.09236  -0.00044  -0.00175  -0.05098  -0.05227   3.13856
    D9       -1.28974   0.00005  -0.00366   0.07664   0.07300  -1.21674
   D10        1.83118   0.00012  -0.00039   0.07347   0.07308   1.90426
   D11        0.80078   0.00074  -0.00103   0.07530   0.07423   0.87501
   D12       -2.36149   0.00081   0.00223   0.07212   0.07431  -2.28718
   D13        2.93056  -0.00034  -0.01029   0.08514   0.07489   3.00545
   D14       -0.23170  -0.00026  -0.00702   0.08197   0.07497  -0.15673
   D15        3.09827   0.00010  -0.00082   0.03250   0.03170   3.12997
   D16        0.99463  -0.00003  -0.00050   0.02981   0.02932   1.02395
   D17       -1.10577   0.00002   0.00016   0.02953   0.02968  -1.07609
   D18        1.03396   0.00042  -0.00388   0.03851   0.03460   1.06856
   D19       -1.06969   0.00029  -0.00356   0.03582   0.03223  -1.03746
   D20        3.11310   0.00034  -0.00290   0.03554   0.03259  -3.13750
   D21       -1.13017  -0.00006   0.00059   0.02658   0.02720  -1.10297
   D22        3.04937  -0.00019   0.00091   0.02389   0.02483   3.07420
   D23        0.94897  -0.00014   0.00157   0.02361   0.02519   0.97416
   D24       -0.94597   0.00045  -0.00205   0.00983   0.00782  -0.93815
   D25        1.13303   0.00003  -0.00228   0.00333   0.00113   1.13416
   D26       -3.06599   0.00005  -0.00124   0.00169   0.00048  -3.06551
   D27        1.11249   0.00027   0.00341   0.00170   0.00510   1.11759
   D28       -3.09169  -0.00015   0.00318  -0.00481  -0.00159  -3.09328
   D29       -1.00752  -0.00014   0.00422  -0.00644  -0.00224  -1.00976
   D30       -3.02327   0.00013  -0.00177   0.01058   0.00874  -3.01452
   D31       -0.94426  -0.00028  -0.00200   0.00407   0.00205  -0.94221
   D32        1.13990  -0.00027  -0.00096   0.00244   0.00141   1.14131
   D33        3.13950   0.00003   0.00144  -0.00244  -0.00099   3.13851
   D34        0.01419   0.00009   0.00160   0.00007   0.00169   0.01587
   D35        0.01798  -0.00009  -0.00172   0.00053  -0.00119   0.01679
   D36       -3.10733  -0.00002  -0.00156   0.00304   0.00148  -3.10585
   D37       -3.14119  -0.00001  -0.00132   0.00250   0.00118  -3.14001
   D38        0.00300   0.00004  -0.00230   0.00675   0.00446   0.00746
   D39       -0.01988   0.00010   0.00188  -0.00051   0.00137  -0.01850
   D40        3.12431   0.00015   0.00090   0.00375   0.00466   3.12897
   D41       -0.00427  -0.00000   0.00054  -0.00078  -0.00024  -0.00451
   D42        3.13899   0.00001   0.00076  -0.00109  -0.00034   3.13866
   D43        3.12116  -0.00006   0.00041  -0.00331  -0.00290   3.11825
   D44       -0.01877  -0.00005   0.00063  -0.00363  -0.00300  -0.02177
   D45       -0.00790   0.00005   0.00051   0.00091   0.00142  -0.00648
   D46        3.14024  -0.00001   0.00029  -0.00123  -0.00094   3.13930
   D47        3.13202   0.00004   0.00029   0.00123   0.00151   3.13353
[...]
                 (A) (A) (A) (A) (A) (A) (A) (A) (A) (A) (A) (A)
                 (A) (A) (A) (A) (A) (A) (A) (A) (A) (A) (A) (A)
                 (A) (A) (A) (A) (A) (A) (A) (A) (A) (A) (A) (A)
                 (A) (A) (A) (A) (A) (A) (A) (A) (A) (A) (A) (A)
                 (A) (A) (A) (A) (A) (A) (A) (A) (A) (A) (A) (A)
                 (A) (A) (A) (A) (A) (A) (A) (A) (A) (A) (A) (A)
                 (A) (A) (A) (A) (A) (A) (A) (A) (A) (A) (A) (A)
                 (A) (A) (A) (A) (A) (A) (A) (A) (A) (A) (A) (A)
                 (A) (A) (A) (A) (A) (A) (A) (A) (A) (A) (A) (A)
                 (A) (A) (A) (A) (A) (A) (A) (A) (A) (A) (A) (A)
                 (A) (A) (A) (A) (A) (A) (A) (A) (A) (A) (A) (A)
                 (A) (A) (A) (A) (A) (A) (A) (A) (A) (A) (A) (A)
                 (A) (A) (A) (A)
 The electronic state is 1-A.
 Alpha  occ. eigenvalues --  -19.67877 -19.62211 -10.68041 -10.57769 -10.56070
 Alpha  occ. eigenvalues --  -10.54635 -10.54619 -10.54547 -10.54480 -10.54445
 Alpha  occ. eigenvalues --  -10.53612 -10.53225  -1.23883  -1.14196  -0.97213
 Alpha  occ. eigenvalues --   -0.92263  -0.84625  -0.83411  -0.78800  -0.75550
 Alpha  occ. eigenvalues --   -0.69873  -0.68835  -0.64447  -0.60422  -0.58570
 Alpha  occ. eigenvalues --   -0.56617  -0.54554  -0.52640  -0.52102  -0.50749
 Alpha  occ. eigenvalues --   -0.49838  -0.48999  -0.46825  -0.45931  -0.44232
 Alpha  occ. eigenvalues --   -0.44095  -0.43380  -0.41833  -0.40772  -0.39219
 Alpha  occ. eigenvalues --   -0.38885  -0.35854  -0.31112  -0.30391
 Alpha virt. eigenvalues --    0.00976   0.01616   0.05332   0.06123   0.07863
 Alpha virt. eigenvalues --    0.08902   0.10436   0.11408   0.11784   0.12222
 Alpha virt. eigenvalues --    0.13908   0.14003   0.15033   0.16344   0.17579
 Alpha virt. eigenvalues --    0.18242   0.18796   0.19434   0.20829   0.21265
 Alpha virt. eigenvalues --    0.22221   0.23006   0.24240   0.24735   0.25084
 Alpha virt. eigenvalues --    0.25353   0.26977   0.27342   0.28009   0.29512
 Alpha virt. eigenvalues --    0.29834   0.30803   0.31657   0.32799   0.34280
 Alpha virt. eigenvalues --    0.35261   0.35911   0.36382   0.37625   0.37649
 Alpha virt. eigenvalues --    0.38093   0.40108   0.40425   0.41013   0.41758
 Alpha virt. eigenvalues --    0.42033   0.43383   0.43720   0.44221   0.44324
 Alpha virt. eigenvalues --    0.45751   0.46100   0.46578   0.46923   0.47885
 Alpha virt. eigenvalues --    0.49091   0.49375   0.50465   0.51209   0.51600
 Alpha virt. eigenvalues --    0.52260   0.52780   0.53737   0.53884   0.55134
 Alpha virt. eigenvalues --    0.55397   0.57032   0.58217   0.59655   0.61416
 Alpha virt. eigenvalues --    0.62508   0.63513   0.64882   0.66082   0.67829
 Alpha virt. eigenvalues --    0.68944   0.69774   0.70519   0.71256   0.71870
 Alpha virt. eigenvalues --    0.73770   0.74484   0.76500   0.76963   0.78401
 Alpha virt. eigenvalues --    0.79579   0.79697   0.80729   0.83528   0.84053
 Alpha virt. eigenvalues --    0.86369   0.86987   0.89387   0.89974   0.91748
 Alpha virt. eigenvalues --    0.92861   0.93000   0.94899   0.95817   0.97548
 Alpha virt. eigenvalues --    0.98761   1.00545   1.01224   1.02851   1.04615
 Alpha virt. eigenvalues --    1.05433   1.07150   1.08346   1.09095   1.11280
 Alpha virt. eigenvalues --    1.12420   1.12786   1.13668   1.14802   1.16121
 Alpha virt. eigenvalues --    1.18070   1.19490   1.23136   1.24213   1.25625
 Alpha virt. eigenvalues --    1.26872   1.28056   1.28994   1.30030   1.30974
 Alpha virt. eigenvalues --    1.32227   1.33941   1.35468   1.36661   1.40919
 Alpha virt. eigenvalues --    1.41982   1.43282   1.44137   1.47036   1.47893
 Alpha virt. eigenvalues --    1.49371   1.50968   1.52133   1.52653   1.54044
 Alpha virt. eigenvalues --    1.55594   1.57357   1.58693   1.59118   1.59760
 Alpha virt. eigenvalues --    1.60890   1.61885   1.63490   1.64570   1.65494
 Alpha virt. eigenvalues --    1.65956   1.66357   1.67330   1.68496   1.69706
 Alpha virt. eigenvalues --    1.70298   1.72024   1.72741   1.73756   1.74437
 Alpha virt. eigenvalues --    1.75637   1.78214   1.78726   1.79539   1.81361
 Alpha virt. eigenvalues --    1.84816   1.89015   1.89772   1.92849   1.93484
 Alpha virt. eigenvalues --    1.94754   1.94985   1.98657   1.99866   2.00952
 Alpha virt. eigenvalues --    2.02881   2.03565   2.06707   2.07222   2.08064
 Alpha virt. eigenvalues --    2.10402   2.12195   2.13680   2.15168   2.15826
 Alpha virt. eigenvalues --    2.16658   2.17830   2.20083   2.20785   2.22283
 Alpha virt. eigenvalues --    2.23400   2.25618   2.26712   2.28049   2.30478
 Alpha virt. eigenvalues --    2.32288   2.33242   2.34751   2.36576   2.37109
 Alpha virt. eigenvalues --    2.39407   2.39760   2.42330   2.45082   2.45158
 Alpha virt. eigenvalues --    2.47207   2.48242   2.50114   2.52197   2.53954
 Alpha virt. eigenvalues --    2.55112   2.55473   2.56061   2.57637   2.59330
 Alpha virt. eigenvalues --    2.60296   2.62389   2.62814   2.64198   2.64589
 Alpha virt. eigenvalues --    2.66556   2.67249   2.68044   2.69105   2.69897
 Alpha virt. eigenvalues --    2.71011   2.72806   2.74020   2.74925   2.75349
 Alpha virt. eigenvalues --    2.77577   2.78497   2.79168   2.80365   2.81397
 Alpha virt. eigenvalues --    2.82950   2.83335   2.84862   2.85437   2.85846
 Alpha virt. eigenvalues --    2.88017   2.89585   2.90312   2.91639   2.93167
 Alpha virt. eigenvalues --    2.94731   2.97308   2.97791   3.01871   3.02483
 Alpha virt. eigenvalues --    3.04673   3.06092   3.06705   3.08313   3.09849
 Alpha virt. eigenvalues --    3.11806   3.12273   3.14458   3.14732   3.16294
 Alpha virt. eigenvalues --    3.16623   3.17314   3.17466   3.19629   3.20704
 Alpha virt. eigenvalues --    3.20869   3.23205   3.24042   3.25738   3.27642
 Alpha virt. eigenvalues --    3.28340   3.28520   3.28788   3.30806   3.30966
 Alpha virt. eigenvalues --    3.31405   3.32645   3.33034   3.35674   3.36692
 Alpha virt. eigenvalues --    3.36887   3.38689   3.38865   3.40832   3.42135
 Alpha virt. eigenvalues --    3.45008   3.46211   3.46394   3.46923   3.47853
 Alpha virt. eigenvalues --    3.48812   3.49058   3.51065   3.52109   3.53532
 Alpha virt. eigenvalues --    3.54129   3.55113   3.58256   3.60609   3.61944
 Alpha virt. eigenvalues --    3.64624   3.65656   3.67688   3.68767   3.70568
 Alpha virt. eigenvalues --    3.71966   3.77134   3.78955   3.81793   3.82442
 Alpha virt. eigenvalues --    3.87653   3.90360   3.91908   3.92169   3.96544
 Alpha virt. eigenvalues --    3.99371   4.02341   4.02627   4.03741   4.06347
 Alpha virt. eigenvalues --    4.07524   4.09839   4.11779   4.12431   4.14728
 Alpha virt. eigenvalues --    4.16502   4.17011   4.18208   4.20097   4.20893
 Alpha virt. eigenvalues --    4.22074   4.25396   4.26836   4.29293   4.30917
 Alpha virt. eigenvalues --    4.35389   4.35738   4.36195   4.39244   4.42263
 Alpha virt. eigenvalues --    4.43452   4.50589   4.51216   4.55323   4.56428
 Alpha virt. eigenvalues --    4.61608   4.62287   4.64190   4.65902   4.70078
 Alpha virt. eigenvalues --    4.72842   4.83170   4.83840   4.85809   4.87888
 Alpha virt. eigenvalues --    4.91369   5.02498   5.05835   5.16196   5.16740
 Alpha virt. eigenvalues --    5.18105   5.21225   5.22701   5.31279   5.34388
 Alpha virt. eigenvalues --    5.39002   5.41790   5.44166   5.51972   5.60108
 Alpha virt. eigenvalues --    5.60400   5.74492   5.86787   5.87927   6.17464
 Alpha virt. eigenvalues --    6.23139   6.35247   6.35359   6.47313   6.50318
 Alpha virt. eigenvalues --    6.66612   6.70596   6.75738   6.82501   6.90901
 Alpha virt. eigenvalues --    7.08235   7.12037   7.28791  22.22687  22.53591
 Alpha virt. eigenvalues --   22.58175  22.65612  22.70942  22.84967  22.90205
 Alpha virt. eigenvalues --   22.92638  23.26587  23.40751  44.02276  44.08483
          Condensed to atoms (all electrons):
               1          2          3          4          5          6
     1  O    7.826325   0.664352  -0.089389  -0.005737  -0.002084   0.000430
     2  C    0.664352   4.661529   0.187194  -0.027740  -0.019522  -0.000785
     3  C   -0.089389   0.187194   5.628307   0.140568  -0.031101   0.008089
     4  C   -0.005737  -0.027740   0.140568   5.359645   0.369040  -0.013804
     5  C   -0.002084  -0.019522  -0.031101   0.369040   5.150248   0.451564
     6  C    0.000430  -0.000785   0.008089  -0.013804   0.451564   4.941665
     7  C   -0.000087   0.000541  -0.003942  -0.069137  -0.003208   0.489895
     8  C    0.000141  -0.001876   0.013097  -0.037010  -0.087720  -0.012216
     9  C   -0.001416   0.004763  -0.049257   0.449258  -0.001243  -0.076321
    10  C    0.006343  -0.056214   0.296171  -0.100731  -0.018112   0.004354
    11  C    0.004653  -0.065098   0.224572  -0.081206   0.022609  -0.001960
    12  O   -0.091655   0.353451  -0.096707  -0.026037   0.003145  -0.004726
    13  H    0.000212  -0.004980   0.023447  -0.055882   0.397389  -0.011610
    14  H    0.000004  -0.000025  -0.000200   0.007399  -0.033349   0.408088
    15  H   -0.000000   0.000006   0.000050   0.000192   0.005933  -0.035688
    16  H   -0.000001  -0.000012  -0.000313   0.007296  -0.000173   0.004111
    17  H   -0.000426  -0.000769  -0.011625  -0.025573   0.003154   0.000086
    18  H   -0.000426   0.012523  -0.032156  -0.005966  -0.007736   0.000225
    19  H    0.000004  -0.017846   0.015150  -0.038916   0.010911   0.001014
    20  H    0.000118  -0.010012  -0.041201   0.022908   0.000669  -0.000041
    21  H    0.006282  -0.020258  -0.033940   0.002752  -0.001362   0.000059
    22  H    0.000721  -0.016126  -0.027160   0.019222  -0.000785   0.000034
    23  H    0.000674   0.018140  -0.047259  -0.010810   0.000911  -0.000139
    24  H    0.007089  -0.022735   0.015516   0.001197  -0.000373  -0.000027
               7          8          9         10         11         12
     1  O   -0.000087   0.000141  -0.001416   0.006343   0.004653  -0.091655
     2  C    0.000541  -0.001876   0.004763  -0.056214  -0.065098   0.353451
     3  C   -0.003942   0.013097  -0.049257   0.296171   0.224572  -0.096707
     4  C   -0.069137  -0.037010   0.449258  -0.100731  -0.081206  -0.026037
     5  C   -0.003208  -0.087720  -0.001243  -0.018112   0.022609   0.003145
     6  C    0.489895  -0.012216  -0.076321   0.004354  -0.001960  -0.004726
     7  C    4.906202   0.505638  -0.021928  -0.000302   0.000968   0.000447
     8  C    0.505638   4.904624   0.505469  -0.000371  -0.003097  -0.000329
     9  C   -0.021928   0.505469   5.031334  -0.002210  -0.028346   0.000840
    10  C   -0.000302  -0.000371  -0.002210   5.164646  -0.081477  -0.001869
    11  C    0.000968  -0.003097  -0.028346  -0.081477   5.277970   0.004171
    12  O    0.000447  -0.000329   0.000840  -0.001869   0.004171   7.976190
    13  H    0.003374  -0.000607   0.003500  -0.009800   0.000571   0.009729
    14  H   -0.034372   0.004276  -0.000149   0.000010  -0.000003  -0.000096
    15  H    0.410389  -0.034774   0.004835  -0.000002  -0.000004   0.000001
    16  H   -0.033838   0.406057  -0.031736   0.000003   0.000086  -0.000001
    17  H    0.002133  -0.015038   0.397772  -0.000347   0.000092  -0.000000
    18  H   -0.000201   0.000061   0.006006   0.410808  -0.016542   0.000376
    19  H    0.000134  -0.000074   0.000146   0.395467   0.011316  -0.000341
    20  H   -0.000001   0.000015  -0.000907   0.409290  -0.010116   0.001088
    21  H   -0.000126   0.000185  -0.006725   0.012812   0.424226   0.000355
    22  H   -0.000005   0.000030   0.000650  -0.010932   0.406334   0.000166
    23  H    0.000057  -0.000256  -0.004405  -0.013101   0.430754  -0.000128
    24  H   -0.000001   0.000001   0.000054  -0.002231  -0.001231   0.291224
              13         14         15         16         17         18
     1  O    0.000212   0.000004  -0.000000  -0.000001  -0.000426  -0.000426
     2  C   -0.004980  -0.000025   0.000006  -0.000012  -0.000769   0.012523
     3  C    0.023447  -0.000200   0.000050  -0.000313  -0.011625  -0.032156
     4  C   -0.055882   0.007399   0.000192   0.007296  -0.025573  -0.005966
     5  C    0.397389  -0.033349   0.005933  -0.000173   0.003154  -0.007736
     6  C   -0.011610   0.408088  -0.035688   0.004111   0.000086   0.000225
     7  C    0.003374  -0.034372   0.410389  -0.033838   0.002133  -0.000201
     8  C   -0.000607   0.004276  -0.034774   0.406057  -0.015038   0.000061
     9  C    0.003500  -0.000149   0.004835  -0.031736   0.397772   0.006006
    10  C   -0.009800   0.000010  -0.000002   0.000003  -0.000347   0.410808
    11  C    0.000571  -0.000003  -0.000004   0.000086   0.000092  -0.016542
    12  O    0.009729  -0.000096   0.000001  -0.000001  -0.000000   0.000376
    13  H    0.467081  -0.003574  -0.000234   0.000055  -0.000181   0.000354
    14  H   -0.003574   0.511921  -0.003899  -0.000275   0.000071   0.000011
    15  H   -0.000234  -0.003899   0.513459  -0.003879  -0.000267  -0.000002
    16  H    0.000055  -0.000275  -0.003879   0.512922  -0.003359   0.000005
    17  H   -0.000181   0.000071  -0.000267  -0.003359   0.494757   0.000295
    18  H    0.000354   0.000011  -0.000002   0.000005   0.000295   0.516645
    19  H   -0.000599  -0.000009  -0.000000  -0.000002   0.000011  -0.020649
    20  H    0.000073  -0.000001   0.000000  -0.000000  -0.000049  -0.024087
    21  H   -0.000037   0.000000   0.000000   0.000014  -0.004794  -0.000283
    22  H   -0.000017  -0.000000   0.000000  -0.000001   0.000902   0.000084
    23  H   -0.000035  -0.000001   0.000001   0.000001  -0.005609   0.001485
    24  H   -0.000339   0.000003  -0.000000   0.000000   0.000001   0.000104
              19         20         21         22         23         24
     1  O    0.000004   0.000118   0.006282   0.000721   0.000674   0.007089
     2  C   -0.017846  -0.010012  -0.020258  -0.016126   0.018140  -0.022735
     3  C    0.015150  -0.041201  -0.033940  -0.027160  -0.047259   0.015516
     4  C   -0.038916   0.022908   0.002752   0.019222  -0.010810   0.001197
     5  C    0.010911   0.000669  -0.001362  -0.000785   0.000911  -0.000373
     6  C    0.001014  -0.000041   0.000059   0.000034  -0.000139  -0.000027
     7  C    0.000134  -0.000001  -0.000126  -0.000005   0.000057  -0.000001
     8  C   -0.000074   0.000015   0.000185   0.000030  -0.000256   0.000001
     9  C    0.000146  -0.000907  -0.006725   0.000650  -0.004405   0.000054
    10  C    0.395467   0.409290   0.012812  -0.010932  -0.013101  -0.002231
    11  C    0.011316  -0.010116   0.424226   0.406334   0.430754  -0.001231
    12  O   -0.000341   0.001088   0.000355   0.000166  -0.000128   0.291224
    13  H   -0.000599   0.000073  -0.000037  -0.000017  -0.000035  -0.000339
    14  H   -0.000009  -0.000001   0.000000  -0.000000  -0.000001   0.000003
    15  H   -0.000000   0.000000   0.000000   0.000000   0.000001  -0.000000
    16  H   -0.000002  -0.000000   0.000014  -0.000001   0.000001   0.000000
    17  H    0.000011  -0.000049  -0.004794   0.000902  -0.005609   0.000001
    18  H   -0.020649  -0.024087  -0.000283   0.000084   0.001485   0.000104
    19  H    0.504855  -0.021551  -0.000316   0.000010  -0.000145  -0.000013
    20  H   -0.021551   0.515928  -0.000082   0.003058   0.000428  -0.000156
    21  H   -0.000316  -0.000082   0.475435  -0.014345  -0.029599  -0.000100
    22  H    0.000010   0.003058  -0.014345   0.496555  -0.020616  -0.000044
    23  H   -0.000145   0.000428  -0.029599  -0.020616   0.511784   0.000036
    24  H   -0.000013  -0.000156  -0.000100  -0.000044   0.000036   0.374926
 Mulliken charges:
               1
     1  O   -0.326125
     2  C    0.361499
     3  C   -0.087912
     4  C    0.119074
     5  C   -0.208804
     6  C   -0.152299
     7  C   -0.152629
     8  C   -0.146227
     9  C   -0.179985
    10  C   -0.402203
    11  C   -0.519243
    12  O   -0.419295
    13  H    0.182109
    14  H    0.144173
    15  H    0.143884
    16  H    0.143038
    17  H    0.168764
    18  H    0.159067
    19  H    0.161441
    20  H    0.154630
    21  H    0.189847
    22  H    0.162265
    23  H    0.167832
    24  H    0.337100
 Sum of Mulliken charges =  -0.00000
 Mulliken charges with hydrogens summed into heavy atoms:
               1
     1  O   -0.326125
     2  C    0.361499
     3  C   -0.087912
     4  C    0.119074
     5  C   -0.026696
     6  C   -0.008126
     7  C   -0.008746
     8  C   -0.003189
     9  C   -0.011221
    10  C    0.072936
    11  C    0.000701
    12  O   -0.082195
 Electronic spatial extent (au):  <R**2>=           2031.7198
 Charge=             -0.0000 electrons
 Dipole moment (field-independent basis, Debye):
    X=              0.5168    Y=             -0.5441    Z=              1.4346  Tot=              1.6190
 Quadrupole moment (field-independent basis, Debye-Ang):
   XX=            -67.5798   YY=            -64.3292   ZZ=            -78.1315
   XY=              2.4597   XZ=             -4.3089   YZ=              1.7656
 Traceless Quadrupole moment (field-independent basis, Debye-Ang):
   XX=              2.4337   YY=              5.6843   ZZ=             -8.1180
   XY=              2.4597   XZ=             -4.3089   YZ=              1.7656
 Octapole moment (field-independent basis, Debye-Ang**2):
  XXX=             -1.9210  YYY=            -16.0293  ZZZ=              4.0119  XYY=             -8.9876
  XXY=            -13.1736  XXZ=             -2.4081  XZZ=             -4.6669  YZZ=             -4.2455
  YYZ=             -9.3872  XYZ=            -11.5921
 Hexadecapole moment (field-independent basis, Debye-Ang**3):
 XXXX=          -1567.8493 YYYY=           -587.4592 ZZZZ=           -424.0841 XXXY=             35.3261
 XXXZ=            -22.6198 YYYX=             40.3126 YYYZ=              9.0034 ZZZX=             -3.5121
 ZZZY=              6.9109 XXYY=           -338.6324 XXZZ=           -385.8104 YYZZ=           -165.4358
 XXYZ=             13.8117 YYXZ=             22.3688 ZZXY=             15.8999
 N-N= 6.981929927109D+02 E-N=-2.651383651291D+03  KE= 5.358991702123D+02
 Unable to Open any file for archive entry.
 1\1\GINC-NOTCH075\SP\RM062X\def2TZVP\C10H12O2\U6032257\03-Feb-2022\0\\
 # M062X/def2tzvp int=(grid=ultrafine) nmr=giao guess=read geom=check\\
 Ac5.xyz\\0,1\O,0,-2.2924472256,-1.2121581021,1.4075962079\C,0,-1.82028
 64226,-0.1627921521,1.0314734184\C,0,-1.1084130799,0.0560815428,-0.309
 8448862\C,0,0.3932718768,-0.1818954842,-0.0528023283\C,0,1.0868366181,
 0.6425435983,0.8467731011\C,0,2.4473477706,0.4618539057,1.0826860871\C
 ,0,3.1472940958,-0.5494828508,0.4235198323\C,0,2.4689345373,-1.3786098
 296,-0.466508202\C,0,1.1041417466,-1.1988424758,-0.6989523469\C,0,-1.3
 273430823,1.490551783,-0.8359099338\C,0,-1.7076682419,-0.9434834955,-1
 .3098449836\O,0,-1.8570938252,0.9534078771,1.8044123435\H,0,0.55357684
 29,1.423628277,1.3770178994\H,0,2.9608852453,1.1122547426,1.7844551871
 \H,0,4.2081671711,-0.690905282,0.605470075\H,0,2.9984852873,-2.1731750
 824,-0.9835844365\H,0,0.6007925537,-1.8618043692,-1.3914781226\H,0,-0.
 8179644181,1.6008512699,-1.7972096215\H,0,-0.935984487,2.2427732474,-0
 .1513694357\H,0,-2.3933254454,1.6882260878,-0.9848967207\H,0,-1.619023
 5201,-1.9692770277,-0.9504679095\H,0,-2.7709182623,-0.7321024897,-1.45
 02753471\H,0,-1.2134843969,-0.8533070114,-2.2806282494\H,0,-2.28118133
 83,0.681063321,2.635868372\\Version=ES64L-G16RevC.01\State=1-A\HF=-538
 .7377222\RMSD=1.976e-09\Dipole=0.2676444,0.5528435,-0.1686587\Quadrupo
 le=0.8865287,-2.8037992,1.9172705,-3.9947049,1.0024365,4.5812049\PG=C0
 1 [X(C10H12O2)]\\@
 The archive entry for this job was punched.


 LIFE CAN ONLY BE UNDERSTOOD BACKWARD, BUT MUST
 BE LIVED FORWARD. -- KIRKEGAARD
 Job cpu time:       0 days  0 hours 37 minutes 52.3 seconds.
 Elapsed time:       0 days  0 hours  1 minutes 18.2 seconds.
 File lengths (MBytes):  RWF=    114 Int=      0 D2E=      0 Chk=     19 Scr=      1
 Normal termination of Gaussian 16 at Thu Feb  3 03:44:27 2022.
