 Entering Gaussian System, Link 0=/uufs/chpc.utah.edu/sys/installdir/gaussian16/C01/AVX2/g16/g16
 Input=N1_conf-4.com
 Output=N1_conf-4.log
 Initial command:
 /uufs/chpc.utah.edu/sys/installdir/gaussian16/C01/AVX2/g16/l1.exe "/scratch/local/u6032257/4038467/notchpeak.peaks/Gau-58003.inp" -scrdir="/scratch/local/u6032257/4038467/notchpeak.peaks/"
 Entering Link 1 = /uufs/chpc.utah.edu/sys/installdir/gaussian16/C01/AVX2/g16/l1.exe PID=     58005.
  
 Copyright (c) 1988-2019, Gaussian, Inc.  All Rights Reserved.
  
 This is part of the Gaussian(R) 16 program.  It is based on
 the Gaussian(R) 09 system (copyright 2009, Gaussian, Inc.),
 the Gaussian(R) 03 system (copyright 2003, Gaussian, Inc.),
 the Gaussian(R) 98 system (copyright 1998, Gaussian, Inc.),
 the Gaussian(R) 94 system (copyright 1995, Gaussian, Inc.),
 the Gaussian 92(TM) system (copyright 1992, Gaussian, Inc.),
 the Gaussian 90(TM) system (copyright 1990, Gaussian, Inc.),
 the Gaussian 88(TM) system (copyright 1988, Gaussian, Inc.),
 the Gaussian 86(TM) system (copyright 1986, Carnegie Mellon
 University), and the Gaussian 82(TM) system (copyright 1983,
 Carnegie Mellon University). Gaussian is a federally registered
 trademark of Gaussian, Inc.
  
 This software contains proprietary and confidential information,
 including trade secrets, belonging to Gaussian, Inc.
  
 This software is provided under written license and may be
 used, copied, transmitted, or stored only in accord with that
 written license.
  
 The following legend is applicable only to US Government
 contracts under FAR:
  
                    RESTRICTED RIGHTS LEGEND
  
 Use, reproduction and disclosure by the US Government is
 subject to restrictions as set forth in subparagraphs (a)
 and (c) of the Commercial Computer Software - Restricted
 Rights clause in FAR 52.227-19.
  
 Gaussian, Inc.
 340 Quinnipiac St., Bldg. 40, Wallingford CT 06492
  
  
 ---------------------------------------------------------------
 Warning -- This program may not be used in any manner that
 competes with the business of Gaussian, Inc. or will provide
 assistance to any competitor of Gaussian, Inc.  The licensee
 of this program is prohibited from giving any competitor of
 Gaussian, Inc. access to this program.  By using this program,
 the user acknowledges that Gaussian, Inc. is engaged in the
 business of creating and licensing software in the field of
 computational chemistry and represents and warrants to the
 licensee that it is not a competitor of Gaussian, Inc. and that
 it will not use this program in any manner prohibited above.
 ---------------------------------------------------------------
  

 Cite this work as:
 Gaussian 16, Revision C.01,
 M. J. Frisch, G. W. Trucks, H. B. Schlegel, G. E. Scuseria, 
 M. A. Robb, J. R. Cheeseman, G. Scalmani, V. Barone, 
 G. A. Petersson, H. Nakatsuji, X. Li, M. Caricato, A. V. Marenich, 
 J. Bloino, B. G. Janesko, R. Gomperts, B. Mennucci, H. P. Hratchian, 
 J. V. Ortiz, A. F. Izmaylov, J. L. Sonnenberg, D. Williams-Young, 
 F. Ding, F. Lipparini, F. Egidi, J. Goings, B. Peng, A. Petrone, 
 T. Henderson, D. Ranasinghe, V. G. Zakrzewski, J. Gao, N. Rega, 
 G. Zheng, W. Liang, M. Hada, M. Ehara, K. Toyota, R. Fukuda, 
 J. Hasegawa, M. Ishida, T. Nakajima, Y. Honda, O. Kitao, H. Nakai, 
 T. Vreven, K. Throssell, J. A. Montgomery, Jr., J. E. Peralta, 
 F. Ogliaro, M. J. Bearpark, J. J. Heyd, E. N. Brothers, K. N. Kudin, 
 V. N. Staroverov, T. A. Keith, R. Kobayashi, J. Normand, 
 K. Raghavachari, A. P. Rendell, J. C. Burant, S. S. Iyengar, 
 J. Tomasi, M. Cossi, J. M. Millam, M. Klene, C. Adamo, R. Cammi, 
 J. W. Ochterski, R. L. Martin, K. Morokuma, O. Farkas, 
 J. B. Foresman, and D. J. Fox, Gaussian, Inc., Wallingford CT, 2019.
 
 ******************************************
 Gaussian 16:  ES64L-G16RevC.01  3-Jul-2019
                21-Feb-2022 
 ******************************************
 %NProcShared=64
 Will use up to   64 processors via shared memory.
 %mem=16GB
 %chk=N1_conf-4.chk
 ----------------------------------------------------------------------
 # B3LYP/6-31G(d,p) empiricaldispersion=GD3BJ int=(grid=ultrafine) opt 
 freq=noraman
 ----------------------------------------------------------------------
 1/18=20,19=15,26=4,38=1/1,3;
 2/9=110,12=2,17=6,18=5,40=1/2;
 3/5=1,6=6,7=101,11=2,25=1,30=1,71=1,74=-5,75=-5,124=41/1,2,3;
 4//1;
 5/5=2,38=5/2;
 6/7=2,8=2,9=2,10=2,28=1/1;
 7//1,2,3,16;
 1/18=20,19=15,26=4/3(2);
 2/9=110/2;
 99//99;
 2/9=110/2;
 3/5=1,6=6,7=101,11=2,25=1,30=1,71=1,74=-5,75=-5,124=41/1,2,3;
 4/5=5,16=3,69=1/1;
 5/5=2,38=5/2;
 7//1,2,3,16;
 1/18=20,19=15,26=4/3(-5);
 2/9=110/2;
 6/7=2,8=2,9=2,10=2,19=2,28=1/1;
 99/9=1/99;
 ------
 N1.xyz
 ------
 Symbolic Z-matrix:
 Charge =  0 Multiplicity = 1
 N                    -0.4017   -1.0684   -2.0472 
 C                     0.5181   -0.0507   -1.5579 
 C                     1.0244   -0.4265   -0.1476 
 O                    -0.033    -0.4993    0.8115 
 C                    -0.5638    0.7525    1.2282 
 H                    -0.9981   -0.7096   -2.7795 
 H                    -1.0098   -1.3252   -1.2761 
 H                     1.3597    0.0377   -2.2478 
 H                     0.0248    0.922    -1.5382 
 H                     1.5013   -1.4073   -0.1858 
 H                     1.796     0.2699    0.1855 
 H                    -1.0512    1.2831    0.4101 
 H                     0.2106    1.3943    1.6514 
 H                    -1.3133    0.5858    2.002 
 

 GradGradGradGradGradGradGradGradGradGradGradGradGradGradGradGradGradGrad
 Berny optimization.
 Initialization pass.
                           ----------------------------
                           !    Initial Parameters    !
                           ! (Angstroms and Degrees)  !
 --------------------------                            --------------------------
 ! Name  Definition              Value          Derivative Info.                !
 --------------------------------------------------------------------------------
 ! R1    R(1,2)                  1.4564         estimate D2E/DX2                !
 ! R2    R(1,6)                  1.0103         estimate D2E/DX2                !
 ! R3    R(1,7)                  1.0151         estimate D2E/DX2                !
 ! R4    R(2,3)                  1.5448         estimate D2E/DX2                !
 ! R5    R(2,8)                  1.0918         estimate D2E/DX2                !
 ! R6    R(2,9)                  1.0908         estimate D2E/DX2                !
 ! R7    R(3,4)                  1.4294         estimate D2E/DX2                !
 ! R8    R(3,10)                 1.0913         estimate D2E/DX2                !
 ! R9    R(3,11)                 1.0915         estimate D2E/DX2                !
 ! R10   R(4,5)                  1.4221         estimate D2E/DX2                !
 ! R11   R(5,12)                 1.0901         estimate D2E/DX2                !
 ! R12   R(5,13)                 1.0912         estimate D2E/DX2                !
 ! R13   R(5,14)                 1.0901         estimate D2E/DX2                !
 ! A1    A(2,1,6)              111.6029         estimate D2E/DX2                !
 ! A2    A(2,1,7)              107.4525         estimate D2E/DX2                !
 ! A3    A(6,1,7)              106.6684         estimate D2E/DX2                !
 ! A4    A(1,2,3)              110.1025         estimate D2E/DX2                !
 ! A5    A(1,2,8)              109.3357         estimate D2E/DX2                !
 ! A6    A(1,2,9)              110.0943         estimate D2E/DX2                !
 ! A7    A(3,2,8)              110.116          estimate D2E/DX2                !
 ! A8    A(3,2,9)              110.4046         estimate D2E/DX2                !
 ! A9    A(8,2,9)              106.7265         estimate D2E/DX2                !
 ! A10   A(2,3,4)              112.4877         estimate D2E/DX2                !
 ! A11   A(2,3,10)             109.2631         estimate D2E/DX2                !
 ! A12   A(2,3,11)             110.7988         estimate D2E/DX2                !
 ! A13   A(4,3,10)             107.517          estimate D2E/DX2                !
 ! A14   A(4,3,11)             110.5285         estimate D2E/DX2                !
 ! A15   A(10,3,11)            105.9736         estimate D2E/DX2                !
 ! A16   A(3,4,5)              115.333          estimate D2E/DX2                !
 ! A17   A(4,5,12)             112.0506         estimate D2E/DX2                !
 ! A18   A(4,5,13)             111.4987         estimate D2E/DX2                !
 ! A19   A(4,5,14)             109.2698         estimate D2E/DX2                !
 ! A20   A(12,5,13)            108.7886         estimate D2E/DX2                !
 ! A21   A(12,5,14)            107.4418         estimate D2E/DX2                !
 ! A22   A(13,5,14)            107.6131         estimate D2E/DX2                !
 ! D1    D(6,1,2,3)            158.9843         estimate D2E/DX2                !
 ! D2    D(6,1,2,8)            -79.9145         estimate D2E/DX2                !
 ! D3    D(6,1,2,9)             37.0312         estimate D2E/DX2                !
 ! D4    D(7,1,2,3)             42.3765         estimate D2E/DX2                !
 ! D5    D(7,1,2,8)            163.4777         estimate D2E/DX2                !
 ! D6    D(7,1,2,9)            -79.5766         estimate D2E/DX2                !
 ! D7    D(1,2,3,4)            -61.8907         estimate D2E/DX2                !
 ! D8    D(1,2,3,10)            57.4334         estimate D2E/DX2                !
 ! D9    D(1,2,3,11)           173.8299         estimate D2E/DX2                !
 ! D10   D(8,2,3,4)            177.4762         estimate D2E/DX2                !
 ! D11   D(8,2,3,10)           -63.1998         estimate D2E/DX2                !
 ! D12   D(8,2,3,11)            53.1967         estimate D2E/DX2                !
 ! D13   D(9,2,3,4)             59.8782         estimate D2E/DX2                !
 ! D14   D(9,2,3,10)           179.2022         estimate D2E/DX2                !
 ! D15   D(9,2,3,11)           -64.4013         estimate D2E/DX2                !
 ! D16   D(2,3,4,5)            -73.8265         estimate D2E/DX2                !
 ! D17   D(10,3,4,5)           165.837          estimate D2E/DX2                !
 ! D18   D(11,3,4,5)            50.6021         estimate D2E/DX2                !
 ! D19   D(3,4,5,12)            64.6837         estimate D2E/DX2                !
 ! D20   D(3,4,5,13)           -57.5262         estimate D2E/DX2                !
 ! D21   D(3,4,5,14)          -176.3566         estimate D2E/DX2                !
 --------------------------------------------------------------------------------
 Trust Radius=3.00D-01 FncErr=1.00D-07 GrdErr=1.00D-06 EigMax=2.50D+02 EigMin=1.00D-04
 Number of steps in this run=     66 maximum allowed number of steps=    100.
 GradGradGradGradGradGradGradGradGradGradGradGradGradGradGradGradGradGrad

                          Input orientation:                          
 ---------------------------------------------------------------------
 Center     Atomic      Atomic             Coordinates (Angstroms)
 Number     Number       Type             X           Y           Z
 ---------------------------------------------------------------------
      1          7           0       -0.401700   -1.068400   -2.047200
      2          6           0        0.518100   -0.050700   -1.557900
      3          6           0        1.024400   -0.426500   -0.147600
      4          8           0       -0.033000   -0.499300    0.811500
      5          6           0       -0.563800    0.752500    1.228200
      6          1           0       -0.998100   -0.709600   -2.779500
      7          1           0       -1.009800   -1.325200   -1.276100
      8          1           0        1.359700    0.037700   -2.247800
      9          1           0        0.024800    0.922000   -1.538200
     10          1           0        1.501300   -1.407300   -0.185800
     11          1           0        1.796000    0.269900    0.185500
     12          1           0       -1.051200    1.283100    0.410100
     13          1           0        0.210600    1.394300    1.651400
     14          1           0       -1.313300    0.585800    2.002000
 ---------------------------------------------------------------------
                    Distance matrix (angstroms):
                    1          2          3          4          5
     1  N    0.000000
     2  C    1.456420   0.000000
     3  C    2.460544   1.544834   0.000000
     4  O    2.938023   2.473663   1.429429   0.000000
     5  C    3.751026   3.094833   2.409408   1.422108   0.000000
     6  H    1.010294   2.055558   3.331298   3.724369   4.288125
     7  H    1.015050   2.009537   2.493821   2.448331   3.284398
     8  H    2.089552   1.091818   2.176867   3.404012   4.036504
     9  H    2.098255   1.090815   2.179775   2.746730   2.833399
    10  H    2.683481   2.165572   1.091266   2.042828   3.305869
    11  H    3.406741   2.185236   1.091465   2.080573   2.624649
    12  H    3.462618   2.848640   2.746248   2.091603   1.090130
    13  H    4.485470   3.533014   2.685886   2.085784   1.091192
    14  H    4.468044   4.053646   3.333223   2.057644   1.090094
                    6          7          8          9         10
     6  H    0.000000
     7  H    1.624596   0.000000
     8  H    2.529898   2.901074   0.000000
     9  H    2.291128   2.487770   1.751421   0.000000
    10  H    3.668932   2.738817   2.521888   3.071592   0.000000
    11  H    4.190184   3.543040   2.482987   2.556076   1.742903
    12  H    3.761279   3.106157   3.798407   2.254782   3.756142
    13  H    5.051755   4.177956   4.285389   3.229727   3.590289
    14  H    4.963885   3.806570   5.050361   3.799547   4.084224
                   11         12         13         14
    11  H    0.000000
    12  H    3.030440   0.000000
    13  H    2.434467   1.773508   0.000000
    14  H    3.614860   1.757575   1.760359   0.000000
 Stoichiometry    C3H9NO
 Framework group  C1[X(C3H9NO)]
 Deg. of freedom    36
 Full point group                 C1      NOp   1
 Largest Abelian subgroup         C1      NOp   1
 Largest concise Abelian subgroup C1      NOp   1
                         Standard orientation:                         
 ---------------------------------------------------------------------
 Center     Atomic      Atomic             Coordinates (Angstroms)
 Number     Number       Type             X           Y           Z
 ---------------------------------------------------------------------
      1          7           0       -1.840426   -0.610939   -0.328227
      2          6           0       -1.127762    0.269199    0.587538
      3          6           0        0.029733    0.978107   -0.150138
      4          8           0        1.001704    0.058760   -0.653469
      5          6           0        1.852118   -0.524419    0.325862
      6          1           0       -2.357995   -1.323079    0.167426
      7          1           0       -1.145672   -1.093389   -0.889374
      8          1           0       -1.822286    1.007370    0.993504
      9          1           0       -0.745688   -0.301672    1.434889
     10          1           0       -0.370939    1.531184   -1.001272
     11          1           0        0.503128    1.720690    0.494658
     12          1           0        1.300633   -1.154655    1.023751
     13          1           0        2.392038    0.236952    0.891106
     14          1           0        2.591602   -1.154227   -0.168921
 ---------------------------------------------------------------------
 Rotational constants (GHZ):           9.3538015           3.0382764           2.8312132
 Standard basis: 6-31G(d,p) (6D, 7F)
 There are   120 symmetry adapted cartesian basis functions of A   symmetry.
 There are   120 symmetry adapted basis functions of A   symmetry.
   120 basis functions,   203 primitive gaussians,   120 cartesian basis functions
    21 alpha electrons       21 beta electrons
       nuclear repulsion energy       194.6738954284 Hartrees.
 NAtoms=   14 NActive=   14 NUniq=   14 SFac= 1.00D+00 NAtFMM=   60 NAOKFM=F Big=F
 Integral buffers will be    131072 words long.
 Raffenetti 2 integral format.
 Two-electron integral symmetry is turned on.
 Nuclear repulsion after empirical dispersion term =      194.6586506333 Hartrees.
 One-electron integrals computed using PRISM.
 NBasis=   120 RedAO= T EigKep=  5.06D-03  NBF=   120
 NBsUse=   120 1.00D-06 EigRej= -1.00D+00 NBFU=   120
 ExpMin= 1.61D-01 ExpMax= 5.48D+03 ExpMxC= 8.25D+02 IAcc=3 IRadAn=         5 AccDes= 0.00D+00
 Harris functional with IExCor=  402 and IRadAn=       5 diagonalized for initial guess.
 HarFok:  IExCor=  402 AccDes= 0.00D+00 IRadAn=         5 IDoV= 1 UseB2=F ITyADJ=14
 ICtDFT=  3500011 ScaDFX=  1.000000  1.000000  1.000000  1.000000
 FoFCou: FMM=F IPFlag=           0 FMFlag=      100000 FMFlg1=           0
         NFxFlg=           0 DoJE=T BraDBF=F KetDBF=T FulRan=T
         wScrn=  0.000000 ICntrl=       500 IOpCl=  0 I1Cent=   200000004 NGrid=           0
         NMat0=    1 NMatS0=      1 NMatT0=    0 NMatD0=    1 NMtDS0=    0 NMtDT0=    0
 Petite list used in FoFCou.
 Requested convergence on RMS density matrix=1.00D-08 within 128 cycles.
 Requested convergence on MAX density matrix=1.00D-06.
 Requested convergence on             energy=1.00D-06.
 No special actions if energy rises.
 Integral accuracy reduced to 1.0D-05 until final iterations.
 Initial convergence to 1.0D-05 achieved.  Increase integral accuracy.
 SCF Done:  E(RB3LYP) =  -249.711369051     A.U. after   12 cycles
            NFock= 12  Conv=0.89D-08     -V/T= 2.0092

 **********************************************************************

            Population analysis using the SCF Density.

 **********************************************************************

 Orbital symmetries:
       Occupied  (A) (A) (A) (A) (A) (A) (A) (A) (A) (A) (A) (A)
                 (A) (A) (A) (A) (A) (A) (A) (A) (A)
       Virtual   (A) (A) (A) (A) (A) (A) (A) (A) (A) (A) (A) (A)
                 (A) (A) (A) (A) (A) (A) (A) (A) (A) (A) (A) (A)
                 (A) (A) (A) (A) (A) (A) (A) (A) (A) (A) (A) (A)
                 (A) (A) (A) (A) (A) (A) (A) (A) (A) (A) (A) (A)
                 (A) (A) (A) (A) (A) (A) (A) (A) (A) (A) (A) (A)
                 (A) (A) (A) (A) (A) (A) (A) (A) (A) (A) (A) (A)
                 (A) (A) (A) (A) (A) (A) (A) (A) (A) (A) (A) (A)
                 (A) (A) (A) (A) (A) (A) (A) (A) (A) (A) (A) (A)
                 (A) (A) (A)
 The electronic state is 1-A.
 Alpha  occ. eigenvalues --  -19.14954 -14.29969 -10.22963 -10.22777 -10.20307
 Alpha  occ. eigenvalues --   -1.02516  -0.87247  -0.73377  -0.67488  -0.59292
 Alpha  occ. eigenvalues --   -0.49700  -0.48559  -0.46927  -0.44289  -0.42143
 Alpha  occ. eigenvalues --   -0.39003  -0.37419  -0.36858  -0.30696  -0.25792
 Alpha  occ. eigenvalues --   -0.22289
 Alpha virt. eigenvalues --    0.07963   0.11757   0.12036   0.14219   0.15028
 Alpha virt. eigenvalues --    0.15493   0.16957   0.18144   0.19615   0.21558
 Alpha virt. eigenvalues --    0.22983   0.25427   0.26765   0.51134   0.51795
 Alpha virt. eigenvalues --    0.53680   0.56142   0.57690   0.58218   0.64161
 Alpha virt. eigenvalues --    0.68037   0.73749   0.74701   0.78703   0.81308
 Alpha virt. eigenvalues --    0.82421   0.84437   0.85268   0.87273   0.90695
 Alpha virt. eigenvalues --    0.91059   0.92105   0.94108   0.96042   0.98300
 Alpha virt. eigenvalues --    1.03723   1.12464   1.16767   1.19388   1.30435
 Alpha virt. eigenvalues --    1.33453   1.37445   1.41707   1.48023   1.60109
 Alpha virt. eigenvalues --    1.62678   1.67321   1.68521   1.77463   1.85446
 Alpha virt. eigenvalues --    1.86095   1.91201   1.94253   1.96508   1.99069
 Alpha virt. eigenvalues --    2.00838   2.03108   2.05027   2.06991   2.11097
 Alpha virt. eigenvalues --    2.12017   2.16164   2.19972   2.24767   2.27778
 Alpha virt. eigenvalues --    2.32777   2.39216   2.40638   2.42485   2.46380
 Alpha virt. eigenvalues --    2.53884   2.56678   2.60425   2.63066   2.67123
 Alpha virt. eigenvalues --    2.69776   2.73230   2.76542   2.82600   2.85485
 Alpha virt. eigenvalues --    2.90512   2.92538   2.95602   3.00167   3.04378
 Alpha virt. eigenvalues --    3.18420   3.29964   3.31674   3.32891   3.37313
 Alpha virt. eigenvalues --    3.43544   3.44183   3.52501   3.57890   3.94037
 Alpha virt. eigenvalues --    3.98021   4.40772   4.44684   4.63237
          Condensed to atoms (all electrons):
               1          2          3          4          5          6
     1  N    6.769294   0.310705  -0.044283  -0.006806   0.000123   0.340174
     2  C    0.310705   4.872179   0.358997  -0.047398  -0.005693  -0.033197
     3  C   -0.044283   0.358997   4.744412   0.257475  -0.040403   0.004699
     4  O   -0.006806  -0.047398   0.257475   8.179208   0.260922   0.000004
     5  C    0.000123  -0.005693  -0.040403   0.260922   4.713726  -0.000024
     6  H    0.340174  -0.033197   0.004699   0.000004  -0.000024   0.498872
     7  H    0.340264  -0.048629  -0.015914   0.021132   0.000056  -0.035084
     8  H   -0.049662   0.367401  -0.022868   0.003244   0.000157   0.000081
     9  H   -0.056698   0.372350  -0.032404  -0.005321   0.001413  -0.008143
    10  H    0.000651  -0.045370   0.387899  -0.035694   0.005369  -0.000080
    11  H    0.003836  -0.048856   0.361395  -0.034946  -0.009447  -0.000263
    12  H    0.001033   0.004072  -0.003764  -0.040410   0.371421   0.000070
    13  H    0.000015  -0.001323  -0.009627  -0.036661   0.372073  -0.000001
    14  H   -0.000038  -0.000059   0.004984  -0.030632   0.395029  -0.000003
               7          8          9         10         11         12
     1  N    0.340264  -0.049662  -0.056698   0.000651   0.003836   0.001033
     2  C   -0.048629   0.367401   0.372350  -0.045370  -0.048856   0.004072
     3  C   -0.015914  -0.022868  -0.032404   0.387899   0.361395  -0.003764
     4  O    0.021132   0.003244  -0.005321  -0.035694  -0.034946  -0.040410
     5  C    0.000056   0.000157   0.001413   0.005369  -0.009447   0.371421
     6  H   -0.035084   0.000081  -0.008143  -0.000080  -0.000263   0.000070
     7  H    0.487649   0.007420  -0.001272  -0.000439   0.000942  -0.001115
     8  H    0.007420   0.652574  -0.054651  -0.003382   0.000490  -0.000400
     9  H   -0.001272  -0.054651   0.702109   0.006438  -0.001961   0.001587
    10  H   -0.000439  -0.003382   0.006438   0.604934  -0.039759  -0.000308
    11  H    0.000942   0.000490  -0.001961  -0.039759   0.673940  -0.001581
    12  H   -0.001115  -0.000400   0.001587  -0.000308  -0.001581   0.665721
    13  H    0.000203   0.000056  -0.000016  -0.000016   0.013064  -0.051845
    14  H   -0.000063   0.000001  -0.000042  -0.000180  -0.000078  -0.039582
              13         14
     1  N    0.000015  -0.000038
     2  C   -0.001323  -0.000059
     3  C   -0.009627   0.004984
     4  O   -0.036661  -0.030632
     5  C    0.372073   0.395029
     6  H   -0.000001  -0.000003
     7  H    0.000203  -0.000063
     8  H    0.000056   0.000001
     9  H   -0.000016  -0.000042
    10  H   -0.000016  -0.000180
    11  H    0.013064  -0.000078
    12  H   -0.051845  -0.039582
    13  H    0.655768  -0.035856
    14  H   -0.035856   0.589621
 Mulliken charges:
               1
     1  N   -0.608608
     2  C   -0.055178
     3  C    0.049403
     4  O   -0.484117
     5  C   -0.064721
     6  H    0.232894
     7  H    0.244853
     8  H    0.099540
     9  H    0.076609
    10  H    0.119938
    11  H    0.083225
    12  H    0.095100
    13  H    0.094168
    14  H    0.116895
 Sum of Mulliken charges =  -0.00000
 Mulliken charges with hydrogens summed into heavy atoms:
               1
     1  N   -0.130861
     2  C    0.120970
     3  C    0.252566
     4  O   -0.484117
     5  C    0.241442
 Electronic spatial extent (au):  <R**2>=            505.9724
 Charge=              0.0000 electrons
 Dipole moment (field-independent basis, Debye):
    X=              0.8492    Y=             -0.6125    Z=              1.9744  Tot=              2.2348
 Quadrupole moment (field-independent basis, Debye-Ang):
   XX=            -33.3511   YY=            -28.7402   ZZ=            -33.5875
   XY=              0.4801   XZ=             -0.8845   YZ=             -0.1120
 Traceless Quadrupole moment (field-independent basis, Debye-Ang):
   XX=             -1.4581   YY=              3.1527   ZZ=             -1.6946
   XY=              0.4801   XZ=             -0.8845   YZ=             -0.1120
 Octapole moment (field-independent basis, Debye-Ang**2):
  XXX=             13.0103  YYY=             -3.4740  ZZZ=             -2.5940  XYY=             -3.1212
  XXY=             -7.0300  XXZ=              8.0888  XZZ=              0.0919  YZZ=             -0.8285
  YYZ=             -1.9280  XYZ=              1.0814
 Hexadecapole moment (field-independent basis, Debye-Ang**3):
 XXXX=           -426.7403 YYYY=           -127.8250 ZZZZ=            -96.3339 XXXY=              5.7916
 XXXZ=            -18.7323 YYYX=              8.0736 YYYZ=              0.4600 ZZZX=             -1.5907
 ZZZY=             -0.3807 XXYY=            -80.1705 XXZZ=            -91.5134 YYZZ=            -35.4299
 XXYZ=             -0.1804 YYXZ=             -0.7759 ZZXY=              0.8867
 N-N= 1.946586506333D+02 E-N=-9.712180993689D+02  KE= 2.474246425715D+02
 Calling FoFJK, ICntrl=      2127 FMM=F ISym2X=0 I1Cent= 0 IOpClX= 0 NMat=1 NMatS=1 NMatT=0.
 ***** Axes restored to original set *****
 -------------------------------------------------------------------
 Center     Atomic                   Forces (Hartrees/Bohr)
 Number     Number              X              Y              Z
 -------------------------------------------------------------------
      1        7           0.002637377   -0.012712591    0.004575036
      2        6          -0.003730744   -0.002376563    0.004414341
      3        6          -0.006642121    0.006379071   -0.007476142
      4        8          -0.001042637   -0.003627462    0.000856804
      5        6           0.003806055   -0.004601181   -0.004213611
      6        1          -0.001227909    0.002797741   -0.003506670
      7        1          -0.002562344   -0.000740858    0.001191524
      8        1           0.005016618    0.000017792    0.000349541
      9        1           0.002887343    0.010630898    0.004538832
     10        1          -0.004608339   -0.004239328    0.001055151
     11        1           0.002134648    0.007178333    0.000861196
     12        1          -0.001523427    0.003712738   -0.004186797
     13        1           0.005020017    0.003650898    0.000796731
     14        1          -0.000164538   -0.006069488    0.000744063
 -------------------------------------------------------------------
 Cartesian Forces:  Max     0.012712591 RMS     0.004478573

 GradGradGradGradGradGradGradGradGradGradGradGradGradGradGradGradGradGrad
 Berny optimization.
 FormGI is forming the generalized inverse of G from B-inverse, IUseBI=4.
 Internal  Forces:  Max     0.012127970 RMS     0.004211023
 Search for a local minimum.
 Step number   1 out of a maximum of   66
 All quantities printed in internal units (Hartrees-Bohrs-Radians)
 Mixed Optimization -- RFO/linear search
 Second derivative matrix not updated -- first step.
 ITU=  0
     Eigenvalues ---    0.00230   0.00945   0.01302   0.01399   0.04356
     Eigenvalues ---    0.04544   0.04628   0.05410   0.05724   0.09127
     Eigenvalues ---    0.09927   0.10289   0.11667   0.12619   0.13990
     Eigenvalues ---    0.16000   0.16000   0.16000   0.16000   0.16000
     Eigenvalues ---    0.21885   0.21979   0.25000   0.28095   0.34603
     Eigenvalues ---    0.34644   0.34667   0.34675   0.34719   0.34798
     Eigenvalues ---    0.34802   0.37416   0.41071   0.42144   0.45137
     Eigenvalues ---    0.45923
 RFO step:  Lambda=-5.36705991D-03 EMin= 2.30000000D-03
 Linear search not attempted -- first point.
 Iteration  1 RMS(Cart)=  0.04433634 RMS(Int)=  0.00114397
 Iteration  2 RMS(Cart)=  0.00107375 RMS(Int)=  0.00038401
 Iteration  3 RMS(Cart)=  0.00000125 RMS(Int)=  0.00038401
 Iteration  4 RMS(Cart)=  0.00000000 RMS(Int)=  0.00038401
 Variable       Old X    -DE/DX   Delta X   Delta X   Delta X     New X
                                 (Linear)    (Quad)   (Total)
    R1        2.75224   0.00741   0.00000   0.01953   0.01953   2.77177
    R2        1.90918   0.00426   0.00000   0.00917   0.00917   1.91835
    R3        1.91817   0.00263   0.00000   0.00575   0.00575   1.92392
    R4        2.91931  -0.01213   0.00000  -0.04236  -0.04236   2.87695
    R5        2.06324   0.00365   0.00000   0.01038   0.01038   2.07362
    R6        2.06134   0.00825   0.00000   0.02341   0.02341   2.08476
    R7        2.70123  -0.00818   0.00000  -0.01967  -0.01967   2.68156
    R8        2.06219   0.00176   0.00000   0.00500   0.00500   2.06719
    R9        2.06257   0.00635   0.00000   0.01805   0.01805   2.08062
   R10        2.68739  -0.00758   0.00000  -0.01776  -0.01776   2.66963
   R11        2.06005   0.00563   0.00000   0.01594   0.01594   2.07599
   R12        2.06205   0.00602   0.00000   0.01709   0.01709   2.07915
   R13        2.05998   0.00157   0.00000   0.00444   0.00444   2.06442
    A1        1.94784  -0.00310   0.00000  -0.01935  -0.01933   1.92851
    A2        1.87540   0.00204   0.00000   0.01168   0.01171   1.88711
    A3        1.86171   0.00026   0.00000   0.00032   0.00038   1.86209
    A4        1.92165  -0.00601   0.00000  -0.02574  -0.02573   1.89593
    A5        1.90827   0.00278   0.00000   0.01094   0.00952   1.91779
    A6        1.92151   0.00803   0.00000   0.08128   0.08103   2.00254
    A7        1.92189  -0.00129   0.00000  -0.03843  -0.03887   1.88301
    A8        1.92692  -0.00258   0.00000  -0.02310  -0.02299   1.90393
    A9        1.86273  -0.00064   0.00000  -0.00367  -0.00555   1.85718
   A10        1.96328   0.00168   0.00000  -0.00043  -0.00063   1.96265
   A11        1.90700   0.00010   0.00000  -0.00490  -0.00531   1.90169
   A12        1.93380  -0.00215   0.00000  -0.00277  -0.00281   1.93100
   A13        1.87653  -0.00388   0.00000  -0.04670  -0.04693   1.82959
   A14        1.92909   0.00095   0.00000   0.01264   0.01272   1.94181
   A15        1.84959   0.00333   0.00000   0.04315   0.04326   1.89285
   A16        2.01294  -0.00928   0.00000  -0.03632  -0.03632   1.97662
   A17        1.95565   0.00237   0.00000   0.01527   0.01527   1.97092
   A18        1.94602   0.00011   0.00000   0.00089   0.00078   1.94680
   A19        1.90712  -0.00857   0.00000  -0.05298  -0.05303   1.85408
   A20        1.89872  -0.00060   0.00000  -0.00157  -0.00162   1.89709
   A21        1.87521   0.00320   0.00000   0.01893   0.01899   1.89420
   A22        1.87820   0.00370   0.00000   0.02058   0.02042   1.89862
    D1        2.77480   0.00097   0.00000   0.05228   0.05227   2.82707
    D2       -1.39477  -0.00265   0.00000  -0.00452  -0.00511  -1.39988
    D3        0.64632   0.00287   0.00000   0.04458   0.04514   0.69146
    D4        0.73961   0.00114   0.00000   0.05552   0.05554   0.79515
    D5        2.85322  -0.00248   0.00000  -0.00127  -0.00184   2.85139
    D6       -1.38887   0.00303   0.00000   0.04783   0.04841  -1.34046
    D7       -1.08020  -0.00001   0.00000   0.03672   0.03698  -1.04322
    D8        1.00240  -0.00374   0.00000  -0.02540  -0.02507   0.97733
    D9        3.03390  -0.00087   0.00000   0.02255   0.02288   3.05678
   D10        3.09754   0.00123   0.00000   0.06433   0.06423  -3.12141
   D11       -1.10304  -0.00250   0.00000   0.00220   0.00218  -1.10086
   D12        0.92846   0.00037   0.00000   0.05016   0.05013   0.97859
   D13        1.04507   0.00438   0.00000   0.10636   0.10606   1.15114
   D14        3.12767   0.00064   0.00000   0.04424   0.04401  -3.11150
   D15       -1.12401   0.00351   0.00000   0.09220   0.09196  -1.03205
   D16       -1.28852  -0.00059   0.00000  -0.03583  -0.03560  -1.32411
   D17        2.89440   0.00084   0.00000   0.00153   0.00114   2.89554
   D18        0.88317  -0.00144   0.00000  -0.03019  -0.03003   0.85315
   D19        1.12894   0.00057   0.00000   0.01334   0.01343   1.14237
   D20       -1.00402  -0.00043   0.00000   0.00371   0.00381  -1.00021
   D21       -3.07800   0.00041   0.00000   0.01168   0.01150  -3.06650
         Item               Value     Threshold  Converged?
 Maximum Force            0.012128     0.000450     NO 
 RMS     Force            0.004211     0.000300     NO 
 Maximum Displacement     0.125256     0.001800     NO 
 RMS     Displacement     0.044549     0.001200     NO 
 Predicted change in Energy=-2.861384D-03
 GradGradGradGradGradGradGradGradGradGradGradGradGradGradGradGradGradGrad

                          Input orientation:                          
 ---------------------------------------------------------------------
 Center     Atomic      Atomic             Coordinates (Angstroms)
 Number     Number       Type             X           Y           Z
 ---------------------------------------------------------------------
      1          7           0       -0.412073   -1.084633   -2.003683
      2          6           0        0.509265   -0.037005   -1.550925
      3          6           0        1.010294   -0.398144   -0.159413
      4          8           0       -0.043985   -0.512077    0.783526
      5          6           0       -0.553774    0.736648    1.203701
      6          1           0       -0.983304   -0.747740   -2.772267
      7          1           0       -1.048479   -1.299040   -1.238482
      8          1           0        1.377703    0.010843   -2.219968
      9          1           0        0.078071    0.978159   -1.526898
     10          1           0        1.465064   -1.392498   -0.192386
     11          1           0        1.771531    0.322201    0.178021
     12          1           0       -1.045759    1.292429    0.393824
     13          1           0        0.234683    1.369639    1.637500
     14          1           0       -1.295235    0.519517    1.976051
 ---------------------------------------------------------------------
                    Distance matrix (angstroms):
                    1          2          3          4          5
     1  N    0.000000
     2  C    1.466757   0.000000
     3  C    2.428112   1.522419   0.000000
     4  O    2.869120   2.445699   1.419021   0.000000
     5  C    3.691132   3.052304   2.364771   1.412709   0.000000
     6  H    1.015146   2.055378   3.305095   3.685311   4.265703
     7  H    1.018094   2.029019   2.492899   2.390990   3.217610
     8  H    2.109537   1.097312   2.132638   3.363870   3.997363
     9  H    2.173172   1.103206   2.152502   2.752047   2.813135
    10  H    2.626637   2.143955   1.093911   2.001193   3.249312
    11  H    3.392218   2.170622   1.101018   2.087763   2.575040
    12  H    3.435115   2.822683   2.718724   2.100395   1.098564
    13  H    4.438464   3.495726   2.637333   2.085133   1.100238
    14  H    4.380817   4.000687   3.273801   2.012940   1.092444
                    6          7          8          9         10
     6  H    0.000000
     7  H    1.631158   0.000000
     8  H    2.540637   2.926682   0.000000
     9  H    2.378274   2.556938   1.762127   0.000000
    10  H    3.614692   2.724141   2.467404   3.053634   0.000000
    11  H    4.175893   3.547867   2.449979   2.490951   1.780819
    12  H    3.767003   3.062701   3.787814   2.247427   3.722459
    13  H    5.041113   4.127907   4.246514   3.192366   3.534363
    14  H    4.924405   3.701521   5.000992   3.790379   3.997145
                   11         12         13         14
    11  H    0.000000
    12  H    2.987480   0.000000
    13  H    2.364129   1.786680   0.000000
    14  H    3.560463   1.778503   1.782687   0.000000
 Stoichiometry    C3H9NO
 Framework group  C1[X(C3H9NO)]
 Deg. of freedom    36
 Full point group                 C1      NOp   1
 Largest Abelian subgroup         C1      NOp   1
 Largest concise Abelian subgroup C1      NOp   1
                         Standard orientation:                         
 ---------------------------------------------------------------------
 Center     Atomic      Atomic             Coordinates (Angstroms)
 Number     Number       Type             X           Y           Z
 ---------------------------------------------------------------------
      1          7           0       -1.804409   -0.635242   -0.295306
      2          6           0       -1.111562    0.320112    0.575693
      3          6           0        0.032383    0.950334   -0.206589
      4          8           0        0.971860   -0.010826   -0.661754
      5          6           0        1.824952   -0.484189    0.359964
      6          1           0       -2.365126   -1.277096    0.256184
      7          1           0       -1.101476   -1.196548   -0.772105
      8          1           0       -1.799535    1.122086    0.871707
      9          1           0       -0.714893   -0.111047    1.510476
     10          1           0       -0.367833    1.404047   -1.117969
     11          1           0        0.522238    1.736840    0.388131
     12          1           0        1.291165   -1.051883    1.134326
     13          1           0        2.373998    0.338768    0.841434
     14          1           0        2.542811   -1.149412   -0.125413
 ---------------------------------------------------------------------
 Rotational constants (GHZ):           9.3948859           3.1244388           2.9222583
 Standard basis: 6-31G(d,p) (6D, 7F)
 There are   120 symmetry adapted cartesian basis functions of A   symmetry.
 There are   120 symmetry adapted basis functions of A   symmetry.
   120 basis functions,   203 primitive gaussians,   120 cartesian basis functions
    21 alpha electrons       21 beta electrons
       nuclear repulsion energy       196.0185578111 Hartrees.
 NAtoms=   14 NActive=   14 NUniq=   14 SFac= 1.00D+00 NAtFMM=   60 NAOKFM=F Big=F
 Integral buffers will be    131072 words long.
 Raffenetti 2 integral format.
 Two-electron integral symmetry is turned on.
 Nuclear repulsion after empirical dispersion term =      196.0031396378 Hartrees.
 One-electron integrals computed using PRISM.
 NBasis=   120 RedAO= T EigKep=  4.79D-03  NBF=   120
 NBsUse=   120 1.00D-06 EigRej= -1.00D+00 NBFU=   120
 Initial guess from the checkpoint file:  "N1_conf-4.chk"
 B after Tr=    -0.000000   -0.000000   -0.000000
         Rot=    0.999113    0.042092   -0.000930    0.000366 Ang=   4.83 deg.
 ExpMin= 1.61D-01 ExpMax= 5.48D+03 ExpMxC= 8.25D+02 IAcc=3 IRadAn=         5 AccDes= 0.00D+00
 Harris functional with IExCor=  402 and IRadAn=       5 diagonalized for initial guess.
 HarFok:  IExCor=  402 AccDes= 0.00D+00 IRadAn=         5 IDoV= 1 UseB2=F ITyADJ=14
 ICtDFT=  3500011 ScaDFX=  1.000000  1.000000  1.000000  1.000000
 FoFCou: FMM=F IPFlag=           0 FMFlag=      100000 FMFlg1=           0
         NFxFlg=           0 DoJE=T BraDBF=F KetDBF=T FulRan=T
         wScrn=  0.000000 ICntrl=       500 IOpCl=  0 I1Cent=   200000004 NGrid=           0
         NMat0=    1 NMatS0=      1 NMatT0=    0 NMatD0=    1 NMtDS0=    0 NMtDT0=    0
 Petite list used in FoFCou.
 Requested convergence on RMS density matrix=1.00D-08 within 128 cycles.
 Requested convergence on MAX density matrix=1.00D-06.
 Requested convergence on             energy=1.00D-06.
 No special actions if energy rises.
 Integral accuracy reduced to 1.0D-05 until final iterations.
 Initial convergence to 1.0D-05 achieved.  Increase integral accuracy.
 SCF Done:  E(RB3LYP) =  -249.713622374     A.U. after   11 cycles
            NFock= 11  Conv=0.40D-08     -V/T= 2.0092
 Calling FoFJK, ICntrl=      2127 FMM=F ISym2X=0 I1Cent= 0 IOpClX= 0 NMat=1 NMatS=1 NMatT=0.
 ***** Axes restored to original set *****
 -------------------------------------------------------------------
 Center     Atomic                   Forces (Hartrees/Bohr)
 Number     Number              X              Y              Z
 -------------------------------------------------------------------
      1        7           0.001535994    0.001819775    0.000282421
      2        6          -0.001064869   -0.002102053   -0.000261875
      3        6           0.003007584   -0.004362773   -0.001181990
      4        8           0.000100304    0.002165418    0.001025133
      5        6          -0.002702711   -0.001681540    0.003087768
      6        1           0.000005542   -0.000093660   -0.001147270
      7        1           0.000192827    0.001192834    0.000218279
      8        1          -0.000420876   -0.000152827   -0.000911570
      9        1          -0.000886116    0.000153143   -0.000686550
     10        1           0.001106566    0.000065160   -0.000839788
     11        1          -0.000902479    0.000781763    0.000752767
     12        1           0.000263642    0.000424658   -0.000114894
     13        1           0.000255119    0.000407626   -0.000499088
     14        1          -0.000490527    0.001382475    0.000276658
 -------------------------------------------------------------------
 Cartesian Forces:  Max     0.004362773 RMS     0.001365449

 GradGradGradGradGradGradGradGradGradGradGradGradGradGradGradGradGradGrad
 Berny optimization.
 Using GEDIIS/GDIIS optimizer.
 FormGI is forming the generalized inverse of G from B-inverse, IUseBI=4.
 Internal  Forces:  Max     0.004839407 RMS     0.001315855
 Search for a local minimum.
 Step number   2 out of a maximum of   66
 All quantities printed in internal units (Hartrees-Bohrs-Radians)
 Mixed Optimization -- RFO/linear search
 Update second derivatives using D2CorX and points    1    2
 DE= -2.25D-03 DEPred=-2.86D-03 R= 7.87D-01
 TightC=F SS=  1.41D+00  RLast= 2.60D-01 DXNew= 5.0454D-01 7.7896D-01
 Trust test= 7.87D-01 RLast= 2.60D-01 DXMaxT set to 5.05D-01
 ITU=  1  0
 Use linear search instead of GDIIS.
     Eigenvalues ---    0.00233   0.00927   0.01300   0.01399   0.04373
     Eigenvalues ---    0.04594   0.04771   0.05653   0.05832   0.09008
     Eigenvalues ---    0.09999   0.10567   0.11638   0.12496   0.14068
     Eigenvalues ---    0.15897   0.16000   0.16000   0.16000   0.16675
     Eigenvalues ---    0.21742   0.22209   0.26081   0.29288   0.33789
     Eigenvalues ---    0.34610   0.34657   0.34675   0.34694   0.34782
     Eigenvalues ---    0.34804   0.37989   0.41727   0.43894   0.45161
     Eigenvalues ---    0.45793
 RFO step:  Lambda=-4.03792668D-04 EMin= 2.32753094D-03
 Quartic linear search produced a step of -0.13955.
 Iteration  1 RMS(Cart)=  0.03774468 RMS(Int)=  0.00090580
 Iteration  2 RMS(Cart)=  0.00101453 RMS(Int)=  0.00004863
 Iteration  3 RMS(Cart)=  0.00000069 RMS(Int)=  0.00004863
 Variable       Old X    -DE/DX   Delta X   Delta X   Delta X     New X
                                 (Linear)    (Quad)   (Total)
    R1        2.77177  -0.00298  -0.00273  -0.00321  -0.00594   2.76583
    R2        1.91835   0.00083  -0.00128   0.00324   0.00196   1.92031
    R3        1.92392  -0.00021  -0.00080   0.00066  -0.00014   1.92378
    R4        2.87695   0.00270   0.00591   0.00039   0.00630   2.88325
    R5        2.07362   0.00022  -0.00145   0.00245   0.00100   2.07462
    R6        2.08476   0.00047  -0.00327   0.00549   0.00222   2.08698
    R7        2.68156   0.00421   0.00274   0.00516   0.00790   2.68946
    R8        2.06719   0.00043  -0.00070   0.00197   0.00128   2.06847
    R9        2.08062   0.00012  -0.00252   0.00362   0.00110   2.08173
   R10        2.66963   0.00225   0.00248   0.00131   0.00379   2.67342
   R11        2.07599   0.00018  -0.00222   0.00338   0.00116   2.07715
   R12        2.07915   0.00022  -0.00239   0.00370   0.00131   2.08046
   R13        2.06442   0.00025  -0.00062   0.00145   0.00083   2.06525
    A1        1.92851   0.00047   0.00270  -0.00174   0.00095   1.92946
    A2        1.88711  -0.00175  -0.00163  -0.00784  -0.00948   1.87763
    A3        1.86209   0.00047  -0.00005   0.00118   0.00111   1.86320
    A4        1.89593   0.00170   0.00359   0.00244   0.00603   1.90195
    A5        1.91779  -0.00080  -0.00133  -0.00469  -0.00583   1.91195
    A6        2.00254  -0.00138  -0.01131   0.00658  -0.00474   1.99780
    A7        1.88301  -0.00020   0.00542  -0.00611  -0.00061   1.88240
    A8        1.90393   0.00050   0.00321   0.00319   0.00638   1.91032
    A9        1.85718   0.00018   0.00077  -0.00225  -0.00124   1.85594
   A10        1.96265   0.00202   0.00009   0.00775   0.00784   1.97049
   A11        1.90169  -0.00098   0.00074  -0.00180  -0.00106   1.90063
   A12        1.93100  -0.00029   0.00039  -0.00540  -0.00501   1.92599
   A13        1.82959   0.00059   0.00655   0.00328   0.00983   1.83942
   A14        1.94181  -0.00171  -0.00177  -0.01205  -0.01382   1.92799
   A15        1.89285   0.00037  -0.00604   0.00911   0.00308   1.89593
   A16        1.97662   0.00484   0.00507   0.00985   0.01492   1.99153
   A17        1.97092  -0.00031  -0.00213   0.00020  -0.00196   1.96897
   A18        1.94680  -0.00051  -0.00011  -0.00350  -0.00361   1.94319
   A19        1.85408   0.00256   0.00740   0.00556   0.01295   1.86704
   A20        1.89709  -0.00078   0.00023  -0.00756  -0.00736   1.88974
   A21        1.89420  -0.00058  -0.00265   0.00208  -0.00060   1.89361
   A22        1.89862  -0.00032  -0.00285   0.00394   0.00110   1.89972
    D1        2.82707   0.00056  -0.00729   0.05019   0.04290   2.86997
    D2       -1.39988   0.00087   0.00071   0.04155   0.04234  -1.35754
    D3        0.69146  -0.00042  -0.00630   0.03965   0.03330   0.72475
    D4        0.79515   0.00075  -0.00775   0.05428   0.04652   0.84168
    D5        2.85139   0.00105   0.00026   0.04565   0.04596   2.89735
    D6       -1.34046  -0.00024  -0.00676   0.04374   0.03692  -1.30354
    D7       -1.04322  -0.00058  -0.00516   0.04658   0.04137  -1.00185
    D8        0.97733   0.00071   0.00350   0.05398   0.05742   1.03475
    D9        3.05678   0.00038  -0.00319   0.06078   0.05753   3.11432
   D10       -3.12141  -0.00047  -0.00896   0.05428   0.04532  -3.07609
   D11       -1.10086   0.00083  -0.00030   0.06168   0.06138  -1.03949
   D12        0.97859   0.00050  -0.00700   0.06848   0.06149   1.04008
   D13        1.15114  -0.00084  -0.01480   0.05854   0.04379   1.19492
   D14       -3.11150   0.00046  -0.00614   0.06594   0.05985  -3.05166
   D15       -1.03205   0.00013  -0.01283   0.07275   0.05996  -0.97209
   D16       -1.32411  -0.00003   0.00497  -0.01089  -0.00592  -1.33003
   D17        2.89554  -0.00027  -0.00016  -0.01477  -0.01494   2.88060
   D18        0.85315  -0.00020   0.00419  -0.02145  -0.01726   0.83589
   D19        1.14237  -0.00071  -0.00187   0.00144  -0.00044   1.14193
   D20       -1.00021   0.00094  -0.00053   0.01388   0.01333  -0.98689
   D21       -3.06650   0.00005  -0.00160   0.00767   0.00609  -3.06041
         Item               Value     Threshold  Converged?
 Maximum Force            0.004839     0.000450     NO 
 RMS     Force            0.001316     0.000300     NO 
 Maximum Displacement     0.146436     0.001800     NO 
 RMS     Displacement     0.037745     0.001200     NO 
 Predicted change in Energy=-2.699074D-04
 GradGradGradGradGradGradGradGradGradGradGradGradGradGradGradGradGradGrad

                          Input orientation:                          
 ---------------------------------------------------------------------
 Center     Atomic      Atomic             Coordinates (Angstroms)
 Number     Number       Type             X           Y           Z
 ---------------------------------------------------------------------
      1          7           0       -0.430786   -1.078010   -1.991391
      2          6           0        0.519374   -0.051122   -1.561434
      3          6           0        1.020884   -0.394101   -0.161874
      4          8           0       -0.030933   -0.514474    0.789283
      5          6           0       -0.565062    0.722775    1.219786
      6          1           0       -0.967935   -0.754579   -2.791075
      7          1           0       -1.093072   -1.221550   -1.231693
      8          1           0        1.384696   -0.045385   -2.237037
      9          1           0        0.115116    0.976601   -1.565677
     10          1           0        1.502192   -1.376824   -0.188681
     11          1           0        1.760032    0.350718    0.173437
     12          1           0       -1.072023    1.271725    0.413661
     13          1           0        0.217894    1.372418    1.640491
     14          1           0       -1.296377    0.500106    2.000803
 ---------------------------------------------------------------------
                    Distance matrix (angstroms):
                    1          2          3          4          5
     1  N    0.000000
     2  C    1.463614   0.000000
     3  C    2.433559   1.525751   0.000000
     4  O    2.865240   2.458333   1.423203   0.000000
     5  C    3.684089   3.083845   2.381516   1.414712   0.000000
     6  H    1.016185   2.054010   3.316330   3.708717   4.293238
     7  H    1.018020   2.019557   2.509580   2.390071   3.173160
     8  H    2.103006   1.097841   2.135478   3.373820   4.042432
     9  H    2.168102   1.104380   2.160995   2.791141   2.878519
    10  H    2.659973   2.146594   1.094587   2.012594   3.265829
    11  H    3.395206   2.170365   1.101603   2.082158   2.576691
    12  H    3.422968   2.860676   2.736142   2.101300   1.099178
    13  H    4.428990   3.517056   2.648377   2.084906   1.100932
    14  H    4.379190   4.036129   3.293398   2.024476   1.092881
                    6          7          8          9         10
     6  H    0.000000
     7  H    1.632603   0.000000
     8  H    2.518887   2.921201   0.000000
     9  H    2.381509   2.530440   1.762672   0.000000
    10  H    3.641589   2.801317   2.445873   3.059200   0.000000
    11  H    4.177538   3.547762   2.471469   2.474266   1.783819
    12  H    3.793030   2.987315   3.846615   2.326838   3.742219
    13  H    5.056589   4.086165   4.290317   3.232143   3.543110
    14  H    4.964293   3.668033   5.044304   3.865118   4.018544
                   11         12         13         14
    11  H    0.000000
    12  H    2.987724   0.000000
    13  H    2.360998   1.783013   0.000000
    14  H    3.564158   1.778974   1.784312   0.000000
 Stoichiometry    C3H9NO
 Framework group  C1[X(C3H9NO)]
 Deg. of freedom    36
 Full point group                 C1      NOp   1
 Largest Abelian subgroup         C1      NOp   1
 Largest concise Abelian subgroup C1      NOp   1
                         Standard orientation:                         
 ---------------------------------------------------------------------
 Center     Atomic      Atomic             Coordinates (Angstroms)
 Number     Number       Type             X           Y           Z
 ---------------------------------------------------------------------
      1          7           0       -1.787411   -0.658821   -0.301602
      2          6           0       -1.133737    0.326267    0.561229
      3          6           0        0.027241    0.959473   -0.199755
      4          8           0        0.977689    0.003311   -0.655727
      5          6           0        1.833285   -0.489431    0.357472
      6          1           0       -2.386860   -1.270292    0.245570
      7          1           0       -1.059628   -1.245436   -0.704815
      8          1           0       -1.845376    1.123242    0.813533
      9          1           0       -0.767186   -0.078281    1.521248
     10          1           0       -0.360803    1.437686   -1.104660
     11          1           0        0.518964    1.725964    0.420107
     12          1           0        1.298432   -1.071844    1.120964
     13          1           0        2.370509    0.328967    0.861123
     14          1           0        2.561580   -1.142596   -0.129716
 ---------------------------------------------------------------------
 Rotational constants (GHZ):           9.3220464           3.1218021           2.8961863
 Standard basis: 6-31G(d,p) (6D, 7F)
 There are   120 symmetry adapted cartesian basis functions of A   symmetry.
 There are   120 symmetry adapted basis functions of A   symmetry.
   120 basis functions,   203 primitive gaussians,   120 cartesian basis functions
    21 alpha electrons       21 beta electrons
       nuclear repulsion energy       195.6012358560 Hartrees.
 NAtoms=   14 NActive=   14 NUniq=   14 SFac= 1.00D+00 NAtFMM=   60 NAOKFM=F Big=F
 Integral buffers will be    131072 words long.
 Raffenetti 2 integral format.
 Two-electron integral symmetry is turned on.
 Nuclear repulsion after empirical dispersion term =      195.5858748979 Hartrees.
 One-electron integrals computed using PRISM.
 NBasis=   120 RedAO= T EigKep=  4.80D-03  NBF=   120
 NBsUse=   120 1.00D-06 EigRej= -1.00D+00 NBFU=   120
 Initial guess from the checkpoint file:  "N1_conf-4.chk"
 B after Tr=     0.000000    0.000000   -0.000000
         Rot=    0.999993   -0.000321    0.002874   -0.002568 Ang=  -0.44 deg.
 ExpMin= 1.61D-01 ExpMax= 5.48D+03 ExpMxC= 8.25D+02 IAcc=3 IRadAn=         5 AccDes= 0.00D+00
 Harris functional with IExCor=  402 and IRadAn=       5 diagonalized for initial guess.
 HarFok:  IExCor=  402 AccDes= 0.00D+00 IRadAn=         5 IDoV= 1 UseB2=F ITyADJ=14
 ICtDFT=  3500011 ScaDFX=  1.000000  1.000000  1.000000  1.000000
 FoFCou: FMM=F IPFlag=           0 FMFlag=      100000 FMFlg1=           0
         NFxFlg=           0 DoJE=T BraDBF=F KetDBF=T FulRan=T
         wScrn=  0.000000 ICntrl=       500 IOpCl=  0 I1Cent=   200000004 NGrid=           0
         NMat0=    1 NMatS0=      1 NMatT0=    0 NMatD0=    1 NMtDS0=    0 NMtDT0=    0
 Petite list used in FoFCou.
 Requested convergence on RMS density matrix=1.00D-08 within 128 cycles.
 Requested convergence on MAX density matrix=1.00D-06.
 Requested convergence on             energy=1.00D-06.
 No special actions if energy rises.
 Integral accuracy reduced to 1.0D-05 until final iterations.
 Initial convergence to 1.0D-05 achieved.  Increase integral accuracy.
 SCF Done:  E(RB3LYP) =  -249.713853779     A.U. after   10 cycles
            NFock= 10  Conv=0.38D-08     -V/T= 2.0093
 Calling FoFJK, ICntrl=      2127 FMM=F ISym2X=0 I1Cent= 0 IOpClX= 0 NMat=1 NMatS=1 NMatT=0.
 ***** Axes restored to original set *****
 -------------------------------------------------------------------
 Center     Atomic                   Forces (Hartrees/Bohr)
 Number     Number              X              Y              Z
 -------------------------------------------------------------------
      1        7           0.000152542    0.000775059    0.000895702
      2        6          -0.000649148   -0.000154621   -0.000331957
      3        6           0.001263367   -0.000984106    0.000268017
      4        8          -0.000711140    0.000256484   -0.000085635
      5        6           0.000604643   -0.000437337   -0.000009662
      6        1           0.000540704   -0.000157487   -0.000398490
      7        1          -0.000142518   -0.000146814   -0.000130319
      8        1          -0.000174133    0.000270854   -0.000084097
      9        1          -0.000439818    0.000027976    0.000230130
     10        1          -0.000342385    0.000288702    0.000308809
     11        1          -0.000194078   -0.000019542   -0.000216263
     12        1           0.000017221    0.000100452   -0.000147979
     13        1          -0.000163323    0.000170959   -0.000081437
     14        1           0.000238066    0.000009422   -0.000216818
 -------------------------------------------------------------------
 Cartesian Forces:  Max     0.001263367 RMS     0.000414787

 GradGradGradGradGradGradGradGradGradGradGradGradGradGradGradGradGradGrad
 Berny optimization.
 Using GEDIIS/GDIIS optimizer.
 FormGI is forming the generalized inverse of G from B-inverse, IUseBI=4.
 Internal  Forces:  Max     0.001495843 RMS     0.000359261
 Search for a local minimum.
 Step number   3 out of a maximum of   66
 All quantities printed in internal units (Hartrees-Bohrs-Radians)
 Mixed Optimization -- En-DIIS/RFO-DIIS
 Update second derivatives using D2CorX and points    1    2    3
 DE= -2.31D-04 DEPred=-2.70D-04 R= 8.57D-01
 TightC=F SS=  1.41D+00  RLast= 1.99D-01 DXNew= 8.4853D-01 5.9556D-01
 Trust test= 8.57D-01 RLast= 1.99D-01 DXMaxT set to 5.96D-01
 ITU=  1  1  0
 Use linear search instead of GDIIS.
     Eigenvalues ---    0.00349   0.00691   0.01310   0.01396   0.04168
     Eigenvalues ---    0.04621   0.04704   0.05641   0.05808   0.09092
     Eigenvalues ---    0.09904   0.10484   0.11678   0.12536   0.14154
     Eigenvalues ---    0.15917   0.16000   0.16000   0.16054   0.16715
     Eigenvalues ---    0.22021   0.22570   0.27596   0.30089   0.33531
     Eigenvalues ---    0.34610   0.34655   0.34687   0.34740   0.34782
     Eigenvalues ---    0.34949   0.37553   0.41603   0.44744   0.45231
     Eigenvalues ---    0.45810
 RFO step:  Lambda=-1.41660622D-04 EMin= 3.48575089D-03
 Quartic linear search produced a step of -0.10298.
 Iteration  1 RMS(Cart)=  0.03404083 RMS(Int)=  0.00042536
 Iteration  2 RMS(Cart)=  0.00065012 RMS(Int)=  0.00000800
 Iteration  3 RMS(Cart)=  0.00000022 RMS(Int)=  0.00000800
 Variable       Old X    -DE/DX   Delta X   Delta X   Delta X     New X
                                 (Linear)    (Quad)   (Total)
    R1        2.76583  -0.00080   0.00061  -0.00363  -0.00302   2.76281
    R2        1.92031  -0.00002  -0.00020   0.00123   0.00103   1.92134
    R3        1.92378   0.00002   0.00001   0.00022   0.00024   1.92402
    R4        2.88325   0.00021  -0.00065   0.00154   0.00089   2.88415
    R5        2.07462  -0.00008  -0.00010   0.00069   0.00059   2.07521
    R6        2.08698   0.00019  -0.00023   0.00250   0.00227   2.08925
    R7        2.68946  -0.00036  -0.00081   0.00185   0.00103   2.69050
    R8        2.06847  -0.00042  -0.00013  -0.00027  -0.00041   2.06806
    R9        2.08173  -0.00021  -0.00011   0.00076   0.00065   2.08237
   R10        2.67342  -0.00054  -0.00039  -0.00025  -0.00064   2.67278
   R11        2.07715   0.00015  -0.00012   0.00160   0.00148   2.07863
   R12        2.08046  -0.00005  -0.00014   0.00122   0.00109   2.08155
   R13        2.06525  -0.00032  -0.00009  -0.00024  -0.00032   2.06492
    A1        1.92946  -0.00019  -0.00010  -0.00033  -0.00043   1.92904
    A2        1.87763   0.00052   0.00098   0.00040   0.00138   1.87901
    A3        1.86320   0.00011  -0.00011   0.00368   0.00356   1.86676
    A4        1.90195   0.00011  -0.00062   0.00191   0.00128   1.90323
    A5        1.91195  -0.00013   0.00060  -0.00365  -0.00305   1.90891
    A6        1.99780  -0.00006   0.00049   0.00133   0.00181   1.99962
    A7        1.88240   0.00000   0.00006  -0.00203  -0.00197   1.88044
    A8        1.91032   0.00002  -0.00066   0.00251   0.00184   1.91216
    A9        1.85594   0.00005   0.00013  -0.00037  -0.00023   1.85571
   A10        1.97049  -0.00107  -0.00081  -0.00153  -0.00236   1.96813
   A11        1.90063   0.00064   0.00011   0.00470   0.00482   1.90545
   A12        1.92599  -0.00004   0.00052  -0.00474  -0.00425   1.92174
   A13        1.83942   0.00028  -0.00101   0.00489   0.00388   1.84331
   A14        1.92799   0.00029   0.00142  -0.00761  -0.00622   1.92177
   A15        1.89593  -0.00005  -0.00032   0.00529   0.00498   1.90092
   A16        1.99153  -0.00150  -0.00154  -0.00030  -0.00184   1.98969
   A17        1.96897  -0.00012   0.00020  -0.00095  -0.00075   1.96821
   A18        1.94319   0.00034   0.00037   0.00035   0.00072   1.94391
   A19        1.86704  -0.00009  -0.00133   0.00291   0.00158   1.86861
   A20        1.88974  -0.00018   0.00076  -0.00447  -0.00372   1.88602
   A21        1.89361   0.00007   0.00006   0.00088   0.00094   1.89455
   A22        1.89972  -0.00002  -0.00011   0.00153   0.00142   1.90114
    D1        2.86997   0.00040  -0.00442   0.04430   0.03989   2.90985
    D2       -1.35754   0.00040  -0.00436   0.04086   0.03651  -1.32104
    D3        0.72475   0.00033  -0.00343   0.03864   0.03521   0.75996
    D4        0.84168   0.00008  -0.00479   0.03985   0.03506   0.87674
    D5        2.89735   0.00007  -0.00473   0.03641   0.03168   2.92903
    D6       -1.30354   0.00000  -0.00380   0.03419   0.03038  -1.27315
    D7       -1.00185  -0.00040  -0.00426  -0.05079  -0.05504  -1.05689
    D8        1.03475  -0.00028  -0.00591  -0.04261  -0.04852   0.98623
    D9        3.11432   0.00003  -0.00592  -0.03608  -0.04202   3.07230
   D10       -3.07609  -0.00031  -0.00467  -0.04633  -0.05099  -3.12709
   D11       -1.03949  -0.00019  -0.00632  -0.03816  -0.04448  -1.08396
   D12        1.04008   0.00012  -0.00633  -0.03163  -0.03797   1.00211
   D13        1.19492  -0.00038  -0.00451  -0.04611  -0.05061   1.14431
   D14       -3.05166  -0.00026  -0.00616  -0.03793  -0.04410  -3.09575
   D15       -0.97209   0.00005  -0.00617  -0.03141  -0.03759  -1.00968
   D16       -1.33003   0.00037   0.00061   0.00309   0.00369  -1.32634
   D17        2.88060  -0.00000   0.00154  -0.00488  -0.00334   2.87726
   D18        0.83589  -0.00025   0.00178  -0.01005  -0.00826   0.82763
   D19        1.14193   0.00002   0.00005   0.00195   0.00199   1.14393
   D20       -0.98689   0.00009  -0.00137   0.00821   0.00684  -0.98005
   D21       -3.06041  -0.00003  -0.00063   0.00437   0.00374  -3.05667
         Item               Value     Threshold  Converged?
 Maximum Force            0.001496     0.000450     NO 
 RMS     Force            0.000359     0.000300     NO 
 Maximum Displacement     0.092538     0.001800     NO 
 RMS     Displacement     0.034103     0.001200     NO 
 Predicted change in Energy=-7.536883D-05
 GradGradGradGradGradGradGradGradGradGradGradGradGradGradGradGradGradGrad

                          Input orientation:                          
 ---------------------------------------------------------------------
 Center     Atomic      Atomic             Coordinates (Angstroms)
 Number     Number       Type             X           Y           Z
 ---------------------------------------------------------------------
      1          7           0       -0.410683   -1.093637   -2.011553
      2          6           0        0.501643   -0.047035   -1.553535
      3          6           0        1.008529   -0.403493   -0.158772
      4          8           0       -0.040278   -0.509069    0.798266
      5          6           0       -0.552067    0.736545    1.230666
      6          1           0       -0.927375   -0.782950   -2.830238
      7          1           0       -1.092909   -1.253639   -1.272913
      8          1           0        1.370290   -0.002031   -2.223883
      9          1           0        0.066147    0.969078   -1.540581
     10          1           0        1.480071   -1.390599   -0.189096
     11          1           0        1.752591    0.337719    0.174785
     12          1           0       -1.056339    1.292006    0.426246
     13          1           0        0.244464    1.377361    1.640799
     14          1           0       -1.280085    0.528044    2.018407
 ---------------------------------------------------------------------
                    Distance matrix (angstroms):
                    1          2          3          4          5
     1  N    0.000000
     2  C    1.462017   0.000000
     3  C    2.433775   1.526224   0.000000
     4  O    2.893787   2.457259   1.423749   0.000000
     5  C    3.725794   3.078324   2.380269   1.414373   0.000000
     6  H    1.016731   2.052714   3.320910   3.745396   4.352088
     7  H    1.018147   2.019218   2.525886   2.439713   3.243648
     8  H    2.099655   1.098152   2.134649   3.373451   4.021798
     9  H    2.168865   1.105581   2.163662   2.768836   2.848872
    10  H    2.642818   2.150391   1.094372   2.015798   3.266504
    11  H    3.392434   2.167948   1.101945   2.078498   2.566203
    12  H    3.471459   2.853046   2.735076   2.101106   1.099963
    13  H    4.458108   3.506967   2.644559   2.085559   1.101506
    14  H    4.430156   4.032870   3.293269   2.025208   1.092711
                    6          7          8          9         10
     6  H    0.000000
     7  H    1.635302   0.000000
     8  H    2.501352   2.922023   0.000000
     9  H    2.391632   2.521018   1.763730   0.000000
    10  H    3.625006   2.795290   2.465873   3.064926   0.000000
    11  H    4.179507   3.567229   2.452589   2.487004   1.787109
    12  H    3.863517   3.060848   3.819194   2.287502   3.742778
    13  H    5.101993   4.147342   4.255112   3.212425   3.540740
    14  H    5.035124   3.747295   5.030158   3.830568   4.021532
                   11         12         13         14
    11  H    0.000000
    12  H    2.977244   0.000000
    13  H    2.346167   1.781716   0.000000
    14  H    3.554193   1.780078   1.785546   0.000000
 Stoichiometry    C3H9NO
 Framework group  C1[X(C3H9NO)]
 Deg. of freedom    36
 Full point group                 C1      NOp   1
 Largest Abelian subgroup         C1      NOp   1
 Largest concise Abelian subgroup C1      NOp   1
                         Standard orientation:                         
 ---------------------------------------------------------------------
 Center     Atomic      Atomic             Coordinates (Angstroms)
 Number     Number       Type             X           Y           Z
 ---------------------------------------------------------------------
      1          7           0       -1.819244   -0.629233   -0.302157
      2          6           0       -1.119376    0.310016    0.572767
      3          6           0        0.030033    0.949764   -0.201147
      4          8           0        0.983313   -0.003202   -0.659595
      5          6           0        1.845927   -0.486366    0.351790
      6          1           0       -2.441685   -1.224092    0.238631
      7          1           0       -1.120328   -1.237160   -0.724726
      8          1           0       -1.808060    1.111262    0.872194
      9          1           0       -0.733438   -0.133972    1.508842
     10          1           0       -0.365672    1.427672   -1.102630
     11          1           0        0.526003    1.713317    0.419566
     12          1           0        1.316971   -1.070330    1.119325
     13          1           0        2.376122    0.337767    0.854797
     14          1           0        2.578791   -1.134708   -0.134606
 ---------------------------------------------------------------------
 Rotational constants (GHZ):           9.4768750           3.0722362           2.8766128
 Standard basis: 6-31G(d,p) (6D, 7F)
 There are   120 symmetry adapted cartesian basis functions of A   symmetry.
 There are   120 symmetry adapted basis functions of A   symmetry.
   120 basis functions,   203 primitive gaussians,   120 cartesian basis functions
    21 alpha electrons       21 beta electrons
       nuclear repulsion energy       195.3787843071 Hartrees.
 NAtoms=   14 NActive=   14 NUniq=   14 SFac= 1.00D+00 NAtFMM=   60 NAOKFM=F Big=F
 Integral buffers will be    131072 words long.
 Raffenetti 2 integral format.
 Two-electron integral symmetry is turned on.
 Nuclear repulsion after empirical dispersion term =      195.3634592857 Hartrees.
 One-electron integrals computed using PRISM.
 NBasis=   120 RedAO= T EigKep=  4.82D-03  NBF=   120
 NBsUse=   120 1.00D-06 EigRej= -1.00D+00 NBFU=   120
 Initial guess from the checkpoint file:  "N1_conf-4.chk"
 B after Tr=     0.000000   -0.000000    0.000000
         Rot=    0.999985   -0.003871   -0.002606    0.002824 Ang=  -0.63 deg.
 ExpMin= 1.61D-01 ExpMax= 5.48D+03 ExpMxC= 8.25D+02 IAcc=3 IRadAn=         5 AccDes= 0.00D+00
 Harris functional with IExCor=  402 and IRadAn=       5 diagonalized for initial guess.
 HarFok:  IExCor=  402 AccDes= 0.00D+00 IRadAn=         5 IDoV= 1 UseB2=F ITyADJ=14
 ICtDFT=  3500011 ScaDFX=  1.000000  1.000000  1.000000  1.000000
 FoFCou: FMM=F IPFlag=           0 FMFlag=      100000 FMFlg1=           0
         NFxFlg=           0 DoJE=T BraDBF=F KetDBF=T FulRan=T
         wScrn=  0.000000 ICntrl=       500 IOpCl=  0 I1Cent=   200000004 NGrid=           0
         NMat0=    1 NMatS0=      1 NMatT0=    0 NMatD0=    1 NMtDS0=    0 NMtDT0=    0
 Petite list used in FoFCou.
 Requested convergence on RMS density matrix=1.00D-08 within 128 cycles.
 Requested convergence on MAX density matrix=1.00D-06.
 Requested convergence on             energy=1.00D-06.
 No special actions if energy rises.
 Integral accuracy reduced to 1.0D-05 until final iterations.
 Initial convergence to 1.0D-05 achieved.  Increase integral accuracy.
 SCF Done:  E(RB3LYP) =  -249.713915362     A.U. after   11 cycles
            NFock= 11  Conv=0.25D-08     -V/T= 2.0094
 Calling FoFJK, ICntrl=      2127 FMM=F ISym2X=0 I1Cent= 0 IOpClX= 0 NMat=1 NMatS=1 NMatT=0.
 ***** Axes restored to original set *****
 -------------------------------------------------------------------
 Center     Atomic                   Forces (Hartrees/Bohr)
 Number     Number              X              Y              Z
 -------------------------------------------------------------------
      1        7          -0.000577470    0.000481312    0.000667110
      2        6           0.001105947   -0.000426472   -0.000508738
      3        6           0.000099005    0.001725369    0.000549201
      4        8          -0.000844199   -0.000589538   -0.000123742
      5        6           0.000675757    0.000070695   -0.000637838
      6        1           0.000322114   -0.000328375    0.000274790
      7        1          -0.000333849   -0.000041644   -0.000460140
      8        1          -0.000368229    0.000260545   -0.000115936
      9        1           0.000092949   -0.000656545    0.000429015
     10        1          -0.000316434    0.000408644   -0.000007213
     11        1           0.000242366   -0.000503926   -0.000309036
     12        1          -0.000015790   -0.000170627    0.000351674
     13        1          -0.000296050   -0.000166759    0.000063642
     14        1           0.000213885   -0.000062677   -0.000172789
 -------------------------------------------------------------------
 Cartesian Forces:  Max     0.001725369 RMS     0.000497289

 GradGradGradGradGradGradGradGradGradGradGradGradGradGradGradGradGradGrad
 Berny optimization.
 Using GEDIIS/GDIIS optimizer.
 FormGI is forming the generalized inverse of G from B-inverse, IUseBI=4.
 Internal  Forces:  Max     0.000684173 RMS     0.000313490
 Search for a local minimum.
 Step number   4 out of a maximum of   66
 All quantities printed in internal units (Hartrees-Bohrs-Radians)
 Mixed Optimization -- En-DIIS/RFO-DIIS
 Swapping is turned off.
 Update second derivatives using D2CorX and points    1    2    3    4
 DE= -6.16D-05 DEPred=-7.54D-05 R= 8.17D-01
 TightC=F SS=  1.41D+00  RLast= 1.64D-01 DXNew= 1.0016D+00 4.9088D-01
 Trust test= 8.17D-01 RLast= 1.64D-01 DXMaxT set to 5.96D-01
 ITU=  1  1  1  0
     Eigenvalues ---    0.00350   0.00459   0.01317   0.01396   0.04492
     Eigenvalues ---    0.04658   0.05631   0.05767   0.06444   0.09075
     Eigenvalues ---    0.10184   0.10491   0.11676   0.12612   0.14142
     Eigenvalues ---    0.15935   0.16000   0.16017   0.16195   0.16964
     Eigenvalues ---    0.21972   0.22737   0.27561   0.30282   0.34388
     Eigenvalues ---    0.34611   0.34660   0.34710   0.34780   0.34803
     Eigenvalues ---    0.35471   0.37611   0.41508   0.45016   0.45179
     Eigenvalues ---    0.46907
 En-DIIS/RFO-DIIS/Sim-DIIS IScMMF=       -3 using points:     4    3
 RFO step:  Lambda=-6.20673920D-05.
 DidBck=F Rises=F RFO-DIIS coefs:    1.17018   -0.17018
 Iteration  1 RMS(Cart)=  0.01156187 RMS(Int)=  0.00019280
 Iteration  2 RMS(Cart)=  0.00019520 RMS(Int)=  0.00000259
 Iteration  3 RMS(Cart)=  0.00000005 RMS(Int)=  0.00000259
 Variable       Old X    -DE/DX   Delta X   Delta X   Delta X     New X
                                 (Linear)    (Quad)   (Total)
    R1        2.76281   0.00014  -0.00051  -0.00112  -0.00164   2.76118
    R2        1.92134  -0.00049   0.00018  -0.00047  -0.00029   1.92105
    R3        1.92402  -0.00010   0.00004  -0.00016  -0.00011   1.92390
    R4        2.88415  -0.00051   0.00015  -0.00065  -0.00050   2.88364
    R5        2.07521  -0.00021   0.00010  -0.00029  -0.00019   2.07501
    R6        2.08925  -0.00063   0.00039  -0.00078  -0.00040   2.08885
    R7        2.69050  -0.00008   0.00018   0.00085   0.00103   2.69152
    R8        2.06806  -0.00051  -0.00007  -0.00128  -0.00135   2.06671
    R9        2.08237  -0.00027   0.00011  -0.00043  -0.00032   2.08205
   R10        2.67278  -0.00062  -0.00011  -0.00110  -0.00121   2.67157
   R11        2.07863  -0.00034   0.00025  -0.00034  -0.00009   2.07854
   R12        2.08155  -0.00029   0.00018  -0.00033  -0.00015   2.08140
   R13        2.06492  -0.00025  -0.00005  -0.00067  -0.00072   2.06420
    A1        1.92904   0.00010  -0.00007   0.00080   0.00073   1.92976
    A2        1.87901   0.00068   0.00023   0.00353   0.00376   1.88277
    A3        1.86676  -0.00031   0.00061  -0.00000   0.00060   1.86736
    A4        1.90323  -0.00015   0.00022   0.00010   0.00031   1.90354
    A5        1.90891   0.00013  -0.00052   0.00165   0.00113   1.91004
    A6        1.99962  -0.00003   0.00031  -0.00284  -0.00253   1.99708
    A7        1.88044   0.00032  -0.00033   0.00358   0.00324   1.88368
    A8        1.91216  -0.00022   0.00031  -0.00246  -0.00215   1.91001
    A9        1.85571  -0.00001  -0.00004   0.00041   0.00038   1.85608
   A10        1.96813  -0.00054  -0.00040  -0.00173  -0.00214   1.96599
   A11        1.90545  -0.00012   0.00082  -0.00258  -0.00176   1.90369
   A12        1.92174   0.00027  -0.00072   0.00205   0.00133   1.92306
   A13        1.84331  -0.00008   0.00066  -0.00230  -0.00164   1.84166
   A14        1.92177   0.00062  -0.00106   0.00445   0.00338   1.92515
   A15        1.90092  -0.00016   0.00085  -0.00012   0.00073   1.90164
   A16        1.98969  -0.00054  -0.00031  -0.00104  -0.00135   1.98835
   A17        1.96821   0.00022  -0.00013   0.00099   0.00086   1.96908
   A18        1.94391   0.00019   0.00012   0.00112   0.00124   1.94515
   A19        1.86861  -0.00033   0.00027  -0.00051  -0.00024   1.86837
   A20        1.88602   0.00008  -0.00063  -0.00053  -0.00116   1.88486
   A21        1.89455  -0.00007   0.00016  -0.00059  -0.00043   1.89412
   A22        1.90114  -0.00010   0.00024  -0.00056  -0.00032   1.90082
    D1        2.90985  -0.00007   0.00679   0.02607   0.03286   2.94272
    D2       -1.32104   0.00031   0.00621   0.03139   0.03760  -1.28343
    D3        0.75996   0.00036   0.00599   0.03124   0.03723   0.79720
    D4        0.87674  -0.00014   0.00597   0.02361   0.02957   0.90631
    D5        2.92903   0.00023   0.00539   0.02892   0.03431   2.96334
    D6       -1.27315   0.00029   0.00517   0.02877   0.03394  -1.23921
    D7       -1.05689   0.00062  -0.00937   0.02086   0.01150  -1.04540
    D8        0.98623   0.00011  -0.00826   0.01529   0.00704   0.99327
    D9        3.07230   0.00001  -0.00715   0.01480   0.00765   3.07995
   D10       -3.12709   0.00037  -0.00868   0.01681   0.00813  -3.11896
   D11       -1.08396  -0.00014  -0.00757   0.01123   0.00366  -1.08030
   D12        1.00211  -0.00024  -0.00646   0.01074   0.00427   1.00638
   D13        1.14431   0.00033  -0.00861   0.01566   0.00704   1.15135
   D14       -3.09575  -0.00018  -0.00750   0.01008   0.00258  -3.09317
   D15       -1.00968  -0.00029  -0.00640   0.00959   0.00319  -1.00649
   D16       -1.32634  -0.00040   0.00063  -0.01106  -0.01043  -1.33677
   D17        2.87726   0.00010  -0.00057  -0.00550  -0.00607   2.87119
   D18        0.82763   0.00002  -0.00141  -0.00632  -0.00772   0.81991
   D19        1.14393   0.00021   0.00034   0.00353   0.00387   1.14779
   D20       -0.98005  -0.00018   0.00116   0.00268   0.00385  -0.97620
   D21       -3.05667   0.00004   0.00064   0.00305   0.00368  -3.05298
         Item               Value     Threshold  Converged?
 Maximum Force            0.000684     0.000450     NO 
 RMS     Force            0.000313     0.000300     NO 
 Maximum Displacement     0.042960     0.001800     NO 
 RMS     Displacement     0.011567     0.001200     NO 
 Predicted change in Energy=-3.126968D-05
 GradGradGradGradGradGradGradGradGradGradGradGradGradGradGradGradGradGrad

                          Input orientation:                          
 ---------------------------------------------------------------------
 Center     Atomic      Atomic             Coordinates (Angstroms)
 Number     Number       Type             X           Y           Z
 ---------------------------------------------------------------------
      1          7           0       -0.414521   -1.094701   -2.003993
      2          6           0        0.501948   -0.049488   -1.553908
      3          6           0        1.010515   -0.399541   -0.158425
      4          8           0       -0.040460   -0.509960    0.796494
      5          6           0       -0.551029    0.733827    1.233483
      6          1           0       -0.909483   -0.799363   -2.841381
      7          1           0       -1.114327   -1.230906   -1.277207
      8          1           0        1.367462   -0.007176   -2.228304
      9          1           0        0.066463    0.966420   -1.542557
     10          1           0        1.484248   -1.384843   -0.187432
     11          1           0        1.752145    0.344525    0.173629
     12          1           0       -1.056602    1.292657    0.432284
     13          1           0        0.245331    1.374063    1.644646
     14          1           0       -1.277690    0.522786    2.021270
 ---------------------------------------------------------------------
                    Distance matrix (angstroms):
                    1          2          3          4          5
     1  N    0.000000
     2  C    1.461152   0.000000
     3  C    2.433125   1.525959   0.000000
     4  O    2.885234   2.455734   1.424293   0.000000
     5  C    3.720672   3.080891   2.379148   1.413734   0.000000
     6  H    1.016578   2.052325   3.323327   3.751411   4.368486
     7  H    1.018086   2.021054   2.541219   2.444011   3.237444
     8  H    2.099640   1.098051   2.136764   3.374083   4.026619
     9  H    2.166215   1.105371   2.161690   2.768084   2.853382
    10  H    2.643747   2.148335   1.093657   2.014513   3.263451
    11  H    3.392323   2.168553   1.101776   2.081235   2.565045
    12  H    3.470907   2.859263   2.735953   2.101100   1.099916
    13  H    4.454522   3.510426   2.642392   2.085804   1.101430
    14  H    4.423129   4.034415   3.292057   2.024198   1.092329
                    6          7          8          9         10
     6  H    0.000000
     7  H    1.635491   0.000000
     8  H    2.487549   2.925983   0.000000
     9  H    2.399458   2.508568   1.763728   0.000000
    10  H    3.621626   2.822038   2.465109   3.061848   0.000000
    11  H    4.181271   3.578208   2.457836   2.484668   1.786855
    12  H    3.887810   3.048616   3.826798   2.295147   3.742856
    13  H    5.116816   4.143882   4.262245   3.218140   3.535956
    14  H    5.052625   3.739261   5.033544   3.834634   4.018173
                   11         12         13         14
    11  H    0.000000
    12  H    2.975721   0.000000
    13  H    2.343998   1.780864   0.000000
    14  H    3.553232   1.779454   1.784968   0.000000
 Stoichiometry    C3H9NO
 Framework group  C1[X(C3H9NO)]
 Deg. of freedom    36
[...]
 ---------------------------------------------------------------------
 Center     Atomic      Atomic             Coordinates (Angstroms)
 Number     Number       Type             X           Y           Z
 ---------------------------------------------------------------------
      1          7           0       -1.819653   -0.632164   -0.291454
      2          6           0       -1.120826    0.322324    0.567026
      3          6           0        0.031535    0.942778   -0.216566
      4          8           0        0.975047   -0.028616   -0.656824
      5          6           0        1.856386   -0.470525    0.356216
      6          1           0       -2.479514   -1.182826    0.250664
      7          1           0       -1.130825   -1.279082   -0.669038
      8          1           0       -1.811162    1.125478    0.854716
      9          1           0       -0.732540   -0.107008    1.508281
     10          1           0       -0.363073    1.402335   -1.127323
     11          1           0        0.530759    1.718542    0.384979
     12          1           0        1.342942   -1.017020    1.160389
     13          1           0        2.403684    0.370752    0.808866
     14          1           0        2.574363   -1.144555   -0.116824
 ---------------------------------------------------------------------
 Rotational constants (GHZ):           9.5564539           3.0630930           2.8700379
 Standard basis: def2TZVP (5D, 7F)
 There are   234 symmetry adapted cartesian basis functions of A   symmetry.
 There are   209 symmetry adapted basis functions of A   symmetry.
   209 basis functions,   327 primitive gaussians,   234 cartesian basis functions
    21 alpha electrons       21 beta electrons
       nuclear repulsion energy       195.3939146981 Hartrees.
 NAtoms=   14 NActive=   14 NUniq=   14 SFac= 1.00D+00 NAtFMM=   60 NAOKFM=F Big=F
 Integral buffers will be    131072 words long.
 Raffenetti 2 integral format.
 Two-electron integral symmetry is turned on.
 One-electron integrals computed using PRISM.
   1 Symmetry operations used in ECPInt.
 ECPInt:  NShTT=    4186 NPrTT=   12072 LenC2=    4158 LenP2D=   10129.
 LDataN:  DoStor=T MaxTD1= 6 Len=  172
 NBasis=   209 RedAO= T EigKep=  3.06D-04  NBF=   209
 NBsUse=   209 1.00D-06 EigRej= -1.00D+00 NBFU=   209
 Initial guess from the checkpoint file:  "N1_conf-4.chk"
 B after Tr=    -0.000000    0.000000   -0.000000
         Rot=    1.000000    0.000000   -0.000000    0.000000 Ang=   0.00 deg.
 Requested convergence on RMS density matrix=1.00D-08 within 128 cycles.
 Requested convergence on MAX density matrix=1.00D-06.
 Requested convergence on             energy=1.00D-06.
 No special actions if energy rises.
 SCF Done:  E(RM062X) =  -249.670020347     A.U. after    1 cycles
            NFock=  1  Conv=0.17D-08     -V/T= 2.0052
 DoSCS=F DFT=T ScalE2(SS,OS)=  1.000000  1.000000
 Range of M.O.s used for correlation:     1   209
 NBasis=   209 NAE=    21 NBE=    21 NFC=     0 NFV=     0
 NROrb=    209 NOA=    21 NOB=    21 NVA=   188 NVB=   188

 **** Warning!!: The largest alpha MO coefficient is  0.14582754D+02

          Differentiating once with respect to magnetic field using GIAOs.
          Electric field/nuclear overlap derivatives assumed to be zero.
 FoFCou: FMM=F IPFlag=           0 FMFlag=      100000 FMFlg1=           0
         NFxFlg=           0 DoJE=F BraDBF=F KetDBF=T FulRan=T
         wScrn=  0.000000 ICntrl=      6100 IOpCl=  0 I1Cent=           7 NGrid=          14
         NMat0=    1 NMatS0=      1 NMatT0=    0 NMatD0=    1 NMtDS0=    0 NMtDT0=    0
 Symmetry not used in FoFCou.
   1 Symmetry operations used in ECPInt.
 ECPInt:  NShTT=    4186 NPrTT=   12072 LenC2=    4187 LenP2D=   12072.
 LDataN:  DoStor=T MaxTD1= 7 Len=  274
 FoFJK:  IHMeth= 1 ICntrl=    6127 DoSepK=F KAlg= 0 I1Cent=           0 FoldK=F
 IRaf=         1 NMat=       1 IRICut=       1 DoRegI=T DoRafI=F ISym2E= 0 IDoP0=0 IntGTp=1.
          There are     3 degrees of freedom in the 1st order CPHF.  IDoFFX=0 NUNeed=     3.
      3 vectors produced by pass  0 Test12= 1.32D-13 3.33D-08 XBig12= 2.33D+00 2.55D-01.
 AX will form     3 AO Fock derivatives at one time.
      3 vectors produced by pass  1 Test12= 1.32D-13 3.33D-08 XBig12= 9.51D-03 2.05D-02.
      3 vectors produced by pass  2 Test12= 1.32D-13 3.33D-08 XBig12= 6.49D-05 2.84D-03.
      3 vectors produced by pass  3 Test12= 1.32D-13 3.33D-08 XBig12= 6.87D-07 2.46D-04.
      3 vectors produced by pass  4 Test12= 1.32D-13 3.33D-08 XBig12= 8.83D-09 1.72D-05.
      3 vectors produced by pass  5 Test12= 1.32D-13 3.33D-08 XBig12= 7.90D-11 1.60D-06.
      3 vectors produced by pass  6 Test12= 1.32D-13 3.33D-08 XBig12= 6.22D-13 1.75D-07.
 InvSVY:  IOpt=1 It=  1 EMax= 2.22D-16
 Solved reduced A of dimension    21 with     3 vectors.
 Calculating GIAO nuclear magnetic shielding tensors.
 SCF GIAO Magnetic shielding tensor (ppm):
      1  N    Isotropic =   237.8530   Anisotropy =    39.9244
   XX=   250.3494   YX=    26.8244   ZX=    -6.6242
   XY=    21.5673   YY=   219.1612   ZY=    -2.1430
   XZ=   -10.7755   YZ=    16.7377   ZZ=   244.0485
   Eigenvalues:   203.2136   245.8762   264.4693
      2  C    Isotropic =   145.3575   Anisotropy =    40.0710
   XX=   141.6937   YX=    12.4143   ZX=     5.9449
   XY=    12.9808   YY=   157.7244   ZY=    15.2207
   XZ=     8.0068   YZ=    13.9150   ZZ=   136.6544
   Eigenvalues:   129.1831   134.8179   172.0715
      3  C    Isotropic =   108.5930   Anisotropy =    62.3928
   XX=   122.7687   YX=   -22.3603   ZX=    -5.9807
   XY=   -29.2968   YY=   120.1711   ZY=     8.1141
   XZ=   -13.5681   YZ=    11.5879   ZZ=    82.8393
   Eigenvalues:    79.9723    95.6185   150.1882
      4  O    Isotropic =   330.4880   Anisotropy =    32.8051
   XX=   321.6799   YX=   -12.6034   ZX=    -2.3960
   XY=   -12.4979   YY=   326.1644   ZY=    28.7956
   XZ=     7.9015   YZ=     0.2017   ZZ=   343.6196
   Eigenvalues:   307.2672   331.8386   352.3581
      5  C    Isotropic =   129.4282   Anisotropy =    83.8932
   XX=   136.0493   YX=   -15.4380   ZX=    43.6156
   XY=   -20.4428   YY=   118.2278   ZY=   -10.1376
   XZ=    44.1375   YZ=   -12.5506   ZZ=   134.0074
   Eigenvalues:    90.2919   112.6356   185.3569
      6  H    Isotropic =    31.7166   Anisotropy =    15.4166
   XX=    33.9745   YX=     6.5207   ZX=    -5.2848
   XY=     8.2759   YY=    31.6675   ZY=    -2.4317
   XZ=    -3.6543   YZ=    -1.1549   ZZ=    29.5079
   Eigenvalues:    24.6561    28.4995    41.9944
      7  H    Isotropic =    31.0244   Anisotropy =    11.1918
   XX=    33.2903   YX=    -1.8671   ZX=    -2.4835
   XY=    -1.6871   YY=    33.1971   ZY=     6.0991
   XZ=    -4.1984   YZ=     5.1270   ZZ=    26.5857
   Eigenvalues:    22.9518    31.6358    38.4855
      8  H    Isotropic =    29.6544   Anisotropy =     8.7576
   XX=    29.8374   YX=    -1.2466   ZX=    -1.3779
   XY=    -3.7858   YY=    31.4655   ZY=     4.4107
   XZ=    -1.3474   YZ=     3.7194   ZZ=    27.6604
   Eigenvalues:    25.0643    28.4062    35.4928
      9  H    Isotropic =    28.5214   Anisotropy =     7.2096
   XX=    27.9229   YX=     0.8323   ZX=     2.1647
   XY=     1.4497   YY=    25.2948   ZY=     0.2924
   XZ=     2.4271   YZ=    -0.8270   ZZ=    32.3464
   Eigenvalues:    24.6974    27.5389    33.3277
     10  H    Isotropic =    28.0038   Anisotropy =     8.0342
   XX=    27.9063   YX=    -3.3555   ZX=     0.6307
   XY=    -3.1228   YY=    29.6950   ZY=    -4.3106
   XZ=    -0.5683   YZ=    -2.6093   ZZ=    26.4102
   Eigenvalues:    23.4145    27.2370    33.3600
     11  H    Isotropic =    28.7005   Anisotropy =     6.3735
   XX=    28.5975   YX=    -0.0004   ZX=    -2.0929
   XY=     1.6656   YY=    32.4147   ZY=     2.0824
   XZ=     0.0886   YZ=     1.6862   ZZ=    25.0892
   Eigenvalues:    24.3108    28.8412    32.9495
     12  H    Isotropic =    28.4714   Anisotropy =     8.4278
   XX=    28.0230   YX=    -2.0676   ZX=     3.0200
   XY=    -0.6655   YY=    27.4388   ZY=    -4.4764
   XZ=     0.7276   YZ=    -4.1820   ZZ=    29.9524
   Eigenvalues:    24.1873    27.1369    34.0899
     13  H    Isotropic =    29.1933   Anisotropy =     8.8584
   XX=    31.7764   YX=     2.9172   ZX=     4.1114
   XY=     0.9470   YY=    26.9076   ZY=    -0.7161
   XZ=     4.0007   YZ=     1.9468   ZZ=    28.8958
   Eigenvalues:    25.6089    26.8720    35.0989
     14  H    Isotropic =    28.4661   Anisotropy =     9.0596
   XX=    31.1379   YX=    -4.3884   ZX=     0.1108
   XY=    -4.5454   YY=    28.2094   ZY=     0.7081
   XZ=     2.1545   YZ=    -1.1698   ZZ=    26.0511
   Eigenvalues:    24.7761    26.1164    34.5059
 End of Minotr F.D. properties file   721 does not exist.
 End of Minotr F.D. properties file   722 does not exist.
 End of Minotr F.D. properties file   788 does not exist.

 **********************************************************************

            Population analysis using the SCF Density.

 **********************************************************************

 Orbital symmetries:
       Occupied  (A) (A) (A) (A) (A) (A) (A) (A) (A) (A) (A) (A)
                 (A) (A) (A) (A) (A) (A) (A) (A) (A)
       Virtual   (A) (A) (A) (A) (A) (A) (A) (A) (A) (A) (A) (A)
                 (A) (A) (A) (A) (A) (A) (A) (A) (A) (A) (A) (A)
                 (A) (A) (A) (A) (A) (A) (A) (A) (A) (A) (A) (A)
                 (A) (A) (A) (A) (A) (A) (A) (A) (A) (A) (A) (A)
                 (A) (A) (A) (A) (A) (A) (A) (A) (A) (A) (A) (A)
                 (A) (A) (A) (A) (A) (A) (A) (A) (A) (A) (A) (A)
                 (A) (A) (A) (A) (A) (A) (A) (A) (A) (A) (A) (A)
                 (A) (A) (A) (A) (A) (A) (A) (A) (A) (A) (A) (A)
                 (A) (A) (A) (A) (A) (A) (A) (A) (A) (A) (A) (A)
                 (A) (A) (A) (A) (A) (A) (A) (A) (A) (A) (A) (A)
                 (A) (A) (A) (A) (A) (A) (A) (A) (A) (A) (A) (A)
                 (A) (A) (A) (A) (A) (A) (A) (A) (A) (A) (A) (A)
                 (A) (A) (A) (A) (A) (A) (A) (A) (A) (A) (A) (A)
                 (A) (A) (A) (A) (A) (A) (A) (A) (A) (A) (A) (A)
                 (A) (A) (A) (A) (A) (A) (A) (A) (A) (A) (A) (A)
                 (A) (A) (A) (A) (A) (A) (A) (A)
 The electronic state is 1-A.
 Alpha  occ. eigenvalues --  -19.62913 -14.72208 -10.58035 -10.57972 -10.55830
 Alpha  occ. eigenvalues --   -1.15648  -0.98410  -0.83340  -0.76836  -0.67557
 Alpha  occ. eigenvalues --   -0.57988  -0.56788  -0.54471  -0.51659  -0.50058
 Alpha  occ. eigenvalues --   -0.45704  -0.44078  -0.42625  -0.38549  -0.33702
 Alpha  occ. eigenvalues --   -0.30600
 Alpha virt. eigenvalues --    0.06238   0.09285   0.10359   0.10841   0.13112
 Alpha virt. eigenvalues --    0.13839   0.14682   0.15550   0.16828   0.17774
 Alpha virt. eigenvalues --    0.20662   0.22501   0.24119   0.24725   0.25820
 Alpha virt. eigenvalues --    0.31556   0.32714   0.35364   0.35770   0.38093
 Alpha virt. eigenvalues --    0.39464   0.39801   0.42628   0.43882   0.45112
 Alpha virt. eigenvalues --    0.45401   0.46247   0.49237   0.50400   0.50919
 Alpha virt. eigenvalues --    0.51233   0.52006   0.55718   0.56175   0.57416
 Alpha virt. eigenvalues --    0.59845   0.61199   0.66348   0.67504   0.69884
 Alpha virt. eigenvalues --    0.74244   0.77462   0.78452   0.82356   0.86609
 Alpha virt. eigenvalues --    0.91481   0.93790   0.97202   0.98461   1.03713
 Alpha virt. eigenvalues --    1.05643   1.07699   1.10229   1.15686   1.17507
 Alpha virt. eigenvalues --    1.18047   1.23047   1.29568   1.35546   1.37317
 Alpha virt. eigenvalues --    1.41434   1.45763   1.49278   1.53032   1.55554
 Alpha virt. eigenvalues --    1.57106   1.57577   1.59504   1.59733   1.62413
 Alpha virt. eigenvalues --    1.64550   1.68001   1.70193   1.73270   1.76372
 Alpha virt. eigenvalues --    1.79251   1.82295   1.87063   1.91088   1.91428
 Alpha virt. eigenvalues --    1.93435   1.95567   1.98933   2.01612   2.02230
 Alpha virt. eigenvalues --    2.03481   2.05947   2.09247   2.10528   2.14461
 Alpha virt. eigenvalues --    2.17834   2.22368   2.28649   2.31407   2.33667
 Alpha virt. eigenvalues --    2.36957   2.38651   2.41485   2.45562   2.46431
 Alpha virt. eigenvalues --    2.47530   2.51023   2.52262   2.53147   2.57519
 Alpha virt. eigenvalues --    2.58736   2.61003   2.62822   2.64254   2.67894
 Alpha virt. eigenvalues --    2.69532   2.70709   2.73378   2.75969   2.76561
 Alpha virt. eigenvalues --    2.86265   2.91412   2.95580   2.99252   3.03438
 Alpha virt. eigenvalues --    3.06546   3.10385   3.13037   3.14550   3.18546
 Alpha virt. eigenvalues --    3.19716   3.21948   3.24195   3.26690   3.29377
 Alpha virt. eigenvalues --    3.33048   3.34911   3.36475   3.37684   3.39275
 Alpha virt. eigenvalues --    3.44561   3.48836   3.51810   3.58088   3.59950
 Alpha virt. eigenvalues --    3.63644   3.70943   3.72044   3.79345   3.79944
 Alpha virt. eigenvalues --    3.86481   3.90634   3.93758   4.00541   4.14875
 Alpha virt. eigenvalues --    4.17246   4.24492   4.26677   4.31942   4.35647
 Alpha virt. eigenvalues --    4.39051   4.40066   4.46186   4.52318   4.63073
 Alpha virt. eigenvalues --    4.74392   4.78859   4.81084   4.85774   4.90494
 Alpha virt. eigenvalues --    5.05484   5.08246   5.15941   5.25850   5.37023
 Alpha virt. eigenvalues --    5.41165   5.51656   5.73968   5.75155   5.83019
 Alpha virt. eigenvalues --    5.85380   6.10918   6.13880   6.68277   6.70131
 Alpha virt. eigenvalues --    6.87741   7.16443   7.18329  22.41919  22.50372
 Alpha virt. eigenvalues --   22.57651  32.04945  44.13935
          Condensed to atoms (all electrons):
               1          2          3          4          5          6
     1  N    6.714252   0.213414  -0.023910  -0.005348   0.001499   0.362581
     2  C    0.213414   5.138825   0.244465  -0.060954   0.016067  -0.036984
     3  C   -0.023910   0.244465   4.953371   0.236636  -0.077820   0.006035
     4  O   -0.005348  -0.060954   0.236636   8.105693   0.229572  -0.000716
     5  C    0.001499   0.016067  -0.077820   0.229572   4.857572   0.000097
     6  H    0.362581  -0.036984   0.006035  -0.000716   0.000097   0.495172
     7  H    0.374037  -0.041281  -0.025138   0.019504   0.000331  -0.035717
     8  H   -0.030084   0.416087  -0.039009   0.006164   0.000274  -0.004005
     9  H   -0.069276   0.412380  -0.027400  -0.004251  -0.004873  -0.009303
    10  H    0.002939  -0.046148   0.411021  -0.037832   0.007937  -0.000582
    11  H    0.006871  -0.102932   0.459637  -0.038354  -0.016050  -0.000788
    12  H    0.000124   0.018962  -0.011479  -0.048887   0.414492   0.000246
    13  H    0.000343  -0.011501  -0.003598  -0.039974   0.415667  -0.000010
    14  H   -0.000246  -0.000679   0.008640  -0.033992   0.403098  -0.000018
               7          8          9         10         11         12
     1  N    0.374037  -0.030084  -0.069276   0.002939   0.006871   0.000124
     2  C   -0.041281   0.416087   0.412380  -0.046148  -0.102932   0.018962
     3  C   -0.025138  -0.039009  -0.027400   0.411021   0.459637  -0.011479
     4  O    0.019504   0.006164  -0.004251  -0.037832  -0.038354  -0.048887
     5  C    0.000331   0.000274  -0.004873   0.007937  -0.016050   0.414492
     6  H   -0.035717  -0.004005  -0.009303  -0.000582  -0.000788   0.000246
     7  H    0.461336   0.008526  -0.003409  -0.000416   0.001230  -0.002046
     8  H    0.008526   0.562162  -0.045322  -0.005565   0.001875  -0.000613
     9  H   -0.003409  -0.045322   0.622754   0.008968   0.002413  -0.010086
    10  H   -0.000416  -0.005565   0.008968   0.542470  -0.021543  -0.001465
    11  H    0.001230   0.001875   0.002413  -0.021543   0.570327  -0.003177
    12  H   -0.002046  -0.000613  -0.010086  -0.001465  -0.003177   0.603964
    13  H    0.000587   0.000340   0.000539   0.000606   0.009999  -0.060009
    14  H   -0.000287   0.000003   0.000740   0.000154   0.000073  -0.029569
              13         14
     1  N    0.000343  -0.000246
     2  C   -0.011501  -0.000679
     3  C   -0.003598   0.008640
     4  O   -0.039974  -0.033992
     5  C    0.415667   0.403098
     6  H   -0.000010  -0.000018
     7  H    0.000587  -0.000287
     8  H    0.000340   0.000003
     9  H    0.000539   0.000740
    10  H    0.000606   0.000154
    11  H    0.009999   0.000073
    12  H   -0.060009  -0.029569
    13  H    0.582371  -0.023227
    14  H   -0.023227   0.531133
 Mulliken charges:
               1
     1  N   -0.547197
     2  C   -0.159722
     3  C   -0.111451
     4  O   -0.327259
     5  C   -0.247863
     6  H    0.223991
     7  H    0.242742
     8  H    0.129167
     9  H    0.126128
    10  H    0.139458
    11  H    0.130417
    12  H    0.129544
    13  H    0.127868
    14  H    0.144177
 Sum of Mulliken charges =  -0.00000
 Mulliken charges with hydrogens summed into heavy atoms:
               1
     1  N   -0.080463
     2  C    0.095572
     3  C    0.158424
     4  O   -0.327259
     5  C    0.153726
 Electronic spatial extent (au):  <R**2>=            502.9070
 Charge=             -0.0000 electrons
 Dipole moment (field-independent basis, Debye):
    X=              0.5574    Y=             -0.2929    Z=              2.2133  Tot=              2.3011
 Quadrupole moment (field-independent basis, Debye-Ang):
   XX=            -32.7064   YY=            -29.6127   ZZ=            -34.6458
   XY=              0.4557   XZ=             -1.2814   YZ=             -0.3308
 Traceless Quadrupole moment (field-independent basis, Debye-Ang):
   XX=             -0.3848   YY=              2.7090   ZZ=             -2.3242
   XY=              0.4557   XZ=             -1.2814   YZ=             -0.3308
 Octapole moment (field-independent basis, Debye-Ang**2):
  XXX=              7.8139  YYY=             -3.6308  ZZZ=             -1.4885  XYY=             -2.6018
  XXY=             -6.0552  XXZ=              8.7608  XZZ=              0.7362  YZZ=             -0.3876
  YYZ=             -1.8107  XYZ=              1.4571
 Hexadecapole moment (field-independent basis, Debye-Ang**3):
 XXXX=           -422.1912 YYYY=           -130.2527 ZZZZ=           -101.6866 XXXY=              6.6903
 XXXZ=            -22.0080 YYYX=              6.3830 YYYZ=              2.2172 ZZZX=             -3.0157
 ZZZY=             -2.0164 XXYY=            -82.1249 XXZZ=            -95.6842 YYZZ=            -36.7849
 XXYZ=             -0.7074 YYXZ=             -1.2788 ZZXY=              0.1486
 N-N= 1.953939146981D+02 E-N=-9.734709174327D+02  KE= 2.483739097549D+02
 Unable to Open any file for archive entry.
 1\1\GINC-NOTCH295\SP\RM062X\def2TZVP\C3H9N1O1\U6032257\21-Feb-2022\0\\
 # M062X/def2tzvp int=(grid=ultrafine) nmr=giao guess=read geom=check\\
 N1.xyz\\0,1\N,0,-0.4097315096,-1.1046067826,-2.005931057\C,0,0.4971628
 194,-0.0499726576,-1.5568399336\C,0,1.0057925034,-0.3946263449,-0.1606
 222641\O,0,-0.0483898125,-0.5053406527,0.7902140523\C,0,-0.54548351,0.
 7388671731,1.2409198454\H,0,-0.8940842845,-0.821639675,-2.8532025005\H
 ,0,-1.1182590397,-1.2375874111,-1.2876955264\H,0,1.3599765905,-0.00026
 92866,-2.2332031616\H,0,0.0526613063,0.9616105501,-1.543778219\H,0,1.4
 814487153,-1.3792207922,-0.1872737927\H,0,1.7470181775,0.3488810613,0.
 1720539982\H,0,-1.0335503633,1.3178242285,0.4436904764\H,0,0.254499284
 6,1.3589992112,1.6740909128\H,0,-1.2850608775,0.5253813786,2.016177169
 8\\Version=ES64L-G16RevC.01\State=1-A\HF=-249.6700203\RMSD=1.685e-09\D
 ipole=-0.1186048,0.8924261,-0.095421\Quadrupole=1.9348498,-2.1698677,0
 .2350179,-0.0429675,0.5560794,-0.2834968\PG=C01 [X(C3H9N1O1)]\\@
 The archive entry for this job was punched.


 SUCCESS IS NEVER CERTAIN,
 FAILURE IS NEVER FINAL.
 Job cpu time:       0 days  0 hours  5 minutes  8.6 seconds.
 Elapsed time:       0 days  0 hours  0 minutes  6.2 seconds.
 File lengths (MBytes):  RWF=     30 Int=      0 D2E=      0 Chk=      5 Scr=      1
 Normal termination of Gaussian 16 at Mon Feb 21 19:00:28 2022.
