 Entering Gaussian System, Link 0=/uufs/chpc.utah.edu/sys/installdir/gaussian16/C01/AVX2/g16/g16
 Input=N1_conf-6.com
 Output=N1_conf-6.log
 Initial command:
 /uufs/chpc.utah.edu/sys/installdir/gaussian16/C01/AVX2/g16/l1.exe "/scratch/local/u6032257/4038469/notchpeak.peaks/Gau-12726.inp" -scrdir="/scratch/local/u6032257/4038469/notchpeak.peaks/"
 Entering Link 1 = /uufs/chpc.utah.edu/sys/installdir/gaussian16/C01/AVX2/g16/l1.exe PID=     12728.
  
 Copyright (c) 1988-2019, Gaussian, Inc.  All Rights Reserved.
  
 This is part of the Gaussian(R) 16 program.  It is based on
 the Gaussian(R) 09 system (copyright 2009, Gaussian, Inc.),
 the Gaussian(R) 03 system (copyright 2003, Gaussian, Inc.),
 the Gaussian(R) 98 system (copyright 1998, Gaussian, Inc.),
 the Gaussian(R) 94 system (copyright 1995, Gaussian, Inc.),
 the Gaussian 92(TM) system (copyright 1992, Gaussian, Inc.),
 the Gaussian 90(TM) system (copyright 1990, Gaussian, Inc.),
 the Gaussian 88(TM) system (copyright 1988, Gaussian, Inc.),
 the Gaussian 86(TM) system (copyright 1986, Carnegie Mellon
 University), and the Gaussian 82(TM) system (copyright 1983,
 Carnegie Mellon University). Gaussian is a federally registered
 trademark of Gaussian, Inc.
  
 This software contains proprietary and confidential information,
 including trade secrets, belonging to Gaussian, Inc.
  
 This software is provided under written license and may be
 used, copied, transmitted, or stored only in accord with that
 written license.
  
 The following legend is applicable only to US Government
 contracts under FAR:
  
                    RESTRICTED RIGHTS LEGEND
  
 Use, reproduction and disclosure by the US Government is
 subject to restrictions as set forth in subparagraphs (a)
 and (c) of the Commercial Computer Software - Restricted
 Rights clause in FAR 52.227-19.
  
 Gaussian, Inc.
 340 Quinnipiac St., Bldg. 40, Wallingford CT 06492
  
  
 ---------------------------------------------------------------
 Warning -- This program may not be used in any manner that
 competes with the business of Gaussian, Inc. or will provide
 assistance to any competitor of Gaussian, Inc.  The licensee
 of this program is prohibited from giving any competitor of
 Gaussian, Inc. access to this program.  By using this program,
 the user acknowledges that Gaussian, Inc. is engaged in the
 business of creating and licensing software in the field of
 computational chemistry and represents and warrants to the
 licensee that it is not a competitor of Gaussian, Inc. and that
 it will not use this program in any manner prohibited above.
 ---------------------------------------------------------------
  

 Cite this work as:
 Gaussian 16, Revision C.01,
 M. J. Frisch, G. W. Trucks, H. B. Schlegel, G. E. Scuseria, 
 M. A. Robb, J. R. Cheeseman, G. Scalmani, V. Barone, 
 G. A. Petersson, H. Nakatsuji, X. Li, M. Caricato, A. V. Marenich, 
 J. Bloino, B. G. Janesko, R. Gomperts, B. Mennucci, H. P. Hratchian, 
 J. V. Ortiz, A. F. Izmaylov, J. L. Sonnenberg, D. Williams-Young, 
 F. Ding, F. Lipparini, F. Egidi, J. Goings, B. Peng, A. Petrone, 
 T. Henderson, D. Ranasinghe, V. G. Zakrzewski, J. Gao, N. Rega, 
 G. Zheng, W. Liang, M. Hada, M. Ehara, K. Toyota, R. Fukuda, 
 J. Hasegawa, M. Ishida, T. Nakajima, Y. Honda, O. Kitao, H. Nakai, 
 T. Vreven, K. Throssell, J. A. Montgomery, Jr., J. E. Peralta, 
 F. Ogliaro, M. J. Bearpark, J. J. Heyd, E. N. Brothers, K. N. Kudin, 
 V. N. Staroverov, T. A. Keith, R. Kobayashi, J. Normand, 
 K. Raghavachari, A. P. Rendell, J. C. Burant, S. S. Iyengar, 
 J. Tomasi, M. Cossi, J. M. Millam, M. Klene, C. Adamo, R. Cammi, 
 J. W. Ochterski, R. L. Martin, K. Morokuma, O. Farkas, 
 J. B. Foresman, and D. J. Fox, Gaussian, Inc., Wallingford CT, 2019.
 
 ******************************************
 Gaussian 16:  ES64L-G16RevC.01  3-Jul-2019
                21-Feb-2022 
 ******************************************
 %NProcShared=40
 Will use up to   40 processors via shared memory.
 %mem=16GB
 %chk=N1_conf-6.chk
 ----------------------------------------------------------------------
 # B3LYP/6-31G(d,p) empiricaldispersion=GD3BJ int=(grid=ultrafine) opt 
 freq=noraman
 ----------------------------------------------------------------------
 1/18=20,19=15,26=4,38=1/1,3;
 2/9=110,12=2,17=6,18=5,40=1/2;
 3/5=1,6=6,7=101,11=2,25=1,30=1,71=1,74=-5,75=-5,124=41/1,2,3;
 4//1;
 5/5=2,38=5/2;
 6/7=2,8=2,9=2,10=2,28=1/1;
 7//1,2,3,16;
 1/18=20,19=15,26=4/3(2);
 2/9=110/2;
 99//99;
 2/9=110/2;
 3/5=1,6=6,7=101,11=2,25=1,30=1,71=1,74=-5,75=-5,124=41/1,2,3;
 4/5=5,16=3,69=1/1;
 5/5=2,38=5/2;
 7//1,2,3,16;
 1/18=20,19=15,26=4/3(-5);
 2/9=110/2;
 6/7=2,8=2,9=2,10=2,19=2,28=1/1;
 99/9=1/99;
 ------
 N1.xyz
 ------
 Symbolic Z-matrix:
 Charge =  0 Multiplicity = 1
 N                    -0.4891   -1.2933   -1.7443 
 C                     0.6177   -0.3473   -1.6731 
 C                     1.0584   -0.0926   -0.2175 
 O                     0.051     0.6176    0.5037 
 C                    -0.6939   -0.1768    1.4182 
 H                    -1.25     -0.914    -1.1945 
 H                    -0.8364   -1.3638   -2.6911 
 H                     1.4603   -0.7341   -2.2498 
 H                     0.325     0.5993   -2.1322 
 H                     1.9444    0.5427   -0.2342 
 H                     1.3632   -1.0196    0.2743 
 H                    -0.0513   -0.5853    2.1996 
 H                    -1.2035   -1.003     0.9214 
 H                    -1.452     0.4395    1.9016 
 

 GradGradGradGradGradGradGradGradGradGradGradGradGradGradGradGradGradGrad
 Berny optimization.
 Initialization pass.
                           ----------------------------
                           !    Initial Parameters    !
                           ! (Angstroms and Degrees)  !
 --------------------------                            --------------------------
 ! Name  Definition              Value          Derivative Info.                !
 --------------------------------------------------------------------------------
 ! R1    R(1,2)                  1.4577         estimate D2E/DX2                !
 ! R2    R(1,6)                  1.0125         estimate D2E/DX2                !
 ! R3    R(1,7)                  1.0109         estimate D2E/DX2                !
 ! R4    R(2,3)                  1.542          estimate D2E/DX2                !
 ! R5    R(2,8)                  1.0919         estimate D2E/DX2                !
 ! R6    R(2,9)                  1.092          estimate D2E/DX2                !
 ! R7    R(3,4)                  1.4281         estimate D2E/DX2                !
 ! R8    R(3,10)                 1.0904         estimate D2E/DX2                !
 ! R9    R(3,11)                 1.0927         estimate D2E/DX2                !
 ! R10   R(4,5)                  1.4221         estimate D2E/DX2                !
 ! R11   R(5,12)                 1.0911         estimate D2E/DX2                !
 ! R12   R(5,13)                 1.0905         estimate D2E/DX2                !
 ! R13   R(5,14)                 1.0901         estimate D2E/DX2                !
 ! A1    A(2,1,6)              107.5155         estimate D2E/DX2                !
 ! A2    A(2,1,7)              110.5996         estimate D2E/DX2                !
 ! A3    A(6,1,7)              106.0523         estimate D2E/DX2                !
 ! A4    A(1,2,3)              111.7331         estimate D2E/DX2                !
 ! A5    A(1,2,8)              109.2829         estimate D2E/DX2                !
 ! A6    A(1,2,9)              109.785          estimate D2E/DX2                !
 ! A7    A(3,2,8)              109.6662         estimate D2E/DX2                !
 ! A8    A(3,2,9)              109.2856         estimate D2E/DX2                !
 ! A9    A(8,2,9)              106.9702         estimate D2E/DX2                !
 ! A10   A(2,3,4)              110.9314         estimate D2E/DX2                !
 ! A11   A(2,3,10)             108.3009         estimate D2E/DX2                !
 ! A12   A(2,3,11)             111.3725         estimate D2E/DX2                !
 ! A13   A(4,3,10)             106.9291         estimate D2E/DX2                !
 ! A14   A(4,3,11)             113.0392         estimate D2E/DX2                !
 ! A15   A(10,3,11)            105.9332         estimate D2E/DX2                !
 ! A16   A(3,4,5)              114.612          estimate D2E/DX2                !
 ! A17   A(4,5,12)             111.1744         estimate D2E/DX2                !
 ! A18   A(4,5,13)             112.0282         estimate D2E/DX2                !
 ! A19   A(4,5,14)             109.4901         estimate D2E/DX2                !
 ! A20   A(12,5,13)            108.5331         estimate D2E/DX2                !
 ! A21   A(12,5,14)            107.6796         estimate D2E/DX2                !
 ! A22   A(13,5,14)            107.782          estimate D2E/DX2                !
 ! D1    D(6,1,2,3)             57.8704         estimate D2E/DX2                !
 ! D2    D(6,1,2,8)            179.4233         estimate D2E/DX2                !
 ! D3    D(6,1,2,9)            -63.5456         estimate D2E/DX2                !
 ! D4    D(7,1,2,3)            173.2355         estimate D2E/DX2                !
 ! D5    D(7,1,2,8)            -65.2116         estimate D2E/DX2                !
 ! D6    D(7,1,2,9)             51.8195         estimate D2E/DX2                !
 ! D7    D(1,2,3,4)            -68.3221         estimate D2E/DX2                !
 ! D8    D(1,2,3,10)           174.621          estimate D2E/DX2                !
 ! D9    D(1,2,3,11)            58.5219         estimate D2E/DX2                !
 ! D10   D(8,2,3,4)            170.3467         estimate D2E/DX2                !
 ! D11   D(8,2,3,10)            53.2898         estimate D2E/DX2                !
 ! D12   D(8,2,3,11)           -62.8093         estimate D2E/DX2                !
 ! D13   D(9,2,3,4)             53.3824         estimate D2E/DX2                !
 ! D14   D(9,2,3,10)           -63.6744         estimate D2E/DX2                !
 ! D15   D(9,2,3,11)          -179.7735         estimate D2E/DX2                !
 ! D16   D(2,3,4,5)            104.7559         estimate D2E/DX2                !
 ! D17   D(10,3,4,5)          -137.3497         estimate D2E/DX2                !
 ! D18   D(11,3,4,5)           -21.1647         estimate D2E/DX2                !
 ! D19   D(3,4,5,12)            62.5787         estimate D2E/DX2                !
 ! D20   D(3,4,5,13)           -59.0515         estimate D2E/DX2                !
 ! D21   D(3,4,5,14)          -178.5676         estimate D2E/DX2                !
 --------------------------------------------------------------------------------
 Trust Radius=3.00D-01 FncErr=1.00D-07 GrdErr=1.00D-06 EigMax=2.50D+02 EigMin=1.00D-04
 Number of steps in this run=     66 maximum allowed number of steps=    100.
 GradGradGradGradGradGradGradGradGradGradGradGradGradGradGradGradGradGrad

                          Input orientation:                          
 ---------------------------------------------------------------------
 Center     Atomic      Atomic             Coordinates (Angstroms)
 Number     Number       Type             X           Y           Z
 ---------------------------------------------------------------------
      1          7           0       -0.489100   -1.293300   -1.744300
      2          6           0        0.617700   -0.347300   -1.673100
      3          6           0        1.058400   -0.092600   -0.217500
      4          8           0        0.051000    0.617600    0.503700
      5          6           0       -0.693900   -0.176800    1.418200
      6          1           0       -1.250000   -0.914000   -1.194500
      7          1           0       -0.836400   -1.363800   -2.691100
      8          1           0        1.460300   -0.734100   -2.249800
      9          1           0        0.325000    0.599300   -2.132200
     10          1           0        1.944400    0.542700   -0.234200
     11          1           0        1.363200   -1.019600    0.274300
     12          1           0       -0.051300   -0.585300    2.199600
     13          1           0       -1.203500   -1.003000    0.921400
     14          1           0       -1.452000    0.439500    1.901600
 ---------------------------------------------------------------------
                    Distance matrix (angstroms):
                    1          2          3          4          5
     1  N    0.000000
     2  C    1.457735   0.000000
     3  C    2.483456   1.542031   0.000000
     4  O    2.999458   2.447578   1.428065   0.000000
     5  C    3.360048   3.362365   2.398574   1.422061   0.000000
     6  H    1.012481   2.009604   2.637790   2.631023   2.771085
     7  H    1.010949   2.045484   3.365251   3.862664   4.279675
     8  H    2.090071   1.091866   2.168707   3.375645   4.290150
     9  H    2.096464   1.092015   2.163949   2.650166   3.774365
    10  H    3.401944   2.150039   1.090358   2.033487   3.195111
    11  H    2.753302   2.190919   1.092748   2.110667   2.500096
    12  H    4.030791   3.937259   2.704914   2.081709   1.091051
    13  H    2.774995   3.236996   2.691117   2.091552   1.090463
    14  H    4.149983   4.204901   3.328036   2.060304   1.090054
                    6          7          8          9         10
     6  H    0.000000
     7  H    1.616538   0.000000
     8  H    2.914060   2.422003   0.000000
     9  H    2.376969   2.348400   1.755190   0.000000
    10  H    3.639827   4.171804   2.434587   2.495609   0.000000
    11  H    2.999556   3.708141   2.542050   3.080574   1.742741
    12  H    3.614532   5.014119   4.701514   4.506592   3.343439
    13  H    2.118281   3.648986   4.150259   3.772022   3.692408
    14  H    3.385056   4.972298   5.205089   4.410760   4.013455
                   11         12         13         14
    11  H    0.000000
    12  H    2.428211   0.000000
    13  H    2.647067   1.770828   0.000000
    14  H    3.564047   1.760960   1.761633   0.000000
 Stoichiometry    C3H9NO
 Framework group  C1[X(C3H9NO)]
 Deg. of freedom    36
 Full point group                 C1      NOp   1
 Largest Abelian subgroup         C1      NOp   1
 Largest concise Abelian subgroup C1      NOp   1
                         Standard orientation:                         
 ---------------------------------------------------------------------
 Center     Atomic      Atomic             Coordinates (Angstroms)
 Number     Number       Type             X           Y           Z
 ---------------------------------------------------------------------
      1          7           0       -1.531367    0.974488    0.150710
      2          6           0       -1.365070   -0.447306   -0.124676
      3          6           0        0.021472   -0.956356    0.318302
      4          8           0        1.053369   -0.401898   -0.498481
      5          6           0        1.810755    0.629005    0.122698
      6          1           0       -0.790897    1.467220   -0.333063
      7          1           0       -2.397732    1.314321   -0.244187
      8          1           0       -2.145306   -1.008588    0.393364
      9          1           0       -1.493626   -0.634435   -1.192831
     10          1           0        0.050706   -2.037087    0.176719
     11          1           0        0.184714   -0.789135    1.385770
     12          1           0        2.342896    0.254087    0.998286
     13          1           0        1.185137    1.467587    0.430092
     14          1           0        2.553784    1.007743   -0.579214
 ---------------------------------------------------------------------
 Rotational constants (GHZ):           8.6684944           3.3612742           2.7066742
 Standard basis: 6-31G(d,p) (6D, 7F)
 There are   120 symmetry adapted cartesian basis functions of A   symmetry.
 There are   120 symmetry adapted basis functions of A   symmetry.
   120 basis functions,   203 primitive gaussians,   120 cartesian basis functions
    21 alpha electrons       21 beta electrons
       nuclear repulsion energy       194.6743891185 Hartrees.
 NAtoms=   14 NActive=   14 NUniq=   14 SFac= 1.00D+00 NAtFMM=   60 NAOKFM=F Big=F
 Integral buffers will be    131072 words long.
 Raffenetti 2 integral format.
 Two-electron integral symmetry is turned on.
 Nuclear repulsion after empirical dispersion term =      194.6592091069 Hartrees.
 One-electron integrals computed using PRISM.
 NBasis=   120 RedAO= T EigKep=  5.00D-03  NBF=   120
 NBsUse=   120 1.00D-06 EigRej= -1.00D+00 NBFU=   120
 ExpMin= 1.61D-01 ExpMax= 5.48D+03 ExpMxC= 8.25D+02 IAcc=3 IRadAn=         5 AccDes= 0.00D+00
 Harris functional with IExCor=  402 and IRadAn=       5 diagonalized for initial guess.
 HarFok:  IExCor=  402 AccDes= 0.00D+00 IRadAn=         5 IDoV= 1 UseB2=F ITyADJ=14
 ICtDFT=  3500011 ScaDFX=  1.000000  1.000000  1.000000  1.000000
 FoFCou: FMM=F IPFlag=           0 FMFlag=      100000 FMFlg1=           0
         NFxFlg=           0 DoJE=T BraDBF=F KetDBF=T FulRan=T
         wScrn=  0.000000 ICntrl=       500 IOpCl=  0 I1Cent=   200000004 NGrid=           0
         NMat0=    1 NMatS0=      1 NMatT0=    0 NMatD0=    1 NMtDS0=    0 NMtDT0=    0
 Petite list used in FoFCou.
 Requested convergence on RMS density matrix=1.00D-08 within 128 cycles.
 Requested convergence on MAX density matrix=1.00D-06.
 Requested convergence on             energy=1.00D-06.
 No special actions if energy rises.
 Integral accuracy reduced to 1.0D-05 until final iterations.
 Initial convergence to 1.0D-05 achieved.  Increase integral accuracy.
 SCF Done:  E(RB3LYP) =  -249.709237412     A.U. after   12 cycles
            NFock= 12  Conv=0.88D-08     -V/T= 2.0091

 **********************************************************************

            Population analysis using the SCF Density.

 **********************************************************************

 Orbital symmetries:
       Occupied  (A) (A) (A) (A) (A) (A) (A) (A) (A) (A) (A) (A)
                 (A) (A) (A) (A) (A) (A) (A) (A) (A)
       Virtual   (A) (A) (A) (A) (A) (A) (A) (A) (A) (A) (A) (A)
                 (A) (A) (A) (A) (A) (A) (A) (A) (A) (A) (A) (A)
                 (A) (A) (A) (A) (A) (A) (A) (A) (A) (A) (A) (A)
                 (A) (A) (A) (A) (A) (A) (A) (A) (A) (A) (A) (A)
                 (A) (A) (A) (A) (A) (A) (A) (A) (A) (A) (A) (A)
                 (A) (A) (A) (A) (A) (A) (A) (A) (A) (A) (A) (A)
                 (A) (A) (A) (A) (A) (A) (A) (A) (A) (A) (A) (A)
                 (A) (A) (A) (A) (A) (A) (A) (A) (A) (A) (A) (A)
                 (A) (A) (A)
 The electronic state is 1-A.
 Alpha  occ. eigenvalues --  -19.14384 -14.30524 -10.22607 -10.22372 -10.20192
 Alpha  occ. eigenvalues --   -1.02120  -0.87635  -0.73572  -0.66563  -0.59467
 Alpha  occ. eigenvalues --   -0.49922  -0.48574  -0.46392  -0.43468  -0.42678
 Alpha  occ. eigenvalues --   -0.38946  -0.37774  -0.35677  -0.31035  -0.25059
 Alpha  occ. eigenvalues --   -0.22730
 Alpha virt. eigenvalues --    0.08009   0.11597   0.12368   0.13656   0.16229
 Alpha virt. eigenvalues --    0.16697   0.16984   0.17977   0.18279   0.21292
 Alpha virt. eigenvalues --    0.24649   0.25163   0.26573   0.52477   0.52778
 Alpha virt. eigenvalues --    0.53463   0.56198   0.58965   0.60003   0.63103
 Alpha virt. eigenvalues --    0.66297   0.71298   0.73377   0.78623   0.81920
 Alpha virt. eigenvalues --    0.83290   0.84332   0.85528   0.87749   0.89978
 Alpha virt. eigenvalues --    0.90544   0.93366   0.94899   0.96637   0.97632
 Alpha virt. eigenvalues --    1.04821   1.11214   1.17776   1.19179   1.29777
 Alpha virt. eigenvalues --    1.34682   1.40336   1.42217   1.51216   1.55523
 Alpha virt. eigenvalues --    1.60166   1.68112   1.68218   1.78206   1.85445
 Alpha virt. eigenvalues --    1.87669   1.90382   1.94769   1.97702   1.99199
 Alpha virt. eigenvalues --    1.99887   2.04255   2.06690   2.06911   2.10931
 Alpha virt. eigenvalues --    2.14088   2.16850   2.21028   2.25040   2.28492
 Alpha virt. eigenvalues --    2.32027   2.37340   2.39890   2.40806   2.50659
 Alpha virt. eigenvalues --    2.53573   2.58047   2.59927   2.61819   2.64793
 Alpha virt. eigenvalues --    2.70890   2.74707   2.80872   2.81981   2.86925
 Alpha virt. eigenvalues --    2.89434   2.93449   2.93703   2.99521   3.03433
 Alpha virt. eigenvalues --    3.19136   3.28998   3.30521   3.33572   3.41226
 Alpha virt. eigenvalues --    3.42750   3.44803   3.53414   3.57106   3.93732
 Alpha virt. eigenvalues --    3.97764   4.39152   4.45745   4.63962
          Condensed to atoms (all electrons):
               1          2          3          4          5          6
     1  N    6.775606   0.301948  -0.045958  -0.002108  -0.002396   0.331024
     2  C    0.301948   4.864183   0.367859  -0.051582  -0.001144  -0.043810
     3  C   -0.045958   0.367859   4.751090   0.246831  -0.034996  -0.011010
     4  O   -0.002108  -0.051582   0.246831   8.202152   0.259667   0.011510
     5  C   -0.002396  -0.001144  -0.034996   0.259667   4.718752   0.001537
     6  H    0.331024  -0.043810  -0.011010   0.011510   0.001537   0.506242
     7  H    0.339185  -0.033233   0.005477  -0.000131   0.000078  -0.033739
     8  H   -0.041151   0.356518  -0.023183   0.003684  -0.000107   0.008259
     9  H   -0.055723   0.377913  -0.038688  -0.001308  -0.000402  -0.005800
    10  H    0.004106  -0.047843   0.377054  -0.038622   0.004851   0.000225
    11  H    0.000875  -0.040928   0.356161  -0.030400  -0.010620  -0.000132
    12  H    0.000035  -0.000595  -0.011476  -0.036612   0.378387   0.000422
    13  H    0.003838   0.002821  -0.002269  -0.043683   0.364760  -0.006171
    14  H    0.000040  -0.000231   0.005392  -0.031041   0.390934   0.000109
               7          8          9         10         11         12
     1  N    0.339185  -0.041151  -0.055723   0.004106   0.000875   0.000035
     2  C   -0.033233   0.356518   0.377913  -0.047843  -0.040928  -0.000595
     3  C    0.005477  -0.023183  -0.038688   0.377054   0.356161  -0.011476
     4  O   -0.000131   0.003684  -0.001308  -0.038622  -0.030400  -0.036612
     5  C    0.000078  -0.000107  -0.000402   0.004851  -0.010620   0.378387
     6  H   -0.033739   0.008259  -0.005800   0.000225  -0.000132   0.000422
     7  H    0.494838  -0.003875  -0.004691  -0.000266  -0.000107  -0.000008
     8  H   -0.003875   0.655891  -0.049569   0.001156  -0.001824   0.000054
     9  H   -0.004691  -0.049569   0.684645  -0.002224   0.006914   0.000020
    10  H   -0.000266   0.001156  -0.002224   0.644745  -0.040306   0.001011
    11  H   -0.000107  -0.001824   0.006914  -0.040306   0.652919   0.008536
    12  H   -0.000008   0.000054   0.000020   0.001011   0.008536   0.652186
    13  H    0.000038  -0.000285   0.000442  -0.000599   0.002270  -0.052704
    14  H   -0.000004   0.000004   0.000015  -0.000250   0.000007  -0.036509
              13         14
     1  N    0.003838   0.000040
     2  C    0.002821  -0.000231
     3  C   -0.002269   0.005392
     4  O   -0.043683  -0.031041
     5  C    0.364760   0.390934
     6  H   -0.006171   0.000109
     7  H    0.000038  -0.000004
     8  H   -0.000285   0.000004
     9  H    0.000442   0.000015
    10  H   -0.000599  -0.000250
    11  H    0.002270   0.000007
    12  H   -0.052704  -0.036509
    13  H    0.673037  -0.038574
    14  H   -0.038574   0.597548
 Mulliken charges:
               1
     1  N   -0.609323
     2  C   -0.051877
     3  C    0.057715
     4  O   -0.488356
     5  C   -0.069302
     6  H    0.241335
     7  H    0.236437
     8  H    0.094428
     9  H    0.088457
    10  H    0.096962
    11  H    0.096635
    12  H    0.097251
    13  H    0.097080
    14  H    0.112559
 Sum of Mulliken charges =  -0.00000
 Mulliken charges with hydrogens summed into heavy atoms:
               1
     1  N   -0.131551
     2  C    0.131008
     3  C    0.251312
     4  O   -0.488356
     5  C    0.237587
 Electronic spatial extent (au):  <R**2>=            502.8475
 Charge=             -0.0000 electrons
 Dipole moment (field-independent basis, Debye):
    X=             -0.2788    Y=              0.3731    Z=             -0.1501  Tot=              0.4894
 Quadrupole moment (field-independent basis, Debye-Ang):
   XX=            -29.3684   YY=            -30.5815   ZZ=            -33.9043
   XY=              1.9932   XZ=              3.4750   YZ=             -3.0787
 Traceless Quadrupole moment (field-independent basis, Debye-Ang):
   XX=              1.9163   YY=              0.7032   ZZ=             -2.6196
   XY=              1.9932   XZ=              3.4750   YZ=             -3.0787
 Octapole moment (field-independent basis, Debye-Ang**2):
  XXX=             -2.2339  YYY=              1.3849  ZZZ=             -2.2476  XYY=             -0.6271
  XXY=              5.5953  XXZ=             -3.7639  XZZ=              1.6719  YZZ=             -0.8085
  YYZ=             -3.2043  XYZ=              2.2616
 Hexadecapole moment (field-independent basis, Debye-Ang**3):
 XXXX=           -375.9722 YYYY=           -162.1419 ZZZZ=            -68.1883 XXXY=             -6.6785
 XXXZ=              4.7964 YYYX=             -6.8197 YYYZ=             -4.1474 ZZZX=              1.2053
 ZZZY=             -2.2358 XXYY=            -92.1409 XXZZ=            -81.7552 YYZZ=            -41.3517
 XXYZ=             -8.7150 YYXZ=              3.1884 ZZXY=              1.1407
 N-N= 1.946592091069D+02 E-N=-9.712989070734D+02  KE= 2.474536551423D+02
 Calling FoFJK, ICntrl=      2127 FMM=F ISym2X=0 I1Cent= 0 IOpClX= 0 NMat=1 NMatS=1 NMatT=0.
 ***** Axes restored to original set *****
 -------------------------------------------------------------------
 Center     Atomic                   Forces (Hartrees/Bohr)
 Number     Number              X              Y              Z
 -------------------------------------------------------------------
      1        7           0.001124134   -0.009975809    0.009237149
      2        6          -0.002772293    0.000330791    0.005021276
      3        6          -0.002545434    0.005448654   -0.012292702
      4        8          -0.003589583   -0.003290963    0.003136343
      5        6           0.003501517    0.000927388   -0.003323497
      6        1          -0.004264480    0.001625665    0.000015909
      7        1          -0.000605178   -0.000143399   -0.004757883
      8        1           0.003624571   -0.002359598    0.000301237
      9        1           0.005388976    0.010465534    0.001253909
     10        1           0.002703510    0.004356292   -0.000634390
     11        1          -0.004970049   -0.004616387    0.001740825
     12        1           0.003273987   -0.003310165    0.003663142
     13        1          -0.001343710   -0.005101636   -0.001382027
     14        1           0.000474034    0.005643634   -0.001979290
 -------------------------------------------------------------------
 Cartesian Forces:  Max     0.012292702 RMS     0.004481340

 GradGradGradGradGradGradGradGradGradGradGradGradGradGradGradGradGradGrad
 Berny optimization.
 FormGI is forming the generalized inverse of G from B-inverse, IUseBI=4.
 Internal  Forces:  Max     0.011154949 RMS     0.003750961
 Search for a local minimum.
 Step number   1 out of a maximum of   66
 All quantities printed in internal units (Hartrees-Bohrs-Radians)
 Mixed Optimization -- RFO/linear search
 Second derivative matrix not updated -- first step.
 ITU=  0
     Eigenvalues ---    0.00230   0.00928   0.01321   0.01400   0.04211
     Eigenvalues ---    0.04671   0.04705   0.05428   0.05869   0.09313
     Eigenvalues ---    0.09969   0.10269   0.11458   0.12777   0.13899
     Eigenvalues ---    0.16000   0.16000   0.16000   0.16000   0.16000
     Eigenvalues ---    0.21935   0.21958   0.25000   0.28340   0.34497
     Eigenvalues ---    0.34581   0.34598   0.34691   0.34759   0.34771
     Eigenvalues ---    0.34806   0.37249   0.41269   0.42151   0.45560
     Eigenvalues ---    0.45814
 RFO step:  Lambda=-5.60903327D-03 EMin= 2.30000000D-03
 Linear search not attempted -- first point.
 Iteration  1 RMS(Cart)=  0.07927679 RMS(Int)=  0.00384102
 Iteration  2 RMS(Cart)=  0.00398482 RMS(Int)=  0.00031872
 Iteration  3 RMS(Cart)=  0.00000906 RMS(Int)=  0.00031866
 Iteration  4 RMS(Cart)=  0.00000000 RMS(Int)=  0.00031866
 Variable       Old X    -DE/DX   Delta X   Delta X   Delta X     New X
                                 (Linear)    (Quad)   (Total)
    R1        2.75472   0.00814   0.00000   0.02152   0.02152   2.77624
    R2        1.91331   0.00382   0.00000   0.00829   0.00829   1.92160
    R3        1.91042   0.00467   0.00000   0.01008   0.01008   1.92049
    R4        2.91402  -0.01115   0.00000  -0.03860  -0.03860   2.87542
    R5        2.06333   0.00347   0.00000   0.00988   0.00988   2.07321
    R6        2.06361   0.00710   0.00000   0.02020   0.02020   2.08381
    R7        2.69865  -0.00413   0.00000  -0.00987  -0.00987   2.68878
    R8        2.06048   0.00474   0.00000   0.01343   0.01343   2.07391
    R9        2.06500   0.00331   0.00000   0.00945   0.00945   2.07445
   R10        2.68731  -0.00401   0.00000  -0.00939  -0.00939   2.67792
   R11        2.06179   0.00579   0.00000   0.01643   0.01643   2.07822
   R12        2.06068   0.00512   0.00000   0.01450   0.01450   2.07518
   R13        2.05990   0.00198   0.00000   0.00561   0.00561   2.06551
    A1        1.87650   0.00180   0.00000   0.00830   0.00830   1.88480
    A2        1.93033  -0.00200   0.00000  -0.01450  -0.01450   1.91583
    A3        1.85096  -0.00056   0.00000  -0.00884  -0.00884   1.84212
    A4        1.95011  -0.00278   0.00000  -0.01237  -0.01249   1.93762
    A5        1.90735   0.00054   0.00000  -0.00496  -0.00584   1.90150
    A6        1.91611   0.00775   0.00000   0.08145   0.08146   1.99757
    A7        1.91404  -0.00104   0.00000  -0.03311  -0.03371   1.88033
    A8        1.90739  -0.00458   0.00000  -0.03288  -0.03316   1.87423
    A9        1.86698   0.00026   0.00000   0.00254   0.00108   1.86806
   A10        1.93612   0.00434   0.00000   0.01203   0.01145   1.94757
   A11        1.89021  -0.00093   0.00000   0.01168   0.01146   1.90167
   A12        1.94382  -0.00231   0.00000  -0.02432  -0.02482   1.91899
   A13        1.86627   0.00005   0.00000   0.01839   0.01819   1.88446
   A14        1.97291  -0.00415   0.00000  -0.04900  -0.04945   1.92346
   A15        1.84888   0.00312   0.00000   0.03696   0.03733   1.88621
   A16        2.00036  -0.00357   0.00000  -0.01398  -0.01398   1.98637
   A17        1.94036   0.00156   0.00000   0.00970   0.00962   1.94998
   A18        1.95526   0.00253   0.00000   0.01645   0.01643   1.97169
   A19        1.91096  -0.00857   0.00000  -0.05316  -0.05314   1.85782
   A20        1.89426  -0.00128   0.00000  -0.00520  -0.00531   1.88895
   A21        1.87936   0.00278   0.00000   0.01457   0.01452   1.89389
   A22        1.88115   0.00312   0.00000   0.01834   0.01842   1.89957
    D1        1.01003   0.00135   0.00000   0.08401   0.08408   1.09411
    D2        3.13153  -0.00141   0.00000   0.03079   0.03053  -3.12113
    D3       -1.10908   0.00368   0.00000   0.07791   0.07810  -1.03098
    D4        3.02353   0.00065   0.00000   0.07052   0.07059   3.09412
    D5       -1.13816  -0.00212   0.00000   0.01730   0.01704  -1.12112
    D6        0.90442   0.00298   0.00000   0.06442   0.06460   0.96902
    D7       -1.19245   0.00038   0.00000   0.08244   0.08266  -1.10978
    D8        3.04771  -0.00159   0.00000   0.04635   0.04651   3.09422
    D9        1.02140  -0.00352   0.00000   0.00823   0.00862   1.03002
   D10        2.97311   0.00225   0.00000   0.11954   0.11960   3.09271
   D11        0.93008   0.00028   0.00000   0.08345   0.08345   1.01353
   D12       -1.09623  -0.00165   0.00000   0.04533   0.04555  -1.05068
   D13        0.93170   0.00518   0.00000   0.15453   0.15415   1.08585
   D14       -1.11133   0.00322   0.00000   0.11845   0.11800  -0.99333
   D15       -3.13764   0.00128   0.00000   0.08033   0.08011  -3.05753
   D16        1.82833   0.00004   0.00000   0.04421   0.04436   1.87270
   D17       -2.39720   0.00132   0.00000   0.07576   0.07609  -2.32112
   D18       -0.36939   0.00288   0.00000   0.10534   0.10485  -0.26454
   D19        1.09220   0.00099   0.00000   0.01860   0.01865   1.11085
   D20       -1.03064  -0.00026   0.00000   0.00680   0.00665  -1.02399
   D21       -3.11659  -0.00007   0.00000   0.00875   0.00885  -3.10774
         Item               Value     Threshold  Converged?
 Maximum Force            0.011155     0.000450     NO 
 RMS     Force            0.003751     0.000300     NO 
 Maximum Displacement     0.225151     0.001800     NO 
 RMS     Displacement     0.079323     0.001200     NO 
 Predicted change in Energy=-3.189856D-03
 GradGradGradGradGradGradGradGradGradGradGradGradGradGradGradGradGradGrad

                          Input orientation:                          
 ---------------------------------------------------------------------
 Center     Atomic      Atomic             Coordinates (Angstroms)
 Number     Number       Type             X           Y           Z
 ---------------------------------------------------------------------
      1          7           0       -0.533853   -1.260301   -1.726442
      2          6           0        0.614135   -0.344995   -1.674854
      3          6           0        1.024843   -0.065233   -0.236683
      4          8           0       -0.004798    0.605247    0.480798
      5          6           0       -0.666011   -0.212517    1.430648
      6          1           0       -1.320347   -0.803628   -1.271585
      7          1           0       -0.820186   -1.398486   -2.691713
      8          1           0        1.467022   -0.814398   -2.180682
      9          1           0        0.444145    0.628423   -2.164267
     10          1           0        1.912106    0.580668   -0.238490
     11          1           0        1.288294   -1.004330    0.267048
     12          1           0        0.016605   -0.546574    2.225556
     13          1           0       -1.131240   -1.100239    0.981852
     14          1           0       -1.446914    0.405664    1.880912
 ---------------------------------------------------------------------
                    Distance matrix (angstroms):
                    1          2          3          4          5
     1  N    0.000000
     2  C    1.469123   0.000000
     3  C    2.465178   1.521606   0.000000
     4  O    2.938039   2.435749   1.422843   0.000000
     5  C    3.329044   3.361617   2.379216   1.417094   0.000000
     6  H    1.016867   2.028593   2.667614   2.605080   2.842469
     7  H    1.016282   2.049663   3.347964   3.839873   4.292336
     8  H    2.099682   1.097095   2.129766   3.356355   4.237192
     9  H    2.171508   1.102707   2.129308   2.682994   3.855262
    10  H    3.403805   2.145863   1.097465   2.047560   3.172042
    11  H    2.712885   2.158749   1.097750   2.075696   2.408369
    12  H    4.053480   3.951060   2.703859   2.090773   1.099744
    13  H    2.778012   3.267234   2.684168   2.104426   1.098138
    14  H    4.077024   4.177905   3.288698   2.019864   1.093022
                    6          7          8          9         10
     6  H    0.000000
     7  H    1.618883   0.000000
     8  H    2.931894   2.415291   0.000000
     9  H    2.441533   2.446444   1.768694   0.000000
    10  H    3.665013   4.171424   2.432369   2.421944   0.000000
    11  H    3.035240   3.654492   2.461584   3.047911   1.776775
    12  H    3.752800   5.060188   4.646544   4.564423   3.306829
    13  H    2.280728   3.698755   4.102961   3.920227   3.684649
    14  H    3.378852   4.955466   5.145495   4.470929   3.975614
                   11         12         13         14
    11  H    0.000000
    12  H    2.379598   0.000000
    13  H    2.524735   1.780700   0.000000
    14  H    3.474767   1.779727   1.782050   0.000000
 Stoichiometry    C3H9NO
 Framework group  C1[X(C3H9NO)]
 Deg. of freedom    36
 Full point group                 C1      NOp   1
 Largest Abelian subgroup         C1      NOp   1
 Largest concise Abelian subgroup C1      NOp   1
                         Standard orientation:                         
 ---------------------------------------------------------------------
 Center     Atomic      Atomic             Coordinates (Angstroms)
 Number     Number       Type             X           Y           Z
 ---------------------------------------------------------------------
      1          7           0       -1.492984    0.993037    0.128879
      2          6           0       -1.370137   -0.453868   -0.094048
      3          6           0        0.014653   -0.950313    0.294776
      4          8           0        1.026464   -0.371496   -0.521124
      5          6           0        1.812799    0.600553    0.145924
      6          1           0       -0.823603    1.461989   -0.476125
      7          1           0       -2.407768    1.311725   -0.178427
      8          1           0       -2.101191   -0.974823    0.536652
      9          1           0       -1.554727   -0.772874   -1.133339
     10          1           0        0.053619   -2.038935    0.161313
     11          1           0        0.208274   -0.729767    1.352568
     12          1           0        2.382431    0.162073    0.978205
     13          1           0        1.218611    1.436235    0.538969
     14          1           0        2.519638    0.986861   -0.592886
 ---------------------------------------------------------------------
 Rotational constants (GHZ):           8.7141243           3.4043829           2.7444487
 Standard basis: 6-31G(d,p) (6D, 7F)
 There are   120 symmetry adapted cartesian basis functions of A   symmetry.
 There are   120 symmetry adapted basis functions of A   symmetry.
   120 basis functions,   203 primitive gaussians,   120 cartesian basis functions
    21 alpha electrons       21 beta electrons
       nuclear repulsion energy       195.1957026566 Hartrees.
 NAtoms=   14 NActive=   14 NUniq=   14 SFac= 1.00D+00 NAtFMM=   60 NAOKFM=F Big=F
 Integral buffers will be    131072 words long.
 Raffenetti 2 integral format.
 Two-electron integral symmetry is turned on.
 Nuclear repulsion after empirical dispersion term =      195.1804855095 Hartrees.
 One-electron integrals computed using PRISM.
 NBasis=   120 RedAO= T EigKep=  4.79D-03  NBF=   120
 NBsUse=   120 1.00D-06 EigRej= -1.00D+00 NBFU=   120
 Initial guess from the checkpoint file:  "N1_conf-6.chk"
 B after Tr=    -0.000000    0.000000   -0.000000
         Rot=    0.999987    0.001387   -0.003919    0.003067 Ang=   0.59 deg.
 ExpMin= 1.61D-01 ExpMax= 5.48D+03 ExpMxC= 8.25D+02 IAcc=3 IRadAn=         5 AccDes= 0.00D+00
 Harris functional with IExCor=  402 and IRadAn=       5 diagonalized for initial guess.
 HarFok:  IExCor=  402 AccDes= 0.00D+00 IRadAn=         5 IDoV= 1 UseB2=F ITyADJ=14
 ICtDFT=  3500011 ScaDFX=  1.000000  1.000000  1.000000  1.000000
 FoFCou: FMM=F IPFlag=           0 FMFlag=      100000 FMFlg1=           0
         NFxFlg=           0 DoJE=T BraDBF=F KetDBF=T FulRan=T
         wScrn=  0.000000 ICntrl=       500 IOpCl=  0 I1Cent=   200000004 NGrid=           0
         NMat0=    1 NMatS0=      1 NMatT0=    0 NMatD0=    1 NMtDS0=    0 NMtDT0=    0
 Petite list used in FoFCou.
 Requested convergence on RMS density matrix=1.00D-08 within 128 cycles.
 Requested convergence on MAX density matrix=1.00D-06.
 Requested convergence on             energy=1.00D-06.
 No special actions if energy rises.
 Integral accuracy reduced to 1.0D-05 until final iterations.
 Initial convergence to 1.0D-05 achieved.  Increase integral accuracy.
 SCF Done:  E(RB3LYP) =  -249.712064717     A.U. after   11 cycles
            NFock= 11  Conv=0.43D-08     -V/T= 2.0093
 Calling FoFJK, ICntrl=      2127 FMM=F ISym2X=0 I1Cent= 0 IOpClX= 0 NMat=1 NMatS=1 NMatT=0.
 ***** Axes restored to original set *****
 -------------------------------------------------------------------
 Center     Atomic                   Forces (Hartrees/Bohr)
 Number     Number              X              Y              Z
 -------------------------------------------------------------------
      1        7           0.002188236    0.001846269    0.001604405
      2        6          -0.000649457   -0.000179712    0.000190267
      3        6           0.002208733   -0.002145243    0.000701272
      4        8          -0.002413540   -0.001439682   -0.000662950
      5        6          -0.001097501    0.002565189    0.001434270
      6        1          -0.000485817    0.001309919   -0.000096072
      7        1           0.000490177   -0.000616247   -0.000859729
      8        1          -0.000512908   -0.000484919   -0.000673715
      9        1          -0.001200975   -0.000102724   -0.001159300
     10        1          -0.000107497    0.000397429    0.000438974
     11        1           0.000509364   -0.000536075   -0.000661208
     12        1           0.000403638   -0.000269993    0.000093951
     13        1           0.000906471   -0.000022656   -0.000938098
     14        1          -0.000238923   -0.000321557    0.000587933
 -------------------------------------------------------------------
 Cartesian Forces:  Max     0.002565189 RMS     0.001094158

 GradGradGradGradGradGradGradGradGradGradGradGradGradGradGradGradGradGrad
 Berny optimization.
 Using GEDIIS/GDIIS optimizer.
 FormGI is forming the generalized inverse of G from B-inverse, IUseBI=4.
 Internal  Forces:  Max     0.003320427 RMS     0.000968011
 Search for a local minimum.
 Step number   2 out of a maximum of   66
 All quantities printed in internal units (Hartrees-Bohrs-Radians)
 Mixed Optimization -- En-DIIS/RFO-DIIS
 Update second derivatives using D2CorX and points    1    2
 DE= -2.83D-03 DEPred=-3.19D-03 R= 8.86D-01
 TightC=F SS=  1.41D+00  RLast= 3.76D-01 DXNew= 5.0454D-01 1.1277D+00
 Trust test= 8.86D-01 RLast= 3.76D-01 DXMaxT set to 5.05D-01
 ITU=  1  0
 Use linear search instead of GDIIS.
     Eigenvalues ---    0.00238   0.00902   0.01283   0.01399   0.04297
     Eigenvalues ---    0.04727   0.04867   0.05606   0.05764   0.09411
     Eigenvalues ---    0.10070   0.10534   0.11475   0.12960   0.13919
     Eigenvalues ---    0.15793   0.16000   0.16000   0.16000   0.16817
     Eigenvalues ---    0.21708   0.22585   0.25239   0.28427   0.33959
     Eigenvalues ---    0.34509   0.34597   0.34655   0.34745   0.34766
     Eigenvalues ---    0.34805   0.38334   0.41864   0.42122   0.45373
     Eigenvalues ---    0.45731
 RFO step:  Lambda=-7.71792219D-04 EMin= 2.38268865D-03
 Quartic linear search produced a step of  0.00062.
 Iteration  1 RMS(Cart)=  0.07356576 RMS(Int)=  0.00299520
 Iteration  2 RMS(Cart)=  0.00331022 RMS(Int)=  0.00002587
 Iteration  3 RMS(Cart)=  0.00000553 RMS(Int)=  0.00002567
 Iteration  4 RMS(Cart)=  0.00000000 RMS(Int)=  0.00002567
 Variable       Old X    -DE/DX   Delta X   Delta X   Delta X     New X
                                 (Linear)    (Quad)   (Total)
    R1        2.77624  -0.00332   0.00001  -0.00795  -0.00794   2.76830
    R2        1.92160   0.00092   0.00001   0.00231   0.00231   1.92391
    R3        1.92049   0.00076   0.00001   0.00202   0.00203   1.92252
    R4        2.87542   0.00066  -0.00002   0.00081   0.00079   2.87621
    R5        2.07321   0.00012   0.00001   0.00072   0.00072   2.07393
    R6        2.08381   0.00061   0.00001   0.00250   0.00252   2.08633
    R7        2.68878   0.00227  -0.00001   0.00503   0.00503   2.69381
    R8        2.07391   0.00015   0.00001   0.00093   0.00093   2.07484
    R9        2.07445   0.00028   0.00001   0.00115   0.00116   2.07561
   R10        2.67792  -0.00032  -0.00001  -0.00111  -0.00112   2.67680
   R11        2.07822   0.00040   0.00001   0.00176   0.00177   2.07999
   R12        2.07518   0.00002   0.00001   0.00061   0.00061   2.07579
   R13        2.06551   0.00023   0.00000   0.00087   0.00087   2.06638
    A1        1.88480  -0.00123   0.00001  -0.00805  -0.00806   1.87674
    A2        1.91583  -0.00025  -0.00001  -0.00290  -0.00292   1.91291
    A3        1.84212   0.00049  -0.00001   0.00082   0.00078   1.84291
    A4        1.93762  -0.00189  -0.00001  -0.00963  -0.00962   1.92800
    A5        1.90150   0.00045  -0.00000  -0.00078  -0.00077   1.90073
    A6        1.99757  -0.00095   0.00005  -0.00973  -0.00963   1.98794
    A7        1.88033   0.00066  -0.00002   0.00476   0.00469   1.88502
    A8        1.87423   0.00216  -0.00002   0.01438   0.01431   1.88854
    A9        1.86806  -0.00028   0.00000   0.00229   0.00220   1.87026
   A10        1.94757  -0.00172   0.00001  -0.00763  -0.00763   1.93994
   A11        1.90167   0.00059   0.00001   0.00271   0.00272   1.90439
   A12        1.91899  -0.00004  -0.00002  -0.00215  -0.00216   1.91683
   A13        1.88446   0.00032   0.00001   0.00047   0.00048   1.88493
   A14        1.92346   0.00104  -0.00003   0.00452   0.00447   1.92794
   A15        1.88621  -0.00013   0.00002   0.00244   0.00246   1.88867
   A16        1.98637   0.00156  -0.00001   0.00561   0.00560   1.99198
   A17        1.94998  -0.00021   0.00001  -0.00182  -0.00185   1.94812
   A18        1.97169  -0.00201   0.00001  -0.01271  -0.01272   1.95896
   A19        1.85782   0.00164  -0.00003   0.00987   0.00983   1.86766
   A20        1.88895   0.00013  -0.00000  -0.00257  -0.00263   1.88631
   A21        1.89389  -0.00004   0.00001   0.00225   0.00225   1.89613
   A22        1.89957   0.00059   0.00001   0.00594   0.00597   1.90554
    D1        1.09411   0.00083   0.00005   0.05367   0.05373   1.14784
    D2       -3.12113   0.00079   0.00002   0.05325   0.05327  -3.06786
    D3       -1.03098   0.00014   0.00005   0.04924   0.04926  -0.98172
    D4        3.09412   0.00062   0.00004   0.04874   0.04881  -3.14026
    D5       -1.12112   0.00058   0.00001   0.04832   0.04834  -1.07277
    D6        0.96902  -0.00008   0.00004   0.04431   0.04434   1.01336
    D7       -1.10978   0.00044   0.00005   0.10417   0.10423  -1.00555
    D8        3.09422   0.00072   0.00003   0.10654   0.10658  -3.08238
    D9        1.03002   0.00056   0.00001   0.10321   0.10323   1.13325
   D10        3.09271   0.00058   0.00007   0.10778   0.10788  -3.08260
   D11        1.01353   0.00086   0.00005   0.11014   0.11022   1.12375
   D12       -1.05068   0.00070   0.00003   0.10681   0.10688  -0.94380
   D13        1.08585  -0.00050   0.00010   0.09560   0.09565   1.18149
   D14       -0.99333  -0.00022   0.00007   0.09796   0.09799  -0.89534
   D15       -3.05753  -0.00038   0.00005   0.09463   0.09464  -2.96289
   D16        1.87270   0.00056   0.00003   0.05105   0.05107   1.92377
   D17       -2.32112   0.00046   0.00005   0.05011   0.05015  -2.27096
   D18       -0.26454   0.00107   0.00007   0.05586   0.05594  -0.20861
   D19        1.11085  -0.00064   0.00001   0.00198   0.00202   1.11287
   D20       -1.02399   0.00084   0.00000   0.01613   0.01608  -1.00791
   D21       -3.10774   0.00020   0.00001   0.00973   0.00976  -3.09798
         Item               Value     Threshold  Converged?
 Maximum Force            0.003320     0.000450     NO 
 RMS     Force            0.000968     0.000300     NO 
 Maximum Displacement     0.272344     0.001800     NO 
 RMS     Displacement     0.073311     0.001200     NO 
 Predicted change in Energy=-4.325121D-04
 GradGradGradGradGradGradGradGradGradGradGradGradGradGradGradGradGradGrad

                          Input orientation:                          
 ---------------------------------------------------------------------
 Center     Atomic      Atomic             Coordinates (Angstroms)
 Number     Number       Type             X           Y           Z
 ---------------------------------------------------------------------
      1          7           0       -0.572976   -1.204953   -1.721857
      2          6           0        0.623701   -0.361030   -1.680034
      3          6           0        1.012405   -0.059804   -0.239642
      4          8           0       -0.055810    0.574376    0.459495
      5          6           0       -0.659203   -0.235341    1.452848
      6          1           0       -1.346149   -0.659510   -1.346088
      7          1           0       -0.820105   -1.399014   -2.689473
      8          1           0        1.455815   -0.900457   -2.150208
      9          1           0        0.513488    0.598222   -2.215376
     10          1           0        1.873137    0.621834   -0.234578
     11          1           0        1.306526   -0.987946    0.268735
     12          1           0        0.048903   -0.485124    2.257644
     13          1           0       -1.052450   -1.174729    1.041111
     14          1           0       -1.483482    0.342775    1.879522
 ---------------------------------------------------------------------
                    Distance matrix (angstroms):
                    1          2          3          4          5
     1  N    0.000000
     2  C    1.464921   0.000000
     3  C    2.453928   1.522024   0.000000
     4  O    2.862127   2.431934   1.425504   0.000000
     5  C    3.320592   3.387712   2.385291   1.416502   0.000000
     6  H    1.018090   2.020129   2.673322   2.539209   2.913050
     7  H    1.017356   2.044739   3.339649   3.793998   4.305676
     8  H    2.095756   1.097478   2.133910   3.357185   4.230567
     9  H    2.162269   1.104039   2.141364   2.734887   3.940292
    10  H    3.395971   2.148593   1.097959   2.050567   3.161472
    11  H    2.746284   2.158002   1.098363   2.081634   2.415084
    12  H    4.091615   3.981343   2.710289   2.089699   1.100682
    13  H    2.804425   3.297911   2.673390   2.095457   1.098463
    14  H    4.024228   4.195950   3.298845   2.026910   1.093483
                    6          7          8          9         10
     6  H    0.000000
     7  H    1.621194   0.000000
     8  H    2.925007   2.391480   0.000000
     9  H    2.407447   2.447896   1.771515   0.000000
    10  H    3.638832   4.167000   2.482169   2.402657   0.000000
    11  H    3.122853   3.666406   2.425124   3.052154   1.779259
    12  H    3.868264   5.105324   4.645542   4.625730   3.280908
    13  H    2.459763   3.744535   4.068308   4.024951   3.662524
    14  H    3.380532   4.934532   5.140410   4.563039   3.976705
                   11         12         13         14
    11  H    0.000000
    12  H    2.406284   0.000000
    13  H    2.489221   1.780024   0.000000
    14  H    3.485628   1.782301   1.786489   0.000000
 Stoichiometry    C3H9NO
 Framework group  C1[X(C3H9NO)]
 Deg. of freedom    36
 Full point group                 C1      NOp   1
 Largest Abelian subgroup         C1      NOp   1
 Largest concise Abelian subgroup C1      NOp   1
                         Standard orientation:                         
 ---------------------------------------------------------------------
 Center     Atomic      Atomic             Coordinates (Angstroms)
 Number     Number       Type             X           Y           Z
 ---------------------------------------------------------------------
      1          7           0       -1.453540    1.005498    0.122778
      2          6           0       -1.388563   -0.446109   -0.063256
      3          6           0        0.005748   -0.962455    0.262077
      4          8           0        0.992125   -0.323166   -0.544415
      5          6           0        1.837120    0.562932    0.167828
      6          1           0       -0.843254    1.431315   -0.572016
      7          1           0       -2.390293    1.336129   -0.096746
      8          1           0       -2.096728   -0.924844    0.625055
      9          1           0       -1.650251   -0.778534   -1.083018
     10          1           0        0.046755   -2.040395    0.057437
     11          1           0        0.221352   -0.806900    1.327779
     12          1           0        2.439659    0.031742    0.920347
     13          1           0        1.272819    1.354258    0.679676
     14          1           0        2.511886    1.017864   -0.562536
 ---------------------------------------------------------------------
 Rotational constants (GHZ):           8.7873448           3.4108655           2.7615823
 Standard basis: 6-31G(d,p) (6D, 7F)
 There are   120 symmetry adapted cartesian basis functions of A   symmetry.
 There are   120 symmetry adapted basis functions of A   symmetry.
   120 basis functions,   203 primitive gaussians,   120 cartesian basis functions
    21 alpha electrons       21 beta electrons
       nuclear repulsion energy       195.3775425070 Hartrees.
 NAtoms=   14 NActive=   14 NUniq=   14 SFac= 1.00D+00 NAtFMM=   60 NAOKFM=F Big=F
 Integral buffers will be    131072 words long.
 Raffenetti 2 integral format.
 Two-electron integral symmetry is turned on.
 Nuclear repulsion after empirical dispersion term =      195.3623584295 Hartrees.
 One-electron integrals computed using PRISM.
 NBasis=   120 RedAO= T EigKep=  4.71D-03  NBF=   120
 NBsUse=   120 1.00D-06 EigRej= -1.00D+00 NBFU=   120
 Initial guess from the checkpoint file:  "N1_conf-6.chk"
 B after Tr=    -0.000000    0.000000    0.000000
         Rot=    0.999882   -0.013187   -0.004689    0.006261 Ang=  -1.76 deg.
 ExpMin= 1.61D-01 ExpMax= 5.48D+03 ExpMxC= 8.25D+02 IAcc=3 IRadAn=         5 AccDes= 0.00D+00
 Harris functional with IExCor=  402 and IRadAn=       5 diagonalized for initial guess.
 HarFok:  IExCor=  402 AccDes= 0.00D+00 IRadAn=         5 IDoV= 1 UseB2=F ITyADJ=14
 ICtDFT=  3500011 ScaDFX=  1.000000  1.000000  1.000000  1.000000
 FoFCou: FMM=F IPFlag=           0 FMFlag=      100000 FMFlg1=           0
         NFxFlg=           0 DoJE=T BraDBF=F KetDBF=T FulRan=T
         wScrn=  0.000000 ICntrl=       500 IOpCl=  0 I1Cent=   200000004 NGrid=           0
         NMat0=    1 NMatS0=      1 NMatT0=    0 NMatD0=    1 NMtDS0=    0 NMtDT0=    0
 Petite list used in FoFCou.
 Requested convergence on RMS density matrix=1.00D-08 within 128 cycles.
 Requested convergence on MAX density matrix=1.00D-06.
 Requested convergence on             energy=1.00D-06.
 No special actions if energy rises.
 Integral accuracy reduced to 1.0D-05 until final iterations.
 Initial convergence to 1.0D-05 achieved.  Increase integral accuracy.
 SCF Done:  E(RB3LYP) =  -249.712447235     A.U. after   11 cycles
            NFock= 11  Conv=0.36D-08     -V/T= 2.0093
 Calling FoFJK, ICntrl=      2127 FMM=F ISym2X=0 I1Cent= 0 IOpClX= 0 NMat=1 NMatS=1 NMatT=0.
 ***** Axes restored to original set *****
 -------------------------------------------------------------------
 Center     Atomic                   Forces (Hartrees/Bohr)
 Number     Number              X              Y              Z
 -------------------------------------------------------------------
      1        7          -0.000632643    0.000748890    0.000295694
      2        6          -0.000241645    0.000756386   -0.001062280
      3        6           0.001127545   -0.001000752    0.001858810
      4        8          -0.001111432    0.000218765   -0.001543431
      5        6           0.000478260   -0.000774755    0.000471073
      6        1           0.000238619   -0.000033855    0.000591582
      7        1           0.000495949   -0.000709211    0.000160981
      8        1          -0.000224426    0.000428791   -0.000353257
      9        1          -0.000208582   -0.000313810   -0.000287961
     10        1           0.000185932   -0.000307783    0.000673589
     11        1          -0.000325241    0.000185132   -0.000313599
     12        1          -0.000100530    0.000351313    0.000242530
     13        1           0.000010098    0.000464487   -0.000626308
     14        1           0.000308097   -0.000013597   -0.000107424
 -------------------------------------------------------------------
 Cartesian Forces:  Max     0.001858810 RMS     0.000631458

 GradGradGradGradGradGradGradGradGradGradGradGradGradGradGradGradGradGrad
 Berny optimization.
 Using GEDIIS/GDIIS optimizer.
 FormGI is forming the generalized inverse of G from B-inverse, IUseBI=4.
 Internal  Forces:  Max     0.002764296 RMS     0.000712657
 Search for a local minimum.
 Step number   3 out of a maximum of   66
 All quantities printed in internal units (Hartrees-Bohrs-Radians)
 Mixed Optimization -- En-DIIS/RFO-DIIS
 Swapping is turned off.
 Update second derivatives using D2CorX and points    2    3
 DE= -3.83D-04 DEPred=-4.33D-04 R= 8.84D-01
 TightC=F SS=  1.41D+00  RLast= 3.47D-01 DXNew= 8.4853D-01 1.0405D+00
 Trust test= 8.84D-01 RLast= 3.47D-01 DXMaxT set to 8.49D-01
 ITU=  1  1  0
     Eigenvalues ---    0.00363   0.00782   0.01241   0.01398   0.04350
     Eigenvalues ---    0.04833   0.05019   0.05548   0.05770   0.09303
     Eigenvalues ---    0.10199   0.10478   0.11427   0.12811   0.13806
     Eigenvalues ---    0.15434   0.16000   0.16000   0.16009   0.16428
     Eigenvalues ---    0.21001   0.22192   0.25918   0.28307   0.34130
     Eigenvalues ---    0.34517   0.34597   0.34655   0.34743   0.34766
     Eigenvalues ---    0.34820   0.38037   0.41830   0.42271   0.45389
     Eigenvalues ---    0.45747
 En-DIIS/RFO-DIIS/Sim-DIIS IScMMF=       -3 using points:     3    2
 RFO step:  Lambda=-2.11200064D-04.
 DidBck=F Rises=F RFO-DIIS coefs:    0.91784    0.08216
 Iteration  1 RMS(Cart)=  0.01784836 RMS(Int)=  0.00016933
 Iteration  2 RMS(Cart)=  0.00026915 RMS(Int)=  0.00001978
 Iteration  3 RMS(Cart)=  0.00000004 RMS(Int)=  0.00001978
 Variable       Old X    -DE/DX   Delta X   Delta X   Delta X     New X
                                 (Linear)    (Quad)   (Total)
    R1        2.76830  -0.00012   0.00065  -0.00270  -0.00205   2.76625
    R2        1.92391   0.00002  -0.00019   0.00112   0.00093   1.92484
    R3        1.92252  -0.00014  -0.00017   0.00073   0.00057   1.92309
    R4        2.87621   0.00059  -0.00006   0.00127   0.00121   2.87742
    R5        2.07393  -0.00023  -0.00006  -0.00010  -0.00016   2.07377
    R6        2.08633  -0.00011  -0.00021   0.00116   0.00095   2.08728
    R7        2.69381  -0.00034  -0.00041   0.00082   0.00041   2.69422
    R8        2.07484  -0.00004  -0.00008   0.00059   0.00051   2.07535
    R9        2.07561  -0.00039  -0.00010  -0.00039  -0.00049   2.07512
   R10        2.67680  -0.00033   0.00009  -0.00140  -0.00131   2.67549
   R11        2.07999   0.00003  -0.00015   0.00118   0.00104   2.08102
   R12        2.07579  -0.00017  -0.00005   0.00015   0.00010   2.07590
   R13        2.06638  -0.00028  -0.00007  -0.00030  -0.00037   2.06601
    A1        1.87674  -0.00018   0.00066  -0.00149  -0.00083   1.87592
    A2        1.91291   0.00030   0.00024   0.00257   0.00281   1.91571
    A3        1.84291   0.00048  -0.00006   0.00816   0.00809   1.85100
    A4        1.92800  -0.00273   0.00079  -0.01628  -0.01549   1.91251
    A5        1.90073   0.00064   0.00006   0.00061   0.00068   1.90141
    A6        1.98794   0.00062   0.00079   0.00011   0.00094   1.98887
    A7        1.88502   0.00090  -0.00039   0.00509   0.00467   1.88969
    A8        1.88854   0.00124  -0.00118   0.01128   0.01009   1.89863
    A9        1.87026  -0.00057  -0.00018   0.00002  -0.00019   1.87007
   A10        1.93994  -0.00276   0.00063  -0.01528  -0.01466   1.92527
   A11        1.90439   0.00143  -0.00022   0.01105   0.01084   1.91523
   A12        1.91683   0.00027   0.00018  -0.00263  -0.00250   1.91433
   A13        1.88493   0.00055  -0.00004   0.00307   0.00308   1.88802
   A14        1.92794   0.00103  -0.00037   0.00200   0.00157   1.92950
   A15        1.88867  -0.00044  -0.00020   0.00251   0.00229   1.89097
   A16        1.99198  -0.00114  -0.00046  -0.00264  -0.00310   1.98888
   A17        1.94812   0.00032   0.00015   0.00191   0.00207   1.95019
   A18        1.95896  -0.00094   0.00105  -0.00979  -0.00874   1.95022
   A19        1.86766  -0.00019  -0.00081   0.00057  -0.00024   1.86742
   A20        1.88631   0.00069   0.00022   0.00397   0.00420   1.89051
   A21        1.89613  -0.00014  -0.00018   0.00015  -0.00003   1.89610
   A22        1.90554   0.00026  -0.00049   0.00343   0.00293   1.90847
    D1        1.14784  -0.00019  -0.00441   0.02504   0.02062   1.16846
    D2       -3.06786  -0.00032  -0.00438   0.02199   0.01762  -3.05024
    D3       -0.98172  -0.00019  -0.00405   0.02252   0.01846  -0.96326
    D4       -3.14026   0.00043  -0.00401   0.03516   0.03115  -3.10911
    D5       -1.07277   0.00030  -0.00397   0.03210   0.02814  -1.04463
    D6        1.01336   0.00043  -0.00364   0.03264   0.02899   1.04235
    D7       -1.00555  -0.00008  -0.00856  -0.01172  -0.02031  -1.02586
    D8       -3.08238   0.00002  -0.00876  -0.01320  -0.02193  -3.10431
    D9        1.13325  -0.00046  -0.00848  -0.02130  -0.02976   1.10349
   D10       -3.08260   0.00018  -0.00886  -0.00614  -0.01502  -3.09762
   D11        1.12375   0.00028  -0.00906  -0.00761  -0.01664   1.10711
   D12       -0.94380  -0.00020  -0.00878  -0.01572  -0.02447  -0.96827
   D13        1.18149  -0.00026  -0.00786  -0.01467  -0.02258   1.15891
   D14       -0.89534  -0.00017  -0.00805  -0.01614  -0.02420  -0.91954
   D15       -2.96289  -0.00065  -0.00778  -0.02425  -0.03203  -2.99492
   D16        1.92377  -0.00042  -0.00420   0.01701   0.01281   1.93658
   D17       -2.27096   0.00004  -0.00412   0.02341   0.01929  -2.25167
   D18       -0.20861   0.00043  -0.00460   0.02942   0.02482  -0.18379
   D19        1.11287   0.00020  -0.00017   0.00400   0.00383   1.11670
   D20       -1.00791  -0.00026  -0.00132   0.00447   0.00316  -1.00475
   D21       -3.09798   0.00010  -0.00080   0.00562   0.00481  -3.09317
         Item               Value     Threshold  Converged?
 Maximum Force            0.002764     0.000450     NO 
 RMS     Force            0.000713     0.000300     NO 
 Maximum Displacement     0.040403     0.001800     NO 
 RMS     Displacement     0.017842     0.001200     NO 
 Predicted change in Energy=-1.066857D-04
 GradGradGradGradGradGradGradGradGradGradGradGradGradGradGradGradGradGrad

                          Input orientation:                          
 ---------------------------------------------------------------------
 Center     Atomic      Atomic             Coordinates (Angstroms)
 Number     Number       Type             X           Y           Z
 ---------------------------------------------------------------------
      1          7           0       -0.566839   -1.202512   -1.705405
      2          6           0        0.622816   -0.349884   -1.681528
      3          6           0        1.018156   -0.065865   -0.238773
      4          8           0       -0.053273    0.573327    0.451262
      5          6           0       -0.659404   -0.233000    1.444717
      6          1           0       -1.341403   -0.657619   -1.330370
      7          1           0       -0.815455   -1.419412   -2.668093
      8          1           0        1.451409   -0.880788   -2.167165
      9          1           0        0.496597    0.610985   -2.211448
     10          1           0        1.887641    0.604698   -0.217663
     11          1           0        1.293166   -1.004210    0.260938
     12          1           0        0.043337   -0.476938    2.256726
     13          1           0       -1.043911   -1.173324    1.026762
     14          1           0       -1.489037    0.343841    1.862139
 ---------------------------------------------------------------------
                    Distance matrix (angstroms):
                    1          2          3          4          5
     1  N    0.000000
     2  C    1.463838   0.000000
     3  C    2.440324   1.522663   0.000000
     4  O    2.840522   2.420374   1.425720   0.000000
     5  C    3.297240   3.381000   2.382495   1.415808   0.000000
     6  H    1.018581   2.018952   2.666322   2.519667   2.889036
     7  H    1.017656   2.045928   3.331037   3.779194   4.283355
     8  H    2.095246   1.097392   2.137873   3.351818   4.233303
     9  H    2.162347   1.104543   2.149789   2.719154   3.926346
    10  H    3.391733   2.157293   1.098229   2.053191   3.154788
    11  H    2.713936   2.156545   1.098104   2.082725   2.410110
    12  H    4.073972   3.982685   2.710492   2.090954   1.101231
    13  H    2.773659   3.284946   2.660858   2.088865   1.098518
    14  H    3.996126   4.183151   3.296621   2.025995   1.093287
                    6          7          8          9         10
     6  H    0.000000
     7  H    1.626791   0.000000
     8  H    2.924009   2.383216   0.000000
     9  H    2.400812   2.460187   1.771727   0.000000
    10  H    3.641193   4.172332   2.489483   2.431095   0.000000
    11  H    3.097312   3.632891   2.436383   3.058769   1.780743
    12  H    3.849338   5.087201   4.660104   4.620995   3.270168
    13  H    2.431157   3.710081   4.063665   4.005362   3.647459
    14  H    3.349154   4.907726   5.136267   4.539627   3.974366
                   11         12         13         14
    11  H    0.000000
    12  H    2.413143   0.000000
    13  H    2.465160   1.783219   0.000000
    14  H    3.481629   1.782567   1.788234   0.000000
 Stoichiometry    C3H9NO
 Framework group  C1[X(C3H9NO)]
 Deg. of freedom    36
 Full point group                 C1      NOp   1
 Largest Abelian subgroup         C1      NOp   1
 Largest concise Abelian subgroup C1      NOp   1
                         Standard orientation:                         
 ---------------------------------------------------------------------
 Center     Atomic      Atomic             Coordinates (Angstroms)
 Number     Number       Type             X           Y           Z
 ---------------------------------------------------------------------
      1          7           0       -1.434435    1.006075    0.126303
      2          6           0       -1.388639   -0.443279   -0.073945
      3          6           0        0.000606   -0.962399    0.271038
      4          8           0        0.982848   -0.326740   -0.543710
      5          6           0        1.831969    0.557790    0.164183
      6          1           0       -0.822760    1.430493   -0.568845
      7          1           0       -2.370431    1.351689   -0.073914
      8          1           0       -2.111190   -0.919181    0.601115
      9          1           0       -1.642815   -0.762424   -1.100374
     10          1           0        0.049108   -2.043725    0.085327
     11          1           0        0.208271   -0.784737    1.334591
     12          1           0        2.441226    0.026976    0.912348
     13          1           0        1.262705    1.344518    0.677737
     14          1           0        2.500535    1.015119   -0.570083
 ---------------------------------------------------------------------
 Rotational constants (GHZ):           8.7901900           3.4432093           2.7853887
 Standard basis: 6-31G(d,p) (6D, 7F)
 There are   120 symmetry adapted cartesian basis functions of A   symmetry.
 There are   120 symmetry adapted basis functions of A   symmetry.
   120 basis functions,   203 primitive gaussians,   120 cartesian basis functions
    21 alpha electrons       21 beta electrons
       nuclear repulsion energy       195.7363415865 Hartrees.
 NAtoms=   14 NActive=   14 NUniq=   14 SFac= 1.00D+00 NAtFMM=   60 NAOKFM=F Big=F
 Integral buffers will be    131072 words long.
 Raffenetti 2 integral format.
 Two-electron integral symmetry is turned on.
 Nuclear repulsion after empirical dispersion term =      195.7211031503 Hartrees.
 One-electron integrals computed using PRISM.
 NBasis=   120 RedAO= T EigKep=  4.74D-03  NBF=   120
 NBsUse=   120 1.00D-06 EigRej= -1.00D+00 NBFU=   120
 Initial guess from the checkpoint file:  "N1_conf-6.chk"
 B after Tr=     0.000000   -0.000000   -0.000000
         Rot=    0.999998    0.000389    0.000032    0.001939 Ang=   0.23 deg.
 ExpMin= 1.61D-01 ExpMax= 5.48D+03 ExpMxC= 8.25D+02 IAcc=3 IRadAn=         5 AccDes= 0.00D+00
 Harris functional with IExCor=  402 and IRadAn=       5 diagonalized for initial guess.
 HarFok:  IExCor=  402 AccDes= 0.00D+00 IRadAn=         5 IDoV= 1 UseB2=F ITyADJ=14
 ICtDFT=  3500011 ScaDFX=  1.000000  1.000000  1.000000  1.000000
 FoFCou: FMM=F IPFlag=           0 FMFlag=      100000 FMFlg1=           0
         NFxFlg=           0 DoJE=T BraDBF=F KetDBF=T FulRan=T
         wScrn=  0.000000 ICntrl=       500 IOpCl=  0 I1Cent=   200000004 NGrid=           0
         NMat0=    1 NMatS0=      1 NMatT0=    0 NMatD0=    1 NMtDS0=    0 NMtDT0=    0
 Petite list used in FoFCou.
 Requested convergence on RMS density matrix=1.00D-08 within 128 cycles.
 Requested convergence on MAX density matrix=1.00D-06.
 Requested convergence on             energy=1.00D-06.
 No special actions if energy rises.
 Integral accuracy reduced to 1.0D-05 until final iterations.
 Initial convergence to 1.0D-05 achieved.  Increase integral accuracy.
 SCF Done:  E(RB3LYP) =  -249.712556480     A.U. after    9 cycles
            NFock=  9  Conv=0.61D-08     -V/T= 2.0093
 Calling FoFJK, ICntrl=      2127 FMM=F ISym2X=0 I1Cent= 0 IOpClX= 0 NMat=1 NMatS=1 NMatT=0.
 ***** Axes restored to original set *****
 -------------------------------------------------------------------
 Center     Atomic                   Forces (Hartrees/Bohr)
 Number     Number              X              Y              Z
 -------------------------------------------------------------------
      1        7          -0.001471004    0.000308094   -0.000834883
      2        6           0.000933350   -0.000154791   -0.000280086
      3        6           0.000665413    0.000488341    0.000220997
      4        8          -0.000271621    0.000722365   -0.000429642
      5        6           0.000316808   -0.000951444    0.000333486
      6        1           0.000408791   -0.000571875   -0.000224362
      7        1           0.000023141   -0.000177306    0.000632327
      8        1          -0.000171131    0.000268020   -0.000257536
      9        1           0.000153854   -0.000364891    0.000590146
     10        1          -0.000025534   -0.000279339    0.000391543
     11        1          -0.000146051    0.000264331   -0.000456952
     12        1          -0.000325676    0.000289983   -0.000087596
     13        1          -0.000182657    0.000259953    0.000379996
     14        1           0.000092317   -0.000101442    0.000022563
 -------------------------------------------------------------------
 Cartesian Forces:  Max     0.001471004 RMS     0.000468019

 GradGradGradGradGradGradGradGradGradGradGradGradGradGradGradGradGradGrad
 Berny optimization.
 Using GEDIIS/GDIIS optimizer.
 FormGI is forming the generalized inverse of G from B-inverse, IUseBI=4.
 Internal  Forces:  Max     0.001108071 RMS     0.000345914
 Search for a local minimum.
 Step number   4 out of a maximum of   66
 All quantities printed in internal units (Hartrees-Bohrs-Radians)
 Mixed Optimization -- En-DIIS/RFO-DIIS
 Swapping is turned off.
 Update second derivatives using D2CorX and points    2    3    4
 DE= -1.09D-04 DEPred=-1.07D-04 R= 1.02D+00
 TightC=F SS=  1.41D+00  RLast= 1.04D-01 DXNew= 1.4270D+00 3.1182D-01
 Trust test= 1.02D+00 RLast= 1.04D-01 DXMaxT set to 8.49D-01
 ITU=  1  1  1  0
     Eigenvalues ---    0.00353   0.00609   0.01175   0.01399   0.04414
     Eigenvalues ---    0.04778   0.05056   0.05693   0.05849   0.09128
     Eigenvalues ---    0.10342   0.10541   0.11356   0.13026   0.13396
     Eigenvalues ---    0.15913   0.15997   0.16000   0.16188   0.17087
     Eigenvalues ---    0.21931   0.23431   0.26376   0.28392   0.34367
     Eigenvalues ---    0.34496   0.34639   0.34653   0.34739   0.34768
     Eigenvalues ---    0.34837   0.39607   0.41860   0.43289   0.45719
     Eigenvalues ---    0.46592
 En-DIIS/RFO-DIIS/Sim-DIIS IScMMF=       -3 using points:     4    3    2
 RFO step:  Lambda=-6.29281796D-05.
 DidBck=F Rises=F RFO-DIIS coefs:    1.66624   -0.59411   -0.07213
 Iteration  1 RMS(Cart)=  0.01852438 RMS(Int)=  0.00015062
 Iteration  2 RMS(Cart)=  0.00018351 RMS(Int)=  0.00001902
 Iteration  3 RMS(Cart)=  0.00000002 RMS(Int)=  0.00001902
 Variable       Old X    -DE/DX   Delta X   Delta X   Delta X     New X
                                 (Linear)    (Quad)   (Total)
    R1        2.76625   0.00111  -0.00194   0.00361   0.00167   2.76792
    R2        1.92484  -0.00070   0.00079  -0.00184  -0.00105   1.92379
    R3        1.92309  -0.00057   0.00052  -0.00141  -0.00089   1.92221
    R4        2.87742   0.00052   0.00086   0.00133   0.00219   2.87961
    R5        2.07377  -0.00014  -0.00006  -0.00034  -0.00040   2.07337
    R6        2.08728  -0.00062   0.00082  -0.00210  -0.00128   2.08600
    R7        2.69422   0.00048   0.00063   0.00102   0.00166   2.69588
    R8        2.07535  -0.00018   0.00041  -0.00071  -0.00030   2.07505
    R9        2.07512  -0.00047  -0.00024  -0.00113  -0.00138   2.07374
   R10        2.67549   0.00078  -0.00095   0.00230   0.00135   2.67684
   R11        2.08102  -0.00034   0.00082  -0.00134  -0.00052   2.08050
   R12        2.07590  -0.00030   0.00011  -0.00089  -0.00078   2.07512
   R13        2.06601  -0.00011  -0.00018  -0.00018  -0.00036   2.06565
    A1        1.87592   0.00036  -0.00113   0.00340   0.00225   1.87817
    A2        1.91571   0.00047   0.00166   0.00269   0.00433   1.92005
    A3        1.85100  -0.00016   0.00545  -0.00198   0.00344   1.85443
    A4        1.91251   0.00057  -0.01101   0.00878  -0.00222   1.91029
    A5        1.90141  -0.00020   0.00040   0.00065   0.00106   1.90247
    A6        1.98887   0.00000  -0.00007  -0.00094  -0.00098   1.98789
    A7        1.88969   0.00015   0.00345   0.00122   0.00463   1.89432
    A8        1.89863  -0.00055   0.00775  -0.00856  -0.00084   1.89779
    A9        1.87007   0.00002   0.00003  -0.00127  -0.00128   1.86879
   A10        1.92527   0.00016  -0.01032   0.00657  -0.00377   1.92151
   A11        1.91523   0.00025   0.00742  -0.00210   0.00533   1.92056
   A12        1.91433  -0.00026  -0.00182  -0.00094  -0.00280   1.91153
   A13        1.88802  -0.00018   0.00209  -0.00172   0.00040   1.88842
   A14        1.92950   0.00010   0.00137   0.00032   0.00162   1.93113
   A15        1.89097  -0.00008   0.00171  -0.00232  -0.00062   1.89035
   A16        1.98888   0.00015  -0.00166   0.00181   0.00015   1.98903
   A17        1.95019  -0.00001   0.00124  -0.00075   0.00049   1.95068
   A18        1.95022   0.00059  -0.00674   0.00726   0.00051   1.95073
   A19        1.86742  -0.00012   0.00055  -0.00112  -0.00057   1.86685
   A20        1.89051   0.00004   0.00261  -0.00039   0.00221   1.89273
   A21        1.89610  -0.00025   0.00014  -0.00241  -0.00227   1.89383
   A22        1.90847  -0.00027   0.00238  -0.00293  -0.00055   1.90792
    D1        1.16846  -0.00032   0.01762  -0.00994   0.00767   1.17614
    D2       -3.05024   0.00008   0.01558  -0.00298   0.01261  -3.03763
    D3       -0.96326  -0.00003   0.01585  -0.00474   0.01109  -0.95217
    D4       -3.10911  -0.00008   0.02427  -0.00906   0.01523  -3.09389
    D5       -1.04463   0.00033   0.02224  -0.00209   0.02016  -1.02447
    D6        1.04235   0.00021   0.02251  -0.00386   0.01865   1.06100
    D7       -1.02586   0.00002  -0.00601  -0.00051  -0.00654  -1.03240
    D8       -3.10431  -0.00002  -0.00692  -0.00112  -0.00803  -3.11234
    D9        1.10349   0.00008  -0.01238   0.00356  -0.00880   1.09469
   D10       -3.09762  -0.00016  -0.00222  -0.00703  -0.00926  -3.10688
   D11        1.10711  -0.00020  -0.00313  -0.00764  -0.01075   1.09637
   D12       -0.96827  -0.00010  -0.00859  -0.00296  -0.01152  -0.97978
   D13        1.15891   0.00003  -0.00815  -0.00161  -0.00980   1.14911
   D14       -0.91954  -0.00001  -0.00906  -0.00222  -0.01129  -0.93083
   D15       -2.99492   0.00009  -0.01451   0.00246  -0.01206  -3.00698
   D16        1.93658   0.00019   0.01222   0.01905   0.03127   1.96785
   D17       -2.25167   0.00049   0.01647   0.01932   0.03579  -2.21589
   D18       -0.18379   0.00034   0.02057   0.01565   0.03622  -0.14757
   D19        1.11670   0.00032   0.00269   0.00347   0.00616   1.12286
   D20       -1.00475  -0.00015   0.00326  -0.00067   0.00259  -1.00217
   D21       -3.09317  -0.00008   0.00391  -0.00059   0.00332  -3.08985
         Item               Value     Threshold  Converged?
 Maximum Force            0.001108     0.000450     NO 
 RMS     Force            0.000346     0.000300     NO 
 Maximum Displacement     0.060572     0.001800     NO 
 RMS     Displacement     0.018518     0.001200     NO 
 Predicted change in Energy=-3.160382D-05
 GradGradGradGradGradGradGradGradGradGradGradGradGradGradGradGradGradGrad

                          Input orientation:                          
 ---------------------------------------------------------------------
 Center     Atomic      Atomic             Coordinates (Angstroms)
 Number     Number       Type             X           Y           Z
 ---------------------------------------------------------------------
      1          7           0       -0.565944   -1.200429   -1.720411
      2          6           0        0.623668   -0.346539   -1.687173
      3          6           0        1.012749   -0.074507   -0.239191
      4          8           0       -0.062675    0.565935    0.445262
      5          6           0       -0.655593   -0.229079    1.456666
      6          1           0       -1.344465   -0.658550   -1.350752
      7          1           0       -0.806742   -1.424559   -2.682935
      8          1           0        1.453125   -0.870129   -2.178759
      9          1           0        0.495979    0.618683   -2.207330
     10          1           0        1.886410    0.589679   -0.202737
     11          1           0        1.276933   -1.018966    0.253187
     12          1           0        0.051291   -0.445928    2.272383
     13          1           0       -1.029848   -1.181699    1.058816
     14          1           0       -1.491089    0.345386    1.865074
 ---------------------------------------------------------------------
                    Distance matrix (angstroms):
                    1          2          3          4          5
     1  N    0.000000
     2  C    1.464722   0.000000
     3  C    2.440079   1.523823   0.000000
     4  O    2.839624   2.418875   1.426597   0.000000
     5  C    3.323459   3.396178   2.383944   1.416523   0.000000
     6  H    1.018025   2.020910   2.670792   2.523493   2.922428
     7  H    1.017188   2.049328   3.332428   3.781709   4.311417
     8  H    2.096621   1.097180   2.142165   3.353420   4.251348
     9  H    2.161929   1.103866   2.149682   2.711295   3.933152
    10  H    3.394387   2.162076   1.098069   2.054117   3.144163
    11  H    2.706329   2.154973   1.097375   2.084072   2.409759
    12  H    4.110068   4.001946   2.714840   2.091704   1.100955
    13  H    2.817740   3.312410   2.661371   2.089520   1.098106
    14  H    4.012623   4.191589   3.297491   2.026049   1.093097
                    6          7          8          9         10
     6  H    0.000000
     7  H    1.628075   0.000000
     8  H    2.925213   2.380879   0.000000
     9  H    2.398391   2.469437   1.770172   0.000000
    10  H    3.648913   4.178709   2.494683   2.439781   0.000000
    11  H    3.094228   3.623123   2.442859   3.057111   1.779626
    12  H    3.888502   5.123389   4.685910   4.625902   3.250594
    13  H    2.485696   3.756256   4.091958   4.029544   3.637836
    14  H    3.372080   4.928025   5.147666   4.539560   3.967748
                   11         12         13         14
    11  H    0.000000
    12  H    2.430580   0.000000
    13  H    2.448827   1.784087   0.000000
[...]
 ---------------------------------------------------------------------
 Center     Atomic      Atomic             Coordinates (Angstroms)
 Number     Number       Type             X           Y           Z
 ---------------------------------------------------------------------
      1          7           0       -1.864232    0.745088    0.261756
      2          6           0       -1.366203   -0.543614   -0.220401
      3          6           0        0.064950   -0.737403    0.245854
      4          8           0        0.858705    0.261714   -0.376007
      5          6           0        2.193891    0.259258    0.077741
      6          1           0       -1.241880    1.469635   -0.088984
      7          1           0       -2.782577    0.933287   -0.131605
      8          1           0       -1.981405   -1.346755    0.202983
      9          1           0       -1.385432   -0.661091   -1.317914
     10          1           0        0.428874   -1.742254   -0.025139
     11          1           0        0.113395   -0.636327    1.341521
     12          1           0        2.695460   -0.697946   -0.135744
     13          1           0        2.256966    0.444844    1.161249
     14          1           0        2.720758    1.057840   -0.449765
 ---------------------------------------------------------------------
 Rotational constants (GHZ):          12.6056263           2.7196129           2.4483025
 Standard basis: def2TZVP (5D, 7F)
 There are   234 symmetry adapted cartesian basis functions of A   symmetry.
 There are   209 symmetry adapted basis functions of A   symmetry.
   209 basis functions,   327 primitive gaussians,   234 cartesian basis functions
    21 alpha electrons       21 beta electrons
       nuclear repulsion energy       193.3502992510 Hartrees.
 NAtoms=   14 NActive=   14 NUniq=   14 SFac= 1.00D+00 NAtFMM=   60 NAOKFM=F Big=F
 Integral buffers will be    131072 words long.
 Raffenetti 2 integral format.
 Two-electron integral symmetry is turned on.
 One-electron integrals computed using PRISM.
   1 Symmetry operations used in ECPInt.
 ECPInt:  NShTT=    4186 NPrTT=   12072 LenC2=    4143 LenP2D=   10011.
 LDataN:  DoStor=T MaxTD1= 6 Len=  172
 NBasis=   209 RedAO= T EigKep=  3.57D-04  NBF=   209
 NBsUse=   209 1.00D-06 EigRej= -1.00D+00 NBFU=   209
 Initial guess from the checkpoint file:  "N1_conf-6.chk"
 B after Tr=    -0.000000    0.000000    0.000000
         Rot=    1.000000   -0.000000    0.000000   -0.000000 Ang=   0.00 deg.
 Requested convergence on RMS density matrix=1.00D-08 within 128 cycles.
 Requested convergence on MAX density matrix=1.00D-06.
 Requested convergence on             energy=1.00D-06.
 No special actions if energy rises.
 SCF Done:  E(RM062X) =  -249.672198336     A.U. after    1 cycles
            NFock=  1  Conv=0.16D-08     -V/T= 2.0052
 DoSCS=F DFT=T ScalE2(SS,OS)=  1.000000  1.000000
 Range of M.O.s used for correlation:     1   209
 NBasis=   209 NAE=    21 NBE=    21 NFC=     0 NFV=     0
 NROrb=    209 NOA=    21 NOB=    21 NVA=   188 NVB=   188

 **** Warning!!: The largest alpha MO coefficient is  0.13995896D+02

          Differentiating once with respect to magnetic field using GIAOs.
          Electric field/nuclear overlap derivatives assumed to be zero.
 FoFCou: FMM=F IPFlag=           0 FMFlag=      100000 FMFlg1=           0
         NFxFlg=           0 DoJE=F BraDBF=F KetDBF=T FulRan=T
         wScrn=  0.000000 ICntrl=      6100 IOpCl=  0 I1Cent=           7 NGrid=          14
         NMat0=    1 NMatS0=      1 NMatT0=    0 NMatD0=    1 NMtDS0=    0 NMtDT0=    0
 Symmetry not used in FoFCou.
   1 Symmetry operations used in ECPInt.
 ECPInt:  NShTT=    4186 NPrTT=   12072 LenC2=    4187 LenP2D=   12072.
 LDataN:  DoStor=T MaxTD1= 7 Len=  274
 FoFJK:  IHMeth= 1 ICntrl=    6127 DoSepK=F KAlg= 0 I1Cent=           0 FoldK=F
 IRaf=         1 NMat=       1 IRICut=       1 DoRegI=T DoRafI=F ISym2E= 0 IDoP0=0 IntGTp=1.
          There are     3 degrees of freedom in the 1st order CPHF.  IDoFFX=0 NUNeed=     3.
      3 vectors produced by pass  0 Test12= 1.32D-13 3.33D-08 XBig12= 2.83D+00 3.80D-01.
 AX will form     3 AO Fock derivatives at one time.
      3 vectors produced by pass  1 Test12= 1.32D-13 3.33D-08 XBig12= 1.05D-02 2.17D-02.
      3 vectors produced by pass  2 Test12= 1.32D-13 3.33D-08 XBig12= 6.48D-05 2.65D-03.
      3 vectors produced by pass  3 Test12= 1.32D-13 3.33D-08 XBig12= 6.39D-07 1.88D-04.
      3 vectors produced by pass  4 Test12= 1.32D-13 3.33D-08 XBig12= 8.65D-09 1.49D-05.
      3 vectors produced by pass  5 Test12= 1.32D-13 3.33D-08 XBig12= 7.59D-11 1.42D-06.
      3 vectors produced by pass  6 Test12= 1.32D-13 3.33D-08 XBig12= 4.89D-13 1.33D-07.
 InvSVY:  IOpt=1 It=  1 EMax= 8.75D-17
 Solved reduced A of dimension    21 with     3 vectors.
 Calculating GIAO nuclear magnetic shielding tensors.
 SCF GIAO Magnetic shielding tensor (ppm):
      1  N    Isotropic =   234.8215   Anisotropy =    36.1851
   XX=   255.0881   YX=    -6.4789   ZX=     5.5951
   XY=   -12.7830   YY=   233.9404   ZY=     9.0767
   XZ=     3.9563   YZ=    26.7571   ZZ=   215.4361
   Eigenvalues:   202.9161   242.6037   258.9449
      2  C    Isotropic =   139.5798   Anisotropy =    22.0572
   XX=   138.8567   YX=    -4.7098   ZX=    -1.1140
   XY=   -13.7926   YY=   147.9286   ZY=     4.7951
   XZ=    -2.6677   YZ=     1.3912   ZZ=   131.9540
   Eigenvalues:   131.3650   133.0899   154.2846
      3  C    Isotropic =   107.1696   Anisotropy =    62.6257
   XX=   122.6899   YX=    17.6768   ZX=    -9.6274
   XY=    32.0744   YY=   106.7803   ZY=   -21.6595
   XZ=   -16.0703   YZ=   -15.2347   ZZ=    92.0386
   Eigenvalues:    79.0942    93.4946   148.9201
      4  O    Isotropic =   314.4543   Anisotropy =    51.0015
   XX=   310.9485   YX=     5.4768   ZX=     5.7464
   XY=    13.5351   YY=   301.4165   ZY=   -22.4200
   XZ=    -4.1202   YZ=   -33.7894   ZZ=   330.9978
   Eigenvalues:   281.9030   313.0045   348.4553
      5  C    Isotropic =   125.2314   Anisotropy =    90.3109
   XX=   178.9804   YX=     7.2037   ZX=    21.3640
   XY=     4.1313   YY=    93.7600   ZY=     1.6614
   XZ=    23.2467   YZ=     2.6593   ZZ=   102.9539
   Eigenvalues:    93.2643    96.9912   185.4387
      6  H    Isotropic =    30.9134   Anisotropy =    11.2765
   XX=    33.2569   YX=     1.9713   ZX=    -3.2455
   XY=     3.3928   YY=    35.9377   ZY=    -2.5287
   XZ=    -1.3450   YZ=    -2.9140   ZZ=    23.5456
   Eigenvalues:    22.6834    31.6257    38.4310
      7  H    Isotropic =    31.6559   Anisotropy =    15.2931
   XX=    39.2498   YX=    -2.9978   ZX=     4.2477
   XY=    -5.6871   YY=    29.6817   ZY=    -0.3420
   XZ=     3.8458   YZ=     0.1623   ZZ=    26.0363
   Eigenvalues:    24.5951    28.5215    41.8513
      8  H    Isotropic =    29.4275   Anisotropy =     8.1235
   XX=    29.5906   YX=     2.0906   ZX=    -0.9597
   XY=     3.6107   YY=    33.0385   ZY=    -0.7293
   XZ=    -2.1205   YZ=    -0.5995   ZZ=    25.6533
   Eigenvalues:    25.1080    28.3313    34.8432
      9  H    Isotropic =    28.8014   Anisotropy =     8.2286
   XX=    26.5713   YX=    -1.2956   ZX=     0.7220
   XY=    -1.2437   YY=    28.0469   ZY=     4.5032
   XZ=     1.2005   YZ=     3.3927   ZZ=    31.7860
   Eigenvalues:    24.3918    27.7252    34.2871
     10  H    Isotropic =    28.5235   Anisotropy =     5.8507
   XX=    28.0272   YX=     0.8882   ZX=    -0.6119
   XY=    -1.4442   YY=    32.3806   ZY=    -0.4666
   XZ=    -0.5402   YZ=    -0.4662   ZZ=    25.1626
   Eigenvalues:    25.0156    28.1309    32.4239
     11  H    Isotropic =    28.5994   Anisotropy =     6.2158
   XX=    28.2435   YX=     1.2062   ZX=    -1.8384
   XY=     0.2403   YY=    26.8205   ZY=    -3.9694
   XZ=    -0.1792   YZ=    -2.1414   ZZ=    30.7341
   Eigenvalues:    25.1412    27.9137    32.7432
     12  H    Isotropic =    28.7373   Anisotropy =     8.6088
   XX=    33.0583   YX=    -4.6643   ZX=    -0.0261
   XY=    -1.8035   YY=    27.0952   ZY=     0.9819
   XZ=     0.2784   YZ=     0.0766   ZZ=    26.0584
   Eigenvalues:    25.2998    26.4356    34.4765
     13  H    Isotropic =    28.7435   Anisotropy =     8.3699
   XX=    30.3286   YX=     0.6057   ZX=     5.3842
   XY=     0.8263   YY=    25.9568   ZY=     1.6360
   XZ=     2.3380   YZ=     1.5955   ZZ=    29.9451
   Eigenvalues:    25.2182    26.6889    34.3234
     14  H    Isotropic =    28.2911   Anisotropy =     9.1616
   XX=    32.6317   YX=     4.4955   ZX=    -1.4901
   XY=     2.4476   YY=    26.9398   ZY=    -1.3658
   XZ=     0.1860   YZ=    -0.8303   ZZ=    25.3018
   Eigenvalues:    24.5261    25.9484    34.3988
 End of Minotr F.D. properties file   721 does not exist.
 End of Minotr F.D. properties file   722 does not exist.
 End of Minotr F.D. properties file   788 does not exist.

 **********************************************************************

            Population analysis using the SCF Density.

 **********************************************************************

 Orbital symmetries:
       Occupied  (A) (A) (A) (A) (A) (A) (A) (A) (A) (A) (A) (A)
                 (A) (A) (A) (A) (A) (A) (A) (A) (A)
       Virtual   (A) (A) (A) (A) (A) (A) (A) (A) (A) (A) (A) (A)
                 (A) (A) (A) (A) (A) (A) (A) (A) (A) (A) (A) (A)
                 (A) (A) (A) (A) (A) (A) (A) (A) (A) (A) (A) (A)
                 (A) (A) (A) (A) (A) (A) (A) (A) (A) (A) (A) (A)
                 (A) (A) (A) (A) (A) (A) (A) (A) (A) (A) (A) (A)
                 (A) (A) (A) (A) (A) (A) (A) (A) (A) (A) (A) (A)
                 (A) (A) (A) (A) (A) (A) (A) (A) (A) (A) (A) (A)
                 (A) (A) (A) (A) (A) (A) (A) (A) (A) (A) (A) (A)
                 (A) (A) (A) (A) (A) (A) (A) (A) (A) (A) (A) (A)
                 (A) (A) (A) (A) (A) (A) (A) (A) (A) (A) (A) (A)
                 (A) (A) (A) (A) (A) (A) (A) (A) (A) (A) (A) (A)
                 (A) (A) (A) (A) (A) (A) (A) (A) (A) (A) (A) (A)
                 (A) (A) (A) (A) (A) (A) (A) (A) (A) (A) (A) (A)
                 (A) (A) (A) (A) (A) (A) (A) (A) (A) (A) (A) (A)
                 (A) (A) (A) (A) (A) (A) (A) (A) (A) (A) (A) (A)
                 (A) (A) (A) (A) (A) (A) (A) (A)
 The electronic state is 1-A.
 Alpha  occ. eigenvalues --  -19.62895 -14.71978 -10.57953 -10.57811 -10.55627
 Alpha  occ. eigenvalues --   -1.15858  -0.98221  -0.83574  -0.75702  -0.67969
 Alpha  occ. eigenvalues --   -0.57821  -0.56690  -0.54400  -0.51177  -0.50436
 Alpha  occ. eigenvalues --   -0.45232  -0.44091  -0.41237  -0.39334  -0.33471
 Alpha  occ. eigenvalues --   -0.30636
 Alpha virt. eigenvalues --    0.06929   0.08684   0.10028   0.12443   0.13357
 Alpha virt. eigenvalues --    0.14244   0.14770   0.15508   0.16569   0.18070
 Alpha virt. eigenvalues --    0.20366   0.22742   0.23245   0.23874   0.26072
 Alpha virt. eigenvalues --    0.31325   0.33834   0.35037   0.35679   0.38335
 Alpha virt. eigenvalues --    0.38681   0.39488   0.42861   0.43882   0.46114
 Alpha virt. eigenvalues --    0.46235   0.47560   0.49234   0.50156   0.50850
 Alpha virt. eigenvalues --    0.51517   0.53294   0.54086   0.56666   0.57549
 Alpha virt. eigenvalues --    0.59335   0.60213   0.64239   0.69048   0.70329
 Alpha virt. eigenvalues --    0.72370   0.77832   0.81452   0.83818   0.85424
 Alpha virt. eigenvalues --    0.90249   0.92118   0.95792   0.97636   1.01307
 Alpha virt. eigenvalues --    1.04618   1.08363   1.10247   1.16431   1.18716
 Alpha virt. eigenvalues --    1.21660   1.23295   1.28488   1.35001   1.37915
 Alpha virt. eigenvalues --    1.40027   1.45993   1.48056   1.51903   1.56439
 Alpha virt. eigenvalues --    1.56782   1.58370   1.58778   1.61402   1.63863
 Alpha virt. eigenvalues --    1.66829   1.68498   1.70711   1.73640   1.76156
 Alpha virt. eigenvalues --    1.78050   1.79995   1.83518   1.90111   1.91996
 Alpha virt. eigenvalues --    1.95628   1.97773   2.00675   2.01931   2.03426
 Alpha virt. eigenvalues --    2.04581   2.06242   2.08251   2.09770   2.14101
 Alpha virt. eigenvalues --    2.16683   2.24955   2.27148   2.32641   2.33452
 Alpha virt. eigenvalues --    2.35484   2.42445   2.43002   2.45410   2.46737
 Alpha virt. eigenvalues --    2.48794   2.51506   2.52123   2.54852   2.56696
 Alpha virt. eigenvalues --    2.57496   2.59986   2.61640   2.64825   2.67110
 Alpha virt. eigenvalues --    2.68862   2.70400   2.74174   2.76391   2.79911
 Alpha virt. eigenvalues --    2.85296   2.90635   2.93398   2.98550   3.04492
 Alpha virt. eigenvalues --    3.08828   3.10590   3.14034   3.15754   3.17233
 Alpha virt. eigenvalues --    3.18984   3.20720   3.22507   3.24085   3.27065
 Alpha virt. eigenvalues --    3.32348   3.32913   3.36538   3.40568   3.42298
 Alpha virt. eigenvalues --    3.43470   3.45729   3.53728   3.57570   3.59926
 Alpha virt. eigenvalues --    3.64355   3.71015   3.77552   3.78703   3.81856
 Alpha virt. eigenvalues --    3.87227   3.90782   3.98456   4.02585   4.14107
 Alpha virt. eigenvalues --    4.17515   4.24699   4.29774   4.31392   4.32518
 Alpha virt. eigenvalues --    4.38620   4.41499   4.48988   4.52660   4.61996
 Alpha virt. eigenvalues --    4.73995   4.80168   4.82465   4.85697   4.90477
 Alpha virt. eigenvalues --    5.05426   5.08679   5.16652   5.25489   5.39531
 Alpha virt. eigenvalues --    5.45524   5.52047   5.71628   5.75658   5.83079
 Alpha virt. eigenvalues --    5.84432   6.11217   6.16915   6.68614   6.70110
 Alpha virt. eigenvalues --    6.84110   7.16294   7.23201  22.39310  22.50519
 Alpha virt. eigenvalues --   22.58303  32.03303  44.17283
          Condensed to atoms (all electrons):
               1          2          3          4          5          6
     1  N    6.708748   0.244115  -0.033068  -0.004816  -0.000224   0.371241
     2  C    0.244115   4.942901   0.309756  -0.056093   0.006999  -0.038099
     3  C   -0.033068   0.309756   4.919213   0.229188  -0.069144  -0.020641
     4  O   -0.004816  -0.056093   0.229188   8.105961   0.246547   0.015970
     5  C   -0.000224   0.006999  -0.069144   0.246547   4.838932  -0.000822
     6  H    0.371241  -0.038099  -0.020641   0.015970  -0.000822   0.459996
     7  H    0.362413  -0.042212   0.009808  -0.000377   0.000090  -0.034575
     8  H   -0.034686   0.407568  -0.029606   0.005183  -0.000388   0.008604
     9  H   -0.060536   0.439260  -0.050770  -0.000567  -0.000870  -0.004497
    10  H    0.006574  -0.045260   0.416122  -0.042303  -0.004794   0.000694
    11  H    0.000230  -0.029491   0.420365  -0.049664  -0.009334  -0.001447
    12  H   -0.000020  -0.000923  -0.012244  -0.042845   0.418720   0.000199
    13  H   -0.000147   0.000632  -0.009805  -0.045468   0.421833  -0.000156
    14  H    0.000116  -0.000230   0.010767  -0.033332   0.397197  -0.000181
               7          8          9         10         11         12
     1  N    0.362413  -0.034686  -0.060536   0.006574   0.000230  -0.000020
     2  C   -0.042212   0.407568   0.439260  -0.045260  -0.029491  -0.000923
     3  C    0.009808  -0.029606  -0.050770   0.416122   0.420365  -0.012244
     4  O   -0.000377   0.005183  -0.000567  -0.042303  -0.049664  -0.042845
     5  C    0.000090  -0.000388  -0.000870  -0.004794  -0.009334   0.418720
     6  H   -0.034575   0.008604  -0.004497   0.000694  -0.001447   0.000199
     7  H    0.493780  -0.004480  -0.007354  -0.000623  -0.000511   0.000002
     8  H   -0.004480   0.578060  -0.044464  -0.003748  -0.004985  -0.000018
     9  H   -0.007354  -0.044464   0.596991  -0.003937   0.011127  -0.000210
    10  H   -0.000623  -0.003748  -0.003937   0.607213  -0.053767   0.012694
    11  H   -0.000511  -0.004985   0.011127  -0.053767   0.577314  -0.005365
    12  H    0.000002  -0.000018  -0.000210   0.012694  -0.005365   0.589261
    13  H   -0.000013   0.000095   0.000203  -0.004987   0.012835  -0.059844
    14  H   -0.000004   0.000001  -0.000019  -0.000091  -0.000076  -0.025541
              13         14
     1  N   -0.000147   0.000116
     2  C    0.000632  -0.000230
     3  C   -0.009805   0.010767
     4  O   -0.045468  -0.033332
     5  C    0.421833   0.397197
     6  H   -0.000156  -0.000181
     7  H   -0.000013  -0.000004
     8  H    0.000095   0.000001
     9  H    0.000203  -0.000019
    10  H   -0.004987  -0.000091
    11  H    0.012835  -0.000076
    12  H   -0.059844  -0.025541
    13  H    0.580013  -0.025616
    14  H   -0.025616   0.537897
 Mulliken charges:
               1
     1  N   -0.559940
     2  C   -0.138923
     3  C   -0.089940
     4  O   -0.327381
     5  C   -0.244742
     6  H    0.243713
     7  H    0.224056
     8  H    0.122863
     9  H    0.125644
    10  H    0.116213
    11  H    0.132768
    12  H    0.126133
    13  H    0.130424
    14  H    0.139112
 Sum of Mulliken charges =  -0.00000
 Mulliken charges with hydrogens summed into heavy atoms:
               1
     1  N   -0.092171
     2  C    0.109584
     3  C    0.159041
     4  O   -0.327381
     5  C    0.150927
 Electronic spatial extent (au):  <R**2>=            546.1492
 Charge=             -0.0000 electrons
 Dipole moment (field-independent basis, Debye):
    X=              0.4872    Y=             -0.7043    Z=             -0.5067  Tot=              0.9951
 Quadrupole moment (field-independent basis, Debye-Ang):
   XX=            -28.3003   YY=            -31.1068   ZZ=            -34.9540
   XY=              0.3576   XZ=              3.5026   YZ=             -1.3057
 Traceless Quadrupole moment (field-independent basis, Debye-Ang):
   XX=              3.1534   YY=              0.3469   ZZ=             -3.5003
   XY=              0.3576   XZ=              3.5026   YZ=             -1.3057
 Octapole moment (field-independent basis, Debye-Ang**2):
  XXX=             -1.1111  YYY=              4.6496  ZZZ=             -2.2036  XYY=             -1.0624
  XXY=              3.8871  XXZ=             -7.0613  XZZ=              3.0028  YZZ=             -0.5051
  YYZ=             -2.3381  XYZ=              3.1273
 Hexadecapole moment (field-independent basis, Debye-Ang**3):
 XXXX=           -479.9387 YYYY=           -122.0532 ZZZZ=            -70.4919 XXXY=             -4.0820
 XXXZ=              9.9773 YYYX=             -3.9515 YYYZ=             -2.9421 ZZZX=              4.4525
 ZZZY=             -1.8656 XXYY=           -102.4941 XXZZ=           -107.4378 YYZZ=            -34.9649
 XXYZ=             -7.7489 YYXZ=             -0.1374 ZZXY=              3.4573
 N-N= 1.933502992510D+02 E-N=-9.694515647768D+02  KE= 2.483791098152D+02
 Unable to Open any file for archive entry.
 1\1\GINC-NOTCH098\SP\RM062X\def2TZVP\C3H9N1O1\U6032257\21-Feb-2022\0\\
 # M062X/def2tzvp int=(grid=ultrafine) nmr=giao guess=read geom=check\\
 N1.xyz\\0,1\N,0,-0.4603341419,-1.1834368995,-2.219747423\C,0,0.6234108
 211,-0.3181587902,-1.7527853038\C,0,0.7347728822,-0.4200431738,-0.2426
 981425\O,0,-0.46457104,0.0977158815,0.3127229158\C,0,-0.5294417442,-0.
 0573287255,1.7128549148\H,0,-1.3143372311,-0.8934973635,-1.7486613075\
 H,0,-0.6138637031,-1.0437426806,-3.214948107\H,0,1.5682701905,-0.65701
 07734,-2.1945802431\H,0,0.504090973,0.7477641896,-2.0140856738\H,0,1.6
 053438471,0.1499526892,0.1217398907\H,0,0.8659845356,-1.4743107706,0.0
 477354826\H,0,0.2903342556,0.475163998,2.2206001968\H,0,-0.4845234141,
 -1.117025663,2.0085513667\H,0,-1.4813362308,0.3632580818,2.0454014333\
 \Version=ES64L-G16RevC.01\State=1-A\HF=-249.6721983\RMSD=1.581e-09\Dip
 ole=0.2020799,0.2943474,0.1606139\Quadrupole=0.487309,-3.7134483,3.226
 1393,0.060682,0.0615484,-1.3178883\PG=C01 [X(C3H9N1O1)]\\@
 The archive entry for this job was punched.


 WHEN YOU'VE SEEN ONE NUCLEAR WAR YOU'VE SEEN THEM ALL.
 Job cpu time:       0 days  0 hours  5 minutes  7.7 seconds.
 Elapsed time:       0 days  0 hours  0 minutes  9.2 seconds.
 File lengths (MBytes):  RWF=     30 Int=      0 D2E=      0 Chk=      5 Scr=      1
 Normal termination of Gaussian 16 at Mon Feb 21 19:01:31 2022.
