 Entering Gaussian System, Link 0=/uufs/chpc.utah.edu/sys/installdir/gaussian16/C01/AVX2/g16/g16
 Input=N1_conf-3.com
 Output=N1_conf-3.log
 Initial command:
 /uufs/chpc.utah.edu/sys/installdir/gaussian16/C01/AVX2/g16/l1.exe "/scratch/local/u6032257/4038466/notchpeak.peaks/Gau-103560.inp" -scrdir="/scratch/local/u6032257/4038466/notchpeak.peaks/"
 Entering Link 1 = /uufs/chpc.utah.edu/sys/installdir/gaussian16/C01/AVX2/g16/l1.exe PID=    103563.
  
 Copyright (c) 1988-2019, Gaussian, Inc.  All Rights Reserved.
  
 This is part of the Gaussian(R) 16 program.  It is based on
 the Gaussian(R) 09 system (copyright 2009, Gaussian, Inc.),
 the Gaussian(R) 03 system (copyright 2003, Gaussian, Inc.),
 the Gaussian(R) 98 system (copyright 1998, Gaussian, Inc.),
 the Gaussian(R) 94 system (copyright 1995, Gaussian, Inc.),
 the Gaussian 92(TM) system (copyright 1992, Gaussian, Inc.),
 the Gaussian 90(TM) system (copyright 1990, Gaussian, Inc.),
 the Gaussian 88(TM) system (copyright 1988, Gaussian, Inc.),
 the Gaussian 86(TM) system (copyright 1986, Carnegie Mellon
 University), and the Gaussian 82(TM) system (copyright 1983,
 Carnegie Mellon University). Gaussian is a federally registered
 trademark of Gaussian, Inc.
  
 This software contains proprietary and confidential information,
 including trade secrets, belonging to Gaussian, Inc.
  
 This software is provided under written license and may be
 used, copied, transmitted, or stored only in accord with that
 written license.
  
 The following legend is applicable only to US Government
 contracts under FAR:
  
                    RESTRICTED RIGHTS LEGEND
  
 Use, reproduction and disclosure by the US Government is
 subject to restrictions as set forth in subparagraphs (a)
 and (c) of the Commercial Computer Software - Restricted
 Rights clause in FAR 52.227-19.
  
 Gaussian, Inc.
 340 Quinnipiac St., Bldg. 40, Wallingford CT 06492
  
  
 ---------------------------------------------------------------
 Warning -- This program may not be used in any manner that
 competes with the business of Gaussian, Inc. or will provide
 assistance to any competitor of Gaussian, Inc.  The licensee
 of this program is prohibited from giving any competitor of
 Gaussian, Inc. access to this program.  By using this program,
 the user acknowledges that Gaussian, Inc. is engaged in the
 business of creating and licensing software in the field of
 computational chemistry and represents and warrants to the
 licensee that it is not a competitor of Gaussian, Inc. and that
 it will not use this program in any manner prohibited above.
 ---------------------------------------------------------------
  

 Cite this work as:
 Gaussian 16, Revision C.01,
 M. J. Frisch, G. W. Trucks, H. B. Schlegel, G. E. Scuseria, 
 M. A. Robb, J. R. Cheeseman, G. Scalmani, V. Barone, 
 G. A. Petersson, H. Nakatsuji, X. Li, M. Caricato, A. V. Marenich, 
 J. Bloino, B. G. Janesko, R. Gomperts, B. Mennucci, H. P. Hratchian, 
 J. V. Ortiz, A. F. Izmaylov, J. L. Sonnenberg, D. Williams-Young, 
 F. Ding, F. Lipparini, F. Egidi, J. Goings, B. Peng, A. Petrone, 
 T. Henderson, D. Ranasinghe, V. G. Zakrzewski, J. Gao, N. Rega, 
 G. Zheng, W. Liang, M. Hada, M. Ehara, K. Toyota, R. Fukuda, 
 J. Hasegawa, M. Ishida, T. Nakajima, Y. Honda, O. Kitao, H. Nakai, 
 T. Vreven, K. Throssell, J. A. Montgomery, Jr., J. E. Peralta, 
 F. Ogliaro, M. J. Bearpark, J. J. Heyd, E. N. Brothers, K. N. Kudin, 
 V. N. Staroverov, T. A. Keith, R. Kobayashi, J. Normand, 
 K. Raghavachari, A. P. Rendell, J. C. Burant, S. S. Iyengar, 
 J. Tomasi, M. Cossi, J. M. Millam, M. Klene, C. Adamo, R. Cammi, 
 J. W. Ochterski, R. L. Martin, K. Morokuma, O. Farkas, 
 J. B. Foresman, and D. J. Fox, Gaussian, Inc., Wallingford CT, 2019.
 
 ******************************************
 Gaussian 16:  ES64L-G16RevC.01  3-Jul-2019
                21-Feb-2022 
 ******************************************
 %NProcShared=64
 Will use up to   64 processors via shared memory.
 %mem=16GB
 %chk=N1_conf-3.chk
 ----------------------------------------------------------------------
 # B3LYP/6-31G(d,p) empiricaldispersion=GD3BJ int=(grid=ultrafine) opt 
 freq=noraman
 ----------------------------------------------------------------------
 1/18=20,19=15,26=4,38=1/1,3;
 2/9=110,12=2,17=6,18=5,40=1/2;
 3/5=1,6=6,7=101,11=2,25=1,30=1,71=1,74=-5,75=-5,124=41/1,2,3;
 4//1;
 5/5=2,38=5/2;
 6/7=2,8=2,9=2,10=2,28=1/1;
 7//1,2,3,16;
 1/18=20,19=15,26=4/3(2);
 2/9=110/2;
 99//99;
 2/9=110/2;
 3/5=1,6=6,7=101,11=2,25=1,30=1,71=1,74=-5,75=-5,124=41/1,2,3;
 4/5=5,16=3,69=1/1;
 5/5=2,38=5/2;
 7//1,2,3,16;
 1/18=20,19=15,26=4/3(-5);
 2/9=110/2;
 6/7=2,8=2,9=2,10=2,19=2,28=1/1;
 99/9=1/99;
 ------
 N1.xyz
 ------
 Symbolic Z-matrix:
 Charge =  0 Multiplicity = 1
 N                     0.3363   -1.411    -2.496 
 C                     0.2351   -0.2269   -1.6483 
 C                     0.073    -0.6054   -0.1669 
 O                     0.0399    0.5891    0.6039 
 C                    -0.1403    0.3618    1.9942 
 H                     0.4047   -1.1441   -3.4692 
 H                     1.1797   -1.9273   -2.2842 
 H                     1.1192    0.4024   -1.7696 
 H                    -0.6176    0.381    -1.9577 
 H                    -0.846    -1.1795   -0.0301 
 H                     0.9044   -1.237     0.1527 
 H                     0.6725   -0.2357    2.4104 
 H                    -1.086    -0.1435    2.197 
 H                    -0.1543    1.3165    2.5202 
 

 GradGradGradGradGradGradGradGradGradGradGradGradGradGradGradGradGradGrad
 Berny optimization.
 Initialization pass.
                           ----------------------------
                           !    Initial Parameters    !
                           ! (Angstroms and Degrees)  !
 --------------------------                            --------------------------
 ! Name  Definition              Value          Derivative Info.                !
 --------------------------------------------------------------------------------
 ! R1    R(1,2)                  1.4598         estimate D2E/DX2                !
 ! R2    R(1,6)                  1.0115         estimate D2E/DX2                !
 ! R3    R(1,7)                  1.0113         estimate D2E/DX2                !
 ! R4    R(2,3)                  1.5376         estimate D2E/DX2                !
 ! R5    R(2,8)                  1.092          estimate D2E/DX2                !
 ! R6    R(2,9)                  1.092          estimate D2E/DX2                !
 ! R7    R(3,4)                  1.422          estimate D2E/DX2                !
 ! R8    R(3,10)                 1.0922         estimate D2E/DX2                !
 ! R9    R(3,11)                 1.0919         estimate D2E/DX2                !
 ! R10   R(4,5)                  1.4202         estimate D2E/DX2                !
 ! R11   R(5,12)                 1.0913         estimate D2E/DX2                !
 ! R12   R(5,13)                 1.0912         estimate D2E/DX2                !
 ! R13   R(5,14)                 1.0901         estimate D2E/DX2                !
 ! A1    A(2,1,6)              110.4499         estimate D2E/DX2                !
 ! A2    A(2,1,7)              110.5064         estimate D2E/DX2                !
 ! A3    A(6,1,7)              106.2501         estimate D2E/DX2                !
 ! A4    A(1,2,3)              111.5384         estimate D2E/DX2                !
 ! A5    A(1,2,8)              110.2939         estimate D2E/DX2                !
 ! A6    A(1,2,9)              109.9483         estimate D2E/DX2                !
 ! A7    A(3,2,8)              109.5273         estimate D2E/DX2                !
 ! A8    A(3,2,9)              109.13           estimate D2E/DX2                !
 ! A9    A(8,2,9)              106.2566         estimate D2E/DX2                !
 ! A10   A(2,3,4)              108.5375         estimate D2E/DX2                !
 ! A11   A(2,3,10)             109.8029         estimate D2E/DX2                !
 ! A12   A(2,3,11)             110.1283         estimate D2E/DX2                !
 ! A13   A(4,3,10)             110.7365         estimate D2E/DX2                !
 ! A14   A(4,3,11)             110.1793         estimate D2E/DX2                !
 ! A15   A(10,3,11)            107.4556         estimate D2E/DX2                !
 ! A16   A(3,4,5)              113.5247         estimate D2E/DX2                !
 ! A17   A(4,5,12)             111.4985         estimate D2E/DX2                !
 ! A18   A(4,5,13)             111.4687         estimate D2E/DX2                !
 ! A19   A(4,5,14)             109.5006         estimate D2E/DX2                !
 ! A20   A(12,5,13)            108.7277         estimate D2E/DX2                !
 ! A21   A(12,5,14)            107.7614         estimate D2E/DX2                !
 ! A22   A(13,5,14)            107.742          estimate D2E/DX2                !
 ! D1    D(6,1,2,3)            177.7172         estimate D2E/DX2                !
 ! D2    D(6,1,2,8)            -60.3394         estimate D2E/DX2                !
 ! D3    D(6,1,2,9)             56.5155         estimate D2E/DX2                !
 ! D4    D(7,1,2,3)            -65.0039         estimate D2E/DX2                !
 ! D5    D(7,1,2,8)             56.9395         estimate D2E/DX2                !
 ! D6    D(7,1,2,9)            173.7944         estimate D2E/DX2                !
 ! D7    D(1,2,3,4)            177.4806         estimate D2E/DX2                !
 ! D8    D(1,2,3,10)           -61.3439         estimate D2E/DX2                !
 ! D9    D(1,2,3,11)            56.7899         estimate D2E/DX2                !
 ! D10   D(8,2,3,4)             55.0956         estimate D2E/DX2                !
 ! D11   D(8,2,3,10)           176.2712         estimate D2E/DX2                !
 ! D12   D(8,2,3,11)           -65.595          estimate D2E/DX2                !
 ! D13   D(9,2,3,4)            -60.8427         estimate D2E/DX2                !
 ! D14   D(9,2,3,10)            60.3329         estimate D2E/DX2                !
 ! D15   D(9,2,3,11)           178.4667         estimate D2E/DX2                !
 ! D16   D(2,3,4,5)            178.5657         estimate D2E/DX2                !
 ! D17   D(10,3,4,5)            57.9665         estimate D2E/DX2                !
 ! D18   D(11,3,4,5)           -60.7752         estimate D2E/DX2                !
 ! D19   D(3,4,5,12)            60.7523         estimate D2E/DX2                !
 ! D20   D(3,4,5,13)           -60.9638         estimate D2E/DX2                !
 ! D21   D(3,4,5,14)           179.9156         estimate D2E/DX2                !
 --------------------------------------------------------------------------------
 Trust Radius=3.00D-01 FncErr=1.00D-07 GrdErr=1.00D-06 EigMax=2.50D+02 EigMin=1.00D-04
 Number of steps in this run=     66 maximum allowed number of steps=    100.
 GradGradGradGradGradGradGradGradGradGradGradGradGradGradGradGradGradGrad

                          Input orientation:                          
 ---------------------------------------------------------------------
 Center     Atomic      Atomic             Coordinates (Angstroms)
 Number     Number       Type             X           Y           Z
 ---------------------------------------------------------------------
      1          7           0        0.336300   -1.411000   -2.496000
      2          6           0        0.235100   -0.226900   -1.648300
      3          6           0        0.073000   -0.605400   -0.166900
      4          8           0        0.039900    0.589100    0.603900
      5          6           0       -0.140300    0.361800    1.994200
      6          1           0        0.404700   -1.144100   -3.469200
      7          1           0        1.179700   -1.927300   -2.284200
      8          1           0        1.119200    0.402400   -1.769600
      9          1           0       -0.617600    0.381000   -1.957700
     10          1           0       -0.846000   -1.179500   -0.030100
     11          1           0        0.904400   -1.237000    0.152700
     12          1           0        0.672500   -0.235700    2.410400
     13          1           0       -1.086000   -0.143500    2.197000
     14          1           0       -0.154300    1.316500    2.520200
 ---------------------------------------------------------------------
                    Distance matrix (angstroms):
                    1          2          3          4          5
     1  N    0.000000
     2  C    1.459770   0.000000
     3  C    2.478513   1.537558   0.000000
     4  O    3.701031   2.403407   1.421991   0.000000
     5  C    4.850965   3.708814   2.377252   1.420236   0.000000
     6  H    1.011451   2.045898   3.362352   4.441532   5.693285
     7  H    1.011310   2.046460   2.730415   3.996565   5.028627
     8  H    2.104521   1.091955   2.163063   2.614048   3.969153
     9  H    2.100228   1.091956   2.157980   2.652811   3.980665
    10  H    2.744465   2.166748   1.092184   2.077191   2.640343
    11  H    2.714521   2.170683   1.091920   2.070165   2.653051
    12  H    5.056394   4.082210   2.671807   2.084207   1.091271
    13  H    5.064952   4.066767   2.672949   2.083824   1.091240
    14  H    5.730812   4.462074   3.311476   2.058890   1.090103
                    6          7          8          9         10
     6  H    0.000000
     7  H    1.618101   0.000000
     8  H    2.406411   2.386624   0.000000
     9  H    2.378163   2.943661   1.747087   0.000000
    10  H    3.659633   3.121479   3.064356   2.490576   0.000000
    11  H    3.657388   2.547702   2.535549   3.064016   1.760858
    12  H    5.955384   5.015778   4.251954   4.596191   3.025333
    13  H    5.943838   5.328836   4.571086   4.213791   2.467969
    14  H    6.499227   5.948450   4.567249   4.597977   3.634900
                   11         12         13         14
    11  H    0.000000
    12  H    2.480643   0.000000
    13  H    3.055585   1.773799   0.000000
    14  H    3.639542   1.762095   1.761852   0.000000
 Stoichiometry    C3H9NO
 Framework group  C1[X(C3H9NO)]
 Deg. of freedom    36
 Full point group                 C1      NOp   1
 Largest Abelian subgroup         C1      NOp   1
 Largest concise Abelian subgroup C1      NOp   1
                         Standard orientation:                         
 ---------------------------------------------------------------------
 Center     Atomic      Atomic             Coordinates (Angstroms)
 Number     Number       Type             X           Y           Z
 ---------------------------------------------------------------------
      1          7           0       -2.431008   -0.325854    0.078020
      2          6           0       -1.228341    0.497918    0.001062
      3          6           0        0.047267   -0.358040    0.066199
      4          8           0        1.173938    0.498358   -0.072560
      5          6           0        2.417323   -0.183560    0.005228
      6          1           0       -3.258615    0.255571    0.071431
      7          1           0       -2.501066   -0.927057   -0.732162
      8          1           0       -1.228502    1.083159   -0.920815
      9          1           0       -1.217641    1.219060    0.820944
     10          1           0        0.084409   -0.895031    1.016530
     11          1           0        0.040498   -1.103791   -0.731359
     12          1           0        2.514431   -0.929598   -0.785259
     13          1           0        2.542325   -0.677354    0.970291
     14          1           0        3.232221    0.531242   -0.110201
 ---------------------------------------------------------------------
 Rotational constants (GHZ):          21.9760851           2.0883768           1.9884633
 Standard basis: 6-31G(d,p) (6D, 7F)
 There are   120 symmetry adapted cartesian basis functions of A   symmetry.
 There are   120 symmetry adapted basis functions of A   symmetry.
   120 basis functions,   203 primitive gaussians,   120 cartesian basis functions
    21 alpha electrons       21 beta electrons
       nuclear repulsion energy       188.4094188835 Hartrees.
 NAtoms=   14 NActive=   14 NUniq=   14 SFac= 1.00D+00 NAtFMM=   60 NAOKFM=F Big=F
 Integral buffers will be    131072 words long.
 Raffenetti 2 integral format.
 Two-electron integral symmetry is turned on.
 Nuclear repulsion after empirical dispersion term =      188.3953480006 Hartrees.
 One-electron integrals computed using PRISM.
 NBasis=   120 RedAO= T EigKep=  3.93D-03  NBF=   120
 NBsUse=   120 1.00D-06 EigRej= -1.00D+00 NBFU=   120
 ExpMin= 1.61D-01 ExpMax= 5.48D+03 ExpMxC= 8.25D+02 IAcc=3 IRadAn=         5 AccDes= 0.00D+00
 Harris functional with IExCor=  402 and IRadAn=       5 diagonalized for initial guess.
 HarFok:  IExCor=  402 AccDes= 0.00D+00 IRadAn=         5 IDoV= 1 UseB2=F ITyADJ=14
 ICtDFT=  3500011 ScaDFX=  1.000000  1.000000  1.000000  1.000000
 FoFCou: FMM=F IPFlag=           0 FMFlag=      100000 FMFlg1=           0
         NFxFlg=           0 DoJE=T BraDBF=F KetDBF=T FulRan=T
         wScrn=  0.000000 ICntrl=       500 IOpCl=  0 I1Cent=   200000004 NGrid=           0
         NMat0=    1 NMatS0=      1 NMatT0=    0 NMatD0=    1 NMtDS0=    0 NMtDT0=    0
 Petite list used in FoFCou.
 Requested convergence on RMS density matrix=1.00D-08 within 128 cycles.
 Requested convergence on MAX density matrix=1.00D-06.
 Requested convergence on             energy=1.00D-06.
 No special actions if energy rises.
 Integral accuracy reduced to 1.0D-05 until final iterations.
 Initial convergence to 1.0D-05 achieved.  Increase integral accuracy.
 SCF Done:  E(RB3LYP) =  -249.710811466     A.U. after   12 cycles
            NFock= 12  Conv=0.80D-08     -V/T= 2.0092

 **********************************************************************

            Population analysis using the SCF Density.

 **********************************************************************

 Orbital symmetries:
       Occupied  (A) (A) (A) (A) (A) (A) (A) (A) (A) (A) (A) (A)
                 (A) (A) (A) (A) (A) (A) (A) (A) (A)
       Virtual   (A) (A) (A) (A) (A) (A) (A) (A) (A) (A) (A) (A)
                 (A) (A) (A) (A) (A) (A) (A) (A) (A) (A) (A) (A)
                 (A) (A) (A) (A) (A) (A) (A) (A) (A) (A) (A) (A)
                 (A) (A) (A) (A) (A) (A) (A) (A) (A) (A) (A) (A)
                 (A) (A) (A) (A) (A) (A) (A) (A) (A) (A) (A) (A)
                 (A) (A) (A) (A) (A) (A) (A) (A) (A) (A) (A) (A)
                 (A) (A) (A) (A) (A) (A) (A) (A) (A) (A) (A) (A)
                 (A) (A) (A) (A) (A) (A) (A) (A) (A) (A) (A) (A)
                 (A) (A) (A)
 The electronic state is 1-A.
 Alpha  occ. eigenvalues --  -19.14239 -14.30874 -10.22423 -10.22290 -10.20247
 Alpha  occ. eigenvalues --   -1.02139  -0.87790  -0.73471  -0.65914  -0.59912
 Alpha  occ. eigenvalues --   -0.49385  -0.48383  -0.46560  -0.43955  -0.42580
 Alpha  occ. eigenvalues --   -0.40554  -0.36406  -0.34928  -0.31015  -0.25015
 Alpha  occ. eigenvalues --   -0.22863
 Alpha virt. eigenvalues --    0.07911   0.09655   0.13625   0.14066   0.16070
 Alpha virt. eigenvalues --    0.16397   0.17105   0.18323   0.19339   0.21201
 Alpha virt. eigenvalues --    0.22961   0.26354   0.27373   0.50895   0.52344
 Alpha virt. eigenvalues --    0.55029   0.56602   0.57660   0.59170   0.64731
 Alpha virt. eigenvalues --    0.69052   0.71387   0.73349   0.78480   0.80404
 Alpha virt. eigenvalues --    0.81566   0.83207   0.85196   0.87574   0.88959
 Alpha virt. eigenvalues --    0.90718   0.93558   0.94515   0.94969   0.98463
 Alpha virt. eigenvalues --    1.03996   1.11063   1.16382   1.27297   1.33196
 Alpha virt. eigenvalues --    1.33504   1.38887   1.40763   1.45765   1.49256
 Alpha virt. eigenvalues --    1.64962   1.68506   1.74031   1.80898   1.82547
 Alpha virt. eigenvalues --    1.87512   1.89549   1.94688   1.98499   1.99408
 Alpha virt. eigenvalues --    2.00032   2.03430   2.05674   2.08284   2.08681
 Alpha virt. eigenvalues --    2.10636   2.14266   2.19427   2.23851   2.26904
 Alpha virt. eigenvalues --    2.31385   2.38429   2.41177   2.46854   2.51031
 Alpha virt. eigenvalues --    2.55216   2.60583   2.61605   2.64717   2.69293
 Alpha virt. eigenvalues --    2.72640   2.73878   2.77764   2.83310   2.85376
 Alpha virt. eigenvalues --    2.88372   2.93089   2.98066   2.99264   3.05021
 Alpha virt. eigenvalues --    3.19008   3.24667   3.30557   3.34059   3.38939
 Alpha virt. eigenvalues --    3.43425   3.45248   3.52075   3.57062   3.90430
 Alpha virt. eigenvalues --    4.06073   4.36263   4.45215   4.61523
          Condensed to atoms (all electrons):
               1          2          3          4          5          6
     1  N    6.773997   0.278767  -0.045892   0.001548  -0.000100   0.342164
     2  C    0.278767   4.839411   0.375267  -0.037825   0.004596  -0.031165
     3  C   -0.045892   0.375267   4.740938   0.236324  -0.033339   0.005282
     4  O    0.001548  -0.037825   0.236324   8.206132   0.262763  -0.000073
     5  C   -0.000100   0.004596  -0.033339   0.262763   4.700206   0.000003
     6  H    0.342164  -0.031165   0.005282  -0.000073   0.000003   0.486524
     7  H    0.340801  -0.038409  -0.005825  -0.000062  -0.000005  -0.035418
     8  H   -0.050496   0.381234  -0.049310   0.005712  -0.000026  -0.003181
     9  H   -0.036034   0.380472  -0.027458   0.003098  -0.000083  -0.004629
    10  H    0.007289  -0.036580   0.360812  -0.038333  -0.006436  -0.000208
    11  H   -0.000077  -0.043246   0.363562  -0.040927  -0.006144  -0.000121
    12  H    0.000009  -0.000013  -0.009260  -0.037953   0.370659   0.000000
    13  H    0.000004   0.000001  -0.007853  -0.038387   0.371420   0.000000
    14  H    0.000001  -0.000236   0.005105  -0.030531   0.394097  -0.000000
               7          8          9         10         11         12
     1  N    0.340801  -0.050496  -0.036034   0.007289  -0.000077   0.000009
     2  C   -0.038409   0.381234   0.380472  -0.036580  -0.043246  -0.000013
     3  C   -0.005825  -0.049310  -0.027458   0.360812   0.363562  -0.009260
     4  O   -0.000062   0.005712   0.003098  -0.038333  -0.040927  -0.037953
     5  C   -0.000005  -0.000026  -0.000083  -0.006436  -0.006144   0.370659
     6  H   -0.035418  -0.003181  -0.004629  -0.000208  -0.000121   0.000000
     7  H    0.498990  -0.006222   0.006644  -0.000809   0.005417   0.000002
     8  H   -0.006222   0.684801  -0.050513   0.007566  -0.008736  -0.000045
     9  H    0.006644  -0.050513   0.617664  -0.009824   0.006596   0.000039
    10  H   -0.000809   0.007566  -0.009824   0.674995  -0.062921  -0.002606
    11  H    0.005417  -0.008736   0.006596  -0.062921   0.704177   0.013180
    12  H    0.000002  -0.000045   0.000039  -0.002606   0.013180   0.665782
    13  H    0.000000   0.000041  -0.000049   0.012923  -0.002663  -0.052444
    14  H   -0.000000   0.000009   0.000002  -0.000111  -0.000143  -0.037584
              13         14
     1  N    0.000004   0.000001
     2  C    0.000001  -0.000236
     3  C   -0.007853   0.005105
     4  O   -0.038387  -0.030531
     5  C    0.371420   0.394097
     6  H    0.000000  -0.000000
     7  H    0.000000  -0.000000
     8  H    0.000041   0.000009
     9  H   -0.000049   0.000002
    10  H    0.012923  -0.000111
    11  H   -0.002663  -0.000143
    12  H   -0.052444  -0.037584
    13  H    0.661852  -0.037629
    14  H   -0.037629   0.593588
 Mulliken charges:
               1
     1  N   -0.611980
     2  C   -0.072273
     3  C    0.091648
     4  O   -0.491487
     5  C   -0.057608
     6  H    0.240821
     7  H    0.234895
     8  H    0.089166
     9  H    0.114074
    10  H    0.094243
    11  H    0.072047
    12  H    0.090236
    13  H    0.092783
    14  H    0.113434
 Sum of Mulliken charges =  -0.00000
 Mulliken charges with hydrogens summed into heavy atoms:
               1
     1  N   -0.136264
     2  C    0.130968
     3  C    0.257938
     4  O   -0.491487
     5  C    0.238845
 Electronic spatial extent (au):  <R**2>=            630.1767
 Charge=             -0.0000 electrons
 Dipole moment (field-independent basis, Debye):
    X=             -0.1123    Y=             -0.4839    Z=             -0.9624  Tot=              1.0830
 Quadrupole moment (field-independent basis, Debye-Ang):
   XX=            -26.4948   YY=            -32.9595   ZZ=            -32.4252
   XY=             -3.3778   XZ=              3.3679   YZ=              1.7788
 Traceless Quadrupole moment (field-independent basis, Debye-Ang):
   XX=              4.1317   YY=             -2.3330   ZZ=             -1.7987
   XY=             -3.3778   XZ=              3.3679   YZ=              1.7788
 Octapole moment (field-independent basis, Debye-Ang**2):
  XXX=             -2.3111  YYY=              1.3822  ZZZ=             -1.1096  XYY=             -1.2745
  XXY=              5.9382  XXZ=             -8.3970  XZZ=              0.1999  YZZ=              0.0764
  YYZ=             -1.2773  XYZ=             -4.0157
 Hexadecapole moment (field-independent basis, Debye-Ang**3):
 XXXX=           -572.0766 YYYY=            -89.0019 ZZZZ=            -54.4226 XXXY=             -9.9860
 XXXZ=             20.3962 YYYX=              3.0718 YYYZ=              2.6824 ZZZX=              3.7249
 ZZZY=              1.5076 XXYY=           -124.9507 XXZZ=           -122.9011 YYZZ=            -22.5020
 XXYZ=              9.9426 YYXZ=              2.8832 ZZXY=             -0.1435
 N-N= 1.883953480006D+02 E-N=-9.587713143126D+02  KE= 2.474347849772D+02
 Calling FoFJK, ICntrl=      2127 FMM=F ISym2X=0 I1Cent= 0 IOpClX= 0 NMat=1 NMatS=1 NMatT=0.
 ***** Axes restored to original set *****
 -------------------------------------------------------------------
 Center     Atomic                   Forces (Hartrees/Bohr)
 Number     Number              X              Y              Z
 -------------------------------------------------------------------
      1        7          -0.011819836   -0.007280481    0.003395527
      2        6           0.006474389    0.000571627    0.002453197
      3        6          -0.001658273    0.009678674   -0.004881214
      4        8           0.000043498    0.002403913    0.001523110
      5        6           0.000790742    0.000112227   -0.008501945
      6        1          -0.000557623    0.001928747   -0.002828243
      7        1           0.004566784   -0.001237549    0.001760926
      8        1           0.003895330    0.008363267    0.006631473
      9        1          -0.003180935   -0.001378532   -0.000273751
     10        1          -0.004591675   -0.003472017   -0.000247338
     11        1           0.005979219   -0.004800637    0.001711473
     12        1           0.004141031   -0.004674703    0.002134560
     13        1          -0.004825066   -0.004233560    0.000997860
     14        1           0.000742416    0.004019023   -0.003875636
 -------------------------------------------------------------------
 Cartesian Forces:  Max     0.011819836 RMS     0.004485144

 GradGradGradGradGradGradGradGradGradGradGradGradGradGradGradGradGradGrad
 Berny optimization.
 FormGI is forming the generalized inverse of G from B-inverse, IUseBI=4.
 Internal  Forces:  Max     0.010560218 RMS     0.004063005
 Search for a local minimum.
 Step number   1 out of a maximum of   66
 All quantities printed in internal units (Hartrees-Bohrs-Radians)
 Mixed Optimization -- RFO/linear search
 Second derivative matrix not updated -- first step.
 ITU=  0
     Eigenvalues ---    0.00269   0.00901   0.01401   0.01424   0.04212
     Eigenvalues ---    0.04334   0.05175   0.05459   0.05829   0.09272
     Eigenvalues ---    0.10003   0.10283   0.11182   0.12771   0.13680
     Eigenvalues ---    0.16000   0.16000   0.16000   0.16000   0.16000
     Eigenvalues ---    0.21903   0.21968   0.25000   0.28736   0.34561
     Eigenvalues ---    0.34588   0.34588   0.34592   0.34666   0.34670
     Eigenvalues ---    0.34801   0.36993   0.42162   0.42425   0.45731
     Eigenvalues ---    0.45754
 RFO step:  Lambda=-4.68985369D-03 EMin= 2.69127118D-03
 Linear search not attempted -- first point.
 Iteration  1 RMS(Cart)=  0.04573994 RMS(Int)=  0.00083431
 Iteration  2 RMS(Cart)=  0.00106272 RMS(Int)=  0.00038420
 Iteration  3 RMS(Cart)=  0.00000112 RMS(Int)=  0.00038420
 Iteration  4 RMS(Cart)=  0.00000000 RMS(Int)=  0.00038420
 Variable       Old X    -DE/DX   Delta X   Delta X   Delta X     New X
                                 (Linear)    (Quad)   (Total)
    R1        2.75857   0.00345   0.00000   0.00921   0.00921   2.76778
    R2        1.91136   0.00319   0.00000   0.00691   0.00691   1.91827
    R3        1.91110   0.00481   0.00000   0.01040   0.01040   1.92150
    R4        2.90556  -0.01056   0.00000  -0.03616  -0.03616   2.86941
    R5        2.06350   0.00724   0.00000   0.02064   0.02064   2.08414
    R6        2.06350   0.00179   0.00000   0.00512   0.00512   2.06861
    R7        2.68717  -0.00620   0.00000  -0.01454  -0.01454   2.67263
    R8        2.06393   0.00566   0.00000   0.01615   0.01615   2.08008
    R9        2.06343   0.00783   0.00000   0.02233   0.02233   2.08576
   R10        2.68386  -0.00839   0.00000  -0.01957  -0.01957   2.66429
   R11        2.06220   0.00646   0.00000   0.01838   0.01838   2.08058
   R12        2.06214   0.00633   0.00000   0.01801   0.01801   2.08015
   R13        2.06000   0.00164   0.00000   0.00465   0.00465   2.06465
    A1        1.92771  -0.00151   0.00000  -0.01141  -0.01149   1.91623
    A2        1.92870  -0.00215   0.00000  -0.01526  -0.01534   1.91336
    A3        1.85441   0.00137   0.00000   0.00386   0.00369   1.85811
    A4        1.94671  -0.00787   0.00000  -0.03859  -0.03920   1.90751
    A5        1.92499   0.00997   0.00000   0.09554   0.09572   2.02072
    A6        1.91896  -0.00020   0.00000  -0.02560  -0.02734   1.89162
    A7        1.91161  -0.00322   0.00000  -0.02130  -0.02073   1.89088
    A8        1.90468   0.00195   0.00000  -0.01954  -0.02111   1.88356
    A9        1.85453  -0.00030   0.00000   0.01085   0.01048   1.86500
   A10        1.89434  -0.00403   0.00000  -0.01873  -0.01874   1.87560
   A11        1.91642   0.00012   0.00000  -0.00307  -0.00304   1.91338
   A12        1.92210   0.00052   0.00000  -0.00046  -0.00044   1.92166
   A13        1.93272   0.00201   0.00000   0.01159   0.01152   1.94423
   A14        1.92299   0.00168   0.00000   0.00880   0.00874   1.93173
   A15        1.87545  -0.00022   0.00000   0.00219   0.00214   1.87759
   A16        1.98138  -0.00754   0.00000  -0.02962  -0.02962   1.95176
   A17        1.94602   0.00109   0.00000   0.00697   0.00692   1.95293
   A18        1.94550   0.00116   0.00000   0.00755   0.00751   1.95301
   A19        1.91115  -0.00777   0.00000  -0.04804  -0.04807   1.86307
   A20        1.89766  -0.00066   0.00000  -0.00251  -0.00256   1.89510
   A21        1.88079   0.00314   0.00000   0.01804   0.01800   1.89879
   A22        1.88045   0.00325   0.00000   0.01910   0.01907   1.89952
    D1        3.10175  -0.00018   0.00000  -0.04571  -0.04510   3.05665
    D2       -1.05312  -0.00272   0.00000  -0.03268  -0.03306  -1.08618
    D3        0.98638   0.00272   0.00000   0.02201   0.02164   1.00802
    D4       -1.13453  -0.00073   0.00000  -0.05730  -0.05660  -1.19113
    D5        0.99378  -0.00327   0.00000  -0.04426  -0.04455   0.94923
    D6        3.03328   0.00216   0.00000   0.01042   0.01015   3.04344
    D7        3.09762   0.00304   0.00000   0.05444   0.05413  -3.13143
    D8       -1.07065   0.00306   0.00000   0.05510   0.05481  -1.01584
    D9        0.99117   0.00318   0.00000   0.05564   0.05532   1.04649
   D10        0.96160  -0.00208   0.00000  -0.02599  -0.02597   0.93563
   D11        3.07651  -0.00206   0.00000  -0.02533  -0.02528   3.05123
   D12       -1.14485  -0.00194   0.00000  -0.02479  -0.02478  -1.16963
   D13       -1.06191  -0.00102   0.00000  -0.01611  -0.01583  -1.07774
   D14        1.05301  -0.00099   0.00000  -0.01545  -0.01515   1.03786
   D15        3.11483  -0.00087   0.00000  -0.01491  -0.01465   3.10018
   D16        3.11656  -0.00009   0.00000   0.00041   0.00040   3.11696
   D17        1.01171   0.00110   0.00000   0.00903   0.00913   1.02083
   D18       -1.06073  -0.00095   0.00000  -0.00653  -0.00661  -1.06734
   D19        1.06033   0.00043   0.00000   0.00535   0.00535   1.06567
   D20       -1.06402  -0.00031   0.00000  -0.00168  -0.00169  -1.06571
   D21        3.14012  -0.00003   0.00000   0.00097   0.00099   3.14111
         Item               Value     Threshold  Converged?
 Maximum Force            0.010560     0.000450     NO 
 RMS     Force            0.004063     0.000300     NO 
 Maximum Displacement     0.122174     0.001800     NO 
 RMS     Displacement     0.046154     0.001200     NO 
 Predicted change in Energy=-2.423819D-03
 GradGradGradGradGradGradGradGradGradGradGradGradGradGradGradGradGradGrad

                          Input orientation:                          
 ---------------------------------------------------------------------
 Center     Atomic      Atomic             Coordinates (Angstroms)
 Number     Number       Type             X           Y           Z
 ---------------------------------------------------------------------
      1          7           0        0.305530   -1.417099   -2.451542
      2          6           0        0.266164   -0.206017   -1.628790
      3          6           0        0.093378   -0.595103   -0.171269
      4          8           0        0.046784    0.599545    0.584295
      5          6           0       -0.145036    0.344159    1.957520
      6          1           0        0.340048   -1.164201   -3.434036
      7          1           0        1.158952   -1.934553   -2.257049
      8          1           0        1.143662    0.457210   -1.709232
      9          1           0       -0.606422    0.384638   -1.925453
     10          1           0       -0.830291   -1.181841   -0.052184
     11          1           0        0.935695   -1.229673    0.154403
     12          1           0        0.675235   -0.255006    2.382197
     13          1           0       -1.095619   -0.176676    2.149393
     14          1           0       -0.167479    1.315016    2.458148
 ---------------------------------------------------------------------
                    Distance matrix (angstroms):
                    1          2          3          4          5
     1  N    0.000000
     2  C    1.464646   0.000000
     3  C    2.433173   1.518424   0.000000
     4  O    3.653780   2.365334   1.414296   0.000000
     5  C    4.769158   3.651493   2.338973   1.409881   0.000000
     6  H    1.015107   2.045113   3.321199   4.398157   5.619549
     7  H    1.016816   2.044411   2.698157   3.966334   4.965431
     8  H    2.183237   1.102879   2.139109   2.546304   3.888263
     9  H    2.086787   1.094664   2.127621   2.602248   3.910498
    10  H    2.665024   2.154097   1.100731   2.085115   2.614796
    11  H    2.687598   2.162387   1.103738   2.078704   2.626054
    12  H    4.985196   4.032091   2.640911   2.087502   1.100997
    13  H    4.966938   4.016215   2.640884   2.087376   1.100769
    14  H    5.638550   4.382312   3.260435   2.017210   1.092564
                    6          7          8          9         10
     6  H    0.000000
     7  H    1.627680   0.000000
     8  H    2.499943   2.453745   0.000000
     9  H    2.360197   2.933453   1.764883   0.000000
    10  H    3.578677   3.063510   3.054306   2.452164   0.000000
    11  H    3.638127   2.522261   2.522292   3.051216   1.778671
    12  H    5.896402   4.957567   4.179291   4.539564   3.008628
    13  H    5.849019   5.252614   4.506127   4.142313   2.434686
    14  H    6.412639   5.878112   4.452188   4.502692   3.602136
                   11         12         13         14
    11  H    0.000000
    12  H    2.445585   0.000000
    13  H    3.035626   1.787807   0.000000
    14  H    3.605507   1.783509   1.783794   0.000000
 Stoichiometry    C3H9NO
 Framework group  C1[X(C3H9NO)]
 Deg. of freedom    36
 Full point group                 C1      NOp   1
 Largest Abelian subgroup         C1      NOp   1
 Largest concise Abelian subgroup C1      NOp   1
                         Standard orientation:                         
 ---------------------------------------------------------------------
 Center     Atomic      Atomic             Coordinates (Angstroms)
 Number     Number       Type             X           Y           Z
 ---------------------------------------------------------------------
      1          7           0       -2.390952   -0.339153    0.091962
      2          6           0       -1.205158    0.513511   -0.017794
      3          6           0        0.041577   -0.351486    0.037371
      4          8           0        1.159833    0.509137   -0.057834
      5          6           0        2.375604   -0.200887    0.016529
      6          1           0       -3.225576    0.236902    0.136763
      7          1           0       -2.479592   -0.910267   -0.744630
      8          1           0       -1.150041    1.144529   -0.920634
      9          1           0       -1.184806    1.189021    0.843345
     10          1           0        0.053707   -0.923103    0.977964
     11          1           0        0.036632   -1.077566   -0.793906
     12          1           0        2.477585   -0.927493   -0.804348
     13          1           0        2.481131   -0.735253    0.973089
     14          1           0        3.176830    0.537374   -0.065343
 ---------------------------------------------------------------------
 Rotational constants (GHZ):          21.3219418           2.1567421           2.0460492
 Standard basis: 6-31G(d,p) (6D, 7F)
 There are   120 symmetry adapted cartesian basis functions of A   symmetry.
 There are   120 symmetry adapted basis functions of A   symmetry.
   120 basis functions,   203 primitive gaussians,   120 cartesian basis functions
    21 alpha electrons       21 beta electrons
       nuclear repulsion energy       189.6847250578 Hartrees.
 NAtoms=   14 NActive=   14 NUniq=   14 SFac= 1.00D+00 NAtFMM=   60 NAOKFM=F Big=F
 Integral buffers will be    131072 words long.
 Raffenetti 2 integral format.
 Two-electron integral symmetry is turned on.
 Nuclear repulsion after empirical dispersion term =      189.6705056436 Hartrees.
 One-electron integrals computed using PRISM.
 NBasis=   120 RedAO= T EigKep=  3.73D-03  NBF=   120
 NBsUse=   120 1.00D-06 EigRej= -1.00D+00 NBFU=   120
 Initial guess from the checkpoint file:  "N1_conf-3.chk"
 B after Tr=    -0.000000    0.000000   -0.000000
         Rot=    0.999927   -0.012035    0.000595    0.001173 Ang=  -1.39 deg.
 ExpMin= 1.61D-01 ExpMax= 5.48D+03 ExpMxC= 8.25D+02 IAcc=3 IRadAn=         5 AccDes= 0.00D+00
 Harris functional with IExCor=  402 and IRadAn=       5 diagonalized for initial guess.
 HarFok:  IExCor=  402 AccDes= 0.00D+00 IRadAn=         5 IDoV= 1 UseB2=F ITyADJ=14
 ICtDFT=  3500011 ScaDFX=  1.000000  1.000000  1.000000  1.000000
 FoFCou: FMM=F IPFlag=           0 FMFlag=      100000 FMFlg1=           0
         NFxFlg=           0 DoJE=T BraDBF=F KetDBF=T FulRan=T
         wScrn=  0.000000 ICntrl=       500 IOpCl=  0 I1Cent=   200000004 NGrid=           0
         NMat0=    1 NMatS0=      1 NMatT0=    0 NMatD0=    1 NMtDS0=    0 NMtDT0=    0
 Petite list used in FoFCou.
 Requested convergence on RMS density matrix=1.00D-08 within 128 cycles.
 Requested convergence on MAX density matrix=1.00D-06.
 Requested convergence on             energy=1.00D-06.
 No special actions if energy rises.
 Integral accuracy reduced to 1.0D-05 until final iterations.
 Initial convergence to 1.0D-05 achieved.  Increase integral accuracy.
 SCF Done:  E(RB3LYP) =  -249.712746005     A.U. after   11 cycles
            NFock= 11  Conv=0.41D-08     -V/T= 2.0092
 Calling FoFJK, ICntrl=      2127 FMM=F ISym2X=0 I1Cent= 0 IOpClX= 0 NMat=1 NMatS=1 NMatT=0.
 ***** Axes restored to original set *****
 -------------------------------------------------------------------
 Center     Atomic                   Forces (Hartrees/Bohr)
 Number     Number              X              Y              Z
 -------------------------------------------------------------------
      1        7          -0.000132810    0.000961333    0.000618491
      2        6          -0.001831853   -0.001293705   -0.001064931
      3        6          -0.000350323    0.003168216   -0.001730142
      4        8          -0.000117189   -0.003354290    0.001825796
      5        6           0.000141889    0.004223261    0.000410738
      6        1           0.000346698   -0.000327856   -0.000962015
      7        1           0.001102789   -0.000232322   -0.000777958
      8        1           0.000525324   -0.000940413   -0.000644237
      9        1           0.000025925    0.000560864   -0.000523759
     10        1           0.000150334   -0.000357144    0.000391724
     11        1           0.000330393   -0.000706319    0.000998131
     12        1          -0.000129172   -0.000655889    0.000102167
     13        1           0.000116356   -0.000665182    0.000084507
     14        1          -0.000178363   -0.000380554    0.001271490
 -------------------------------------------------------------------
 Cartesian Forces:  Max     0.004223261 RMS     0.001225521

 GradGradGradGradGradGradGradGradGradGradGradGradGradGradGradGradGradGrad
 Berny optimization.
 Using GEDIIS/GDIIS optimizer.
 FormGI is forming the generalized inverse of G from B-inverse, IUseBI=4.
 Internal  Forces:  Max     0.004220889 RMS     0.001103722
 Search for a local minimum.
 Step number   2 out of a maximum of   66
 All quantities printed in internal units (Hartrees-Bohrs-Radians)
 Mixed Optimization -- RFO/linear search
 Update second derivatives using D2CorX and points    1    2
 DE= -1.93D-03 DEPred=-2.42D-03 R= 7.98D-01
 TightC=F SS=  1.41D+00  RLast= 2.05D-01 DXNew= 5.0454D-01 6.1538D-01
 Trust test= 7.98D-01 RLast= 2.05D-01 DXMaxT set to 5.05D-01
 ITU=  1  0
 Use linear search instead of GDIIS.
     Eigenvalues ---    0.00269   0.00896   0.01401   0.01424   0.04436
     Eigenvalues ---    0.04514   0.05298   0.05684   0.05886   0.08929
     Eigenvalues ---    0.10024   0.10529   0.11096   0.12618   0.13589
     Eigenvalues ---    0.15983   0.16000   0.16000   0.16000   0.16496
     Eigenvalues ---    0.21740   0.22843   0.26250   0.30442   0.33435
     Eigenvalues ---    0.34568   0.34588   0.34633   0.34667   0.34688
     Eigenvalues ---    0.34803   0.36940   0.42250   0.42898   0.45488
     Eigenvalues ---    0.45742
 RFO step:  Lambda=-1.80978456D-04 EMin= 2.69370306D-03
 Quartic linear search produced a step of -0.15043.
 Iteration  1 RMS(Cart)=  0.01460968 RMS(Int)=  0.00010250
 Iteration  2 RMS(Cart)=  0.00010930 RMS(Int)=  0.00005261
 Iteration  3 RMS(Cart)=  0.00000001 RMS(Int)=  0.00005261
 Variable       Old X    -DE/DX   Delta X   Delta X   Delta X     New X
                                 (Linear)    (Quad)   (Total)
    R1        2.76778   0.00033  -0.00139   0.00250   0.00112   2.76890
    R2        1.91827   0.00086  -0.00104   0.00290   0.00186   1.92013
    R3        1.92150   0.00089  -0.00157   0.00362   0.00205   1.92355
    R4        2.86941   0.00290   0.00544   0.00173   0.00716   2.87657
    R5        2.08414  -0.00010  -0.00311   0.00365   0.00054   2.08468
    R6        2.06861   0.00042  -0.00077   0.00200   0.00123   2.06985
    R7        2.67263   0.00128   0.00219  -0.00016   0.00202   2.67465
    R8        2.08008   0.00011  -0.00243   0.00331   0.00088   2.08096
    R9        2.08576   0.00095  -0.00336   0.00655   0.00319   2.08895
   R10        2.66429   0.00137   0.00294  -0.00094   0.00201   2.66629
   R11        2.08058   0.00030  -0.00276   0.00420   0.00143   2.08202
   R12        2.08015   0.00023  -0.00271   0.00396   0.00125   2.08140
   R13        2.06465   0.00025  -0.00070   0.00148   0.00078   2.06543
    A1        1.91623   0.00070   0.00173   0.00029   0.00203   1.91826
    A2        1.91336   0.00035   0.00231  -0.00231   0.00001   1.91337
    A3        1.85811  -0.00078  -0.00056  -0.00609  -0.00662   1.85149
    A4        1.90751   0.00183   0.00590  -0.00006   0.00592   1.91343
    A5        2.02072  -0.00164  -0.01440   0.00429  -0.01013   2.01058
    A6        1.89162  -0.00019   0.00411  -0.00203   0.00232   1.89394
    A7        1.89088  -0.00005   0.00312  -0.00477  -0.00173   1.88915
    A8        1.88356  -0.00018   0.00318   0.00056   0.00395   1.88752
    A9        1.86500   0.00027  -0.00158   0.00189   0.00038   1.86538
   A10        1.87560   0.00335   0.00282   0.01113   0.01393   1.88953
   A11        1.91338  -0.00051   0.00046  -0.00069  -0.00025   1.91313
   A12        1.92166  -0.00010   0.00007   0.00144   0.00150   1.92316
   A13        1.94423  -0.00106  -0.00173  -0.00033  -0.00209   1.94214
   A14        1.93173  -0.00152  -0.00131  -0.00507  -0.00641   1.92532
   A15        1.87759  -0.00018  -0.00032  -0.00645  -0.00678   1.87081
   A16        1.95176   0.00422   0.00446   0.00872   0.01318   1.96494
   A17        1.95293  -0.00036  -0.00104  -0.00153  -0.00258   1.95035
   A18        1.95301  -0.00040  -0.00113  -0.00159  -0.00274   1.95027
   A19        1.86307   0.00235   0.00723   0.00500   0.01223   1.87530
   A20        1.89510  -0.00084   0.00038  -0.00799  -0.00763   1.88747
   A21        1.89879  -0.00037  -0.00271   0.00314   0.00043   1.89921
   A22        1.89952  -0.00034  -0.00287   0.00356   0.00068   1.90020
    D1        3.05665   0.00013   0.00679  -0.01996  -0.01326   3.04339
    D2       -1.08618   0.00033   0.00497  -0.02322  -0.01819  -1.10437
    D3        1.00802  -0.00056  -0.00326  -0.01945  -0.02266   0.98537
    D4       -1.19113  -0.00020   0.00851  -0.02851  -0.02009  -1.21122
    D5        0.94923  -0.00000   0.00670  -0.03176  -0.02502   0.92421
    D6        3.04344  -0.00089  -0.00153  -0.02800  -0.02949   3.01395
    D7       -3.13143  -0.00066  -0.00814  -0.00992  -0.01802   3.13373
    D8       -1.01584  -0.00021  -0.00825  -0.00396  -0.01216  -1.02800
    D9        1.04649  -0.00080  -0.00832  -0.01140  -0.01970   1.02680
   D10        0.93563   0.00021   0.00391  -0.01200  -0.00809   0.92754
   D11        3.05123   0.00066   0.00380  -0.00604  -0.00223   3.04900
   D12       -1.16963   0.00007   0.00373  -0.01348  -0.00977  -1.17939
   D13       -1.07774   0.00002   0.00238  -0.01205  -0.00970  -1.08744
   D14        1.03786   0.00047   0.00228  -0.00609  -0.00384   1.03402
   D15        3.10018  -0.00012   0.00220  -0.01353  -0.01137   3.08881
   D16        3.11696   0.00001  -0.00006   0.00444   0.00440   3.12136
   D17        1.02083  -0.00087  -0.00137  -0.00158  -0.00296   1.01788
   D18       -1.06734   0.00107   0.00099   0.01013   0.01111  -1.05623
   D19        1.06567  -0.00080  -0.00080  -0.00460  -0.00540   1.06027
   D20       -1.06571   0.00085   0.00025   0.00805   0.00829  -1.05741
   D21        3.14111   0.00001  -0.00015   0.00149   0.00134  -3.14074
         Item               Value     Threshold  Converged?
 Maximum Force            0.004221     0.000450     NO 
 RMS     Force            0.001104     0.000300     NO 
 Maximum Displacement     0.044793     0.001800     NO 
 RMS     Displacement     0.014566     0.001200     NO 
 Predicted change in Energy=-1.539228D-04
 GradGradGradGradGradGradGradGradGradGradGradGradGradGradGradGradGradGrad

                          Input orientation:                          
 ---------------------------------------------------------------------
 Center     Atomic      Atomic             Coordinates (Angstroms)
 Number     Number       Type             X           Y           Z
 ---------------------------------------------------------------------
      1          7           0        0.315805   -1.422544   -2.457549
      2          6           0        0.261480   -0.210236   -1.636404
      3          6           0        0.084521   -0.591090   -0.173265
      4          8           0        0.046281    0.598221    0.593115
      5          6           0       -0.142373    0.350218    1.969219
      6          1           0        0.340369   -1.172713   -3.442141
      7          1           0        1.182655   -1.922751   -2.271844
      8          1           0        1.140465    0.451464   -1.717095
      9          1           0       -0.609373    0.378974   -1.943269
     10          1           0       -0.841758   -1.174231   -0.052502
     11          1           0        0.920757   -1.233982    0.157438
     12          1           0        0.674398   -0.257684    2.390181
     13          1           0       -1.093036   -0.171052    2.163284
     14          1           0       -0.159593    1.317806    2.477232
 ---------------------------------------------------------------------
                    Distance matrix (angstroms):
                    1          2          3          4          5
     1  N    0.000000
     2  C    1.465237   0.000000
     3  C    2.441876   1.522215   0.000000
     4  O    3.669153   2.381317   1.415366   0.000000
     5  C    4.790499   3.671202   2.351123   1.410942   0.000000
     6  H    1.016091   2.047748   3.330059   4.416558   5.642267
     7  H    1.017901   2.045740   2.717214   3.981788   4.990862
     8  H    2.177209   1.103165   2.141342   2.560439   3.904463
     9  H    2.089475   1.095317   2.134345   2.628915   3.940365
    10  H    2.680646   2.157583   1.101195   2.084951   2.626869
    11  H    2.690665   2.168080   1.105425   2.076414   2.631062
    12  H    4.998597   4.047979   2.651484   2.087235   1.101756
    13  H    4.990307   4.034090   2.650007   2.086925   1.101428
    14  H    5.664590   4.408426   3.275456   2.027334   1.092978
                    6          7          8          9         10
     6  H    0.000000
     7  H    1.625299   0.000000
     8  H    2.500777   2.438529   0.000000
     9  H    2.357193   2.935518   1.765882   0.000000
    10  H    3.589858   3.095805   3.056626   2.457936   0.000000
    11  H    3.646583   2.538582   2.530390   3.058741   1.775980
    12  H    5.913107   4.976469   4.194022   4.564229   3.017530
    13  H    5.871862   5.283709   4.520331   4.171359   2.445244
    14  H    6.441399   5.903944   4.475832   4.541424   3.615958
                   11         12         13         14
    11  H    0.000000
    12  H    2.449284   0.000000
    13  H    3.034568   1.784042   0.000000
    14  H    3.613894   1.784737   1.785099   0.000000
 Stoichiometry    C3H9NO
 Framework group  C1[X(C3H9NO)]
 Deg. of freedom    36
 Full point group                 C1      NOp   1
 Largest Abelian subgroup         C1      NOp   1
 Largest concise Abelian subgroup C1      NOp   1
                         Standard orientation:                         
 ---------------------------------------------------------------------
 Center     Atomic      Atomic             Coordinates (Angstroms)
 Number     Number       Type             X           Y           Z
 ---------------------------------------------------------------------
      1          7           0       -2.400131   -0.341856    0.085638
      2          6           0       -1.213986    0.512573   -0.014010
      3          6           0        0.041451   -0.346014    0.047998
      4          8           0        1.166855    0.505363   -0.061028
      5          6           0        2.387654   -0.198207    0.012435
      6          1           0       -3.236752    0.232373    0.138226
      7          1           0       -2.492854   -0.898314   -0.761640
      8          1           0       -1.160332    1.137685   -0.921385
      9          1           0       -1.203565    1.194522    0.843053
     10          1           0        0.057214   -0.910047    0.993645
     11          1           0        0.038780   -1.085634   -0.773538
     12          1           0        2.483324   -0.935712   -0.800462
     13          1           0        2.495640   -0.728918    0.971512
     14          1           0        3.193905    0.534026   -0.079191
 ---------------------------------------------------------------------
 Rotational constants (GHZ):          21.4308013           2.1361351           2.0287454
 Standard basis: 6-31G(d,p) (6D, 7F)
 There are   120 symmetry adapted cartesian basis functions of A   symmetry.
 There are   120 symmetry adapted basis functions of A   symmetry.
   120 basis functions,   203 primitive gaussians,   120 cartesian basis functions
    21 alpha electrons       21 beta electrons
       nuclear repulsion energy       189.2276872749 Hartrees.
 NAtoms=   14 NActive=   14 NUniq=   14 SFac= 1.00D+00 NAtFMM=   60 NAOKFM=F Big=F
 Integral buffers will be    131072 words long.
 Raffenetti 2 integral format.
 Two-electron integral symmetry is turned on.
 Nuclear repulsion after empirical dispersion term =      189.2135163407 Hartrees.
 One-electron integrals computed using PRISM.
 NBasis=   120 RedAO= T EigKep=  3.79D-03  NBF=   120
 NBsUse=   120 1.00D-06 EigRej= -1.00D+00 NBFU=   120
 Initial guess from the checkpoint file:  "N1_conf-3.chk"
 B after Tr=     0.000000   -0.000000   -0.000000
         Rot=    0.999998    0.001949   -0.000035   -0.000189 Ang=   0.22 deg.
 ExpMin= 1.61D-01 ExpMax= 5.48D+03 ExpMxC= 8.25D+02 IAcc=3 IRadAn=         5 AccDes= 0.00D+00
 Harris functional with IExCor=  402 and IRadAn=       5 diagonalized for initial guess.
 HarFok:  IExCor=  402 AccDes= 0.00D+00 IRadAn=         5 IDoV= 1 UseB2=F ITyADJ=14
 ICtDFT=  3500011 ScaDFX=  1.000000  1.000000  1.000000  1.000000
 FoFCou: FMM=F IPFlag=           0 FMFlag=      100000 FMFlg1=           0
         NFxFlg=           0 DoJE=T BraDBF=F KetDBF=T FulRan=T
         wScrn=  0.000000 ICntrl=       500 IOpCl=  0 I1Cent=   200000004 NGrid=           0
         NMat0=    1 NMatS0=      1 NMatT0=    0 NMatD0=    1 NMtDS0=    0 NMtDT0=    0
 Petite list used in FoFCou.
 Requested convergence on RMS density matrix=1.00D-08 within 128 cycles.
 Requested convergence on MAX density matrix=1.00D-06.
 Requested convergence on             energy=1.00D-06.
 No special actions if energy rises.
 Integral accuracy reduced to 1.0D-05 until final iterations.
 Initial convergence to 1.0D-05 achieved.  Increase integral accuracy.
 SCF Done:  E(RB3LYP) =  -249.712903910     A.U. after    9 cycles
            NFock=  9  Conv=0.71D-08     -V/T= 2.0093
 Calling FoFJK, ICntrl=      2127 FMM=F ISym2X=0 I1Cent= 0 IOpClX= 0 NMat=1 NMatS=1 NMatT=0.
 ***** Axes restored to original set *****
 -------------------------------------------------------------------
 Center     Atomic                   Forces (Hartrees/Bohr)
 Number     Number              X              Y              Z
 -------------------------------------------------------------------
      1        7           0.000204160   -0.000006710    0.000845474
      2        6          -0.000387113    0.000464322    0.000212361
      3        6          -0.000114866    0.000562699    0.000582372
      4        8          -0.000110440   -0.000483491   -0.000018407
      5        6           0.000093300    0.000258630   -0.000816501
      6        1          -0.000126338    0.000120248   -0.000027278
      7        1           0.000191078    0.000132145   -0.000317001
      8        1          -0.000008382   -0.000409524   -0.000216389
      9        1           0.000255063    0.000076555   -0.000237234
     10        1           0.000069072   -0.000106838    0.000071305
     11        1          -0.000079345   -0.000217295   -0.000108719
     12        1          -0.000093247   -0.000075912    0.000106928
     13        1           0.000093746   -0.000070705    0.000153621
     14        1           0.000013309   -0.000244124   -0.000230532
 -------------------------------------------------------------------
 Cartesian Forces:  Max     0.000845474 RMS     0.000293374

 GradGradGradGradGradGradGradGradGradGradGradGradGradGradGradGradGradGrad
 Berny optimization.
 Using GEDIIS/GDIIS optimizer.
 FormGI is forming the generalized inverse of G from B-inverse, IUseBI=4.
 Internal  Forces:  Max     0.000952558 RMS     0.000241421
 Search for a local minimum.
 Step number   3 out of a maximum of   66
 All quantities printed in internal units (Hartrees-Bohrs-Radians)
 Mixed Optimization -- En-DIIS/RFO-DIIS
 Update second derivatives using D2CorX and points    1    2    3
 DE= -1.58D-04 DEPred=-1.54D-04 R= 1.03D+00
 TightC=F SS=  1.41D+00  RLast= 7.36D-02 DXNew= 8.4853D-01 2.2073D-01
 Trust test= 1.03D+00 RLast= 7.36D-02 DXMaxT set to 5.05D-01
 ITU=  1  1  0
 Use linear search instead of GDIIS.
     Eigenvalues ---    0.00268   0.00757   0.01398   0.01424   0.04371
     Eigenvalues ---    0.04446   0.05198   0.05650   0.05804   0.08967
     Eigenvalues ---    0.10000   0.10454   0.11208   0.12645   0.13703
     Eigenvalues ---    0.15935   0.16000   0.16000   0.16008   0.16564
     Eigenvalues ---    0.21710   0.23277   0.27062   0.31330   0.33481
     Eigenvalues ---    0.34572   0.34589   0.34606   0.34656   0.34668
     Eigenvalues ---    0.34980   0.37206   0.42302   0.44839   0.45740
     Eigenvalues ---    0.47363
 RFO step:  Lambda=-3.33762111D-05 EMin= 2.67747501D-03
 Quartic linear search produced a step of  0.03693.
 Iteration  1 RMS(Cart)=  0.00688462 RMS(Int)=  0.00005745
 Iteration  2 RMS(Cart)=  0.00005950 RMS(Int)=  0.00000188
 Iteration  3 RMS(Cart)=  0.00000000 RMS(Int)=  0.00000188
 Variable       Old X    -DE/DX   Delta X   Delta X   Delta X     New X
                                 (Linear)    (Quad)   (Total)
    R1        2.76890  -0.00047   0.00004  -0.00116  -0.00112   2.76778
    R2        1.92013   0.00005   0.00007   0.00036   0.00043   1.92056
    R3        1.92355   0.00004   0.00008   0.00038   0.00045   1.92401
    R4        2.87657  -0.00014   0.00026  -0.00014   0.00012   2.87669
    R5        2.08468  -0.00024   0.00002  -0.00049  -0.00047   2.08421
    R6        2.06985  -0.00010   0.00005  -0.00013  -0.00008   2.06977
    R7        2.67465  -0.00095   0.00007  -0.00230  -0.00223   2.67243
    R8        2.08096   0.00001   0.00003   0.00024   0.00027   2.08123
    R9        2.08895   0.00003   0.00012   0.00060   0.00071   2.08967
   R10        2.66629  -0.00076   0.00007  -0.00185  -0.00178   2.66452
   R11        2.08202   0.00001   0.00005   0.00033   0.00039   2.08241
   R12        2.08140  -0.00002   0.00005   0.00021   0.00026   2.08165
   R13        2.06543  -0.00032   0.00003  -0.00086  -0.00083   2.06460
    A1        1.91826  -0.00024   0.00007  -0.00208  -0.00200   1.91625
    A2        1.91337   0.00011   0.00000  -0.00005  -0.00005   1.91333
    A3        1.85149  -0.00005  -0.00024  -0.00216  -0.00240   1.84909
    A4        1.91343  -0.00035   0.00022  -0.00159  -0.00137   1.91206
    A5        2.01058  -0.00024  -0.00037  -0.00426  -0.00464   2.00594
    A6        1.89394   0.00012   0.00009   0.00098   0.00107   1.89501
    A7        1.88915   0.00037  -0.00006   0.00192   0.00185   1.89100
    A8        1.88752   0.00022   0.00015   0.00312   0.00327   1.89078
    A9        1.86538  -0.00008   0.00001   0.00033   0.00034   1.86572
   A10        1.88953  -0.00037   0.00051  -0.00035   0.00016   1.88969
   A11        1.91313   0.00019  -0.00001   0.00092   0.00091   1.91404
   A12        1.92316  -0.00003   0.00006  -0.00050  -0.00044   1.92272
   A13        1.94214   0.00009  -0.00008   0.00049   0.00041   1.94256
   A14        1.92532   0.00026  -0.00024   0.00152   0.00128   1.92660
   A15        1.87081  -0.00014  -0.00025  -0.00208  -0.00233   1.86848
   A16        1.96494  -0.00034   0.00049  -0.00042   0.00007   1.96501
   A17        1.95035   0.00016  -0.00010   0.00088   0.00078   1.95113
   A18        1.95027   0.00023  -0.00010   0.00132   0.00121   1.95149
   A19        1.87530  -0.00019   0.00045  -0.00046  -0.00001   1.87529
   A20        1.88747  -0.00022  -0.00028  -0.00218  -0.00246   1.88501
   A21        1.89921   0.00001   0.00002   0.00023   0.00024   1.89946
   A22        1.90020  -0.00000   0.00003   0.00023   0.00025   1.90045
    D1        3.04339  -0.00006  -0.00049  -0.01641  -0.01690   3.02649
    D2       -1.10437  -0.00001  -0.00067  -0.01819  -0.01886  -1.12323
    D3        0.98537  -0.00019  -0.00084  -0.01984  -0.02067   0.96469
    D4       -1.21122  -0.00019  -0.00074  -0.02024  -0.02098  -1.23220
    D5        0.92421  -0.00015  -0.00092  -0.02202  -0.02294   0.90127
    D6        3.01395  -0.00032  -0.00109  -0.02367  -0.02475   2.98919
    D7        3.13373  -0.00010  -0.00067  -0.00654  -0.00721   3.12653
    D8       -1.02800  -0.00010  -0.00045  -0.00560  -0.00605  -1.03405
    D9        1.02680  -0.00017  -0.00073  -0.00788  -0.00861   1.01818
   D10        0.92754   0.00018  -0.00030  -0.00143  -0.00173   0.92582
   D11        3.04900   0.00018  -0.00008  -0.00049  -0.00057   3.04843
   D12       -1.17939   0.00011  -0.00036  -0.00277  -0.00313  -1.18253
   D13       -1.08744  -0.00003  -0.00036  -0.00444  -0.00480  -1.09224
   D14        1.03402  -0.00003  -0.00014  -0.00350  -0.00364   1.03038
   D15        3.08881  -0.00011  -0.00042  -0.00578  -0.00620   3.08261
   D16        3.12136   0.00009   0.00016   0.00306   0.00322   3.12458
   D17        1.01788   0.00003  -0.00011   0.00184   0.00173   1.01961
   D18       -1.05623  -0.00003   0.00041   0.00314   0.00355  -1.05268
   D19        1.06027   0.00001  -0.00020  -0.00010  -0.00030   1.05998
   D20       -1.05741   0.00001   0.00031   0.00116   0.00147  -1.05595
   D21       -3.14074  -0.00000   0.00005   0.00040   0.00045  -3.14029
         Item               Value     Threshold  Converged?
 Maximum Force            0.000953     0.000450     NO 
 RMS     Force            0.000241     0.000300     YES
 Maximum Displacement     0.028131     0.001800     NO 
 RMS     Displacement     0.006876     0.001200     NO 
 Predicted change in Energy=-1.682841D-05
 GradGradGradGradGradGradGradGradGradGradGradGradGradGradGradGradGradGrad

                          Input orientation:                          
 ---------------------------------------------------------------------
 Center     Atomic      Atomic             Coordinates (Angstroms)
 Number     Number       Type             X           Y           Z
 ---------------------------------------------------------------------
      1          7           0        0.320779   -1.424553   -2.453234
      2          6           0        0.260748   -0.210917   -1.635510
      3          6           0        0.080346   -0.590764   -0.172463
      4          8           0        0.046006    0.597733    0.593191
      5          6           0       -0.141151    0.350590    1.968691
      6          1           0        0.331466   -1.175499   -3.438503
      7          1           0        1.197541   -1.911703   -2.278357
      8          1           0        1.141002    0.448587   -1.716954
      9          1           0       -0.608224    0.377897   -1.948256
     10          1           0       -0.847807   -1.171248   -0.051964
     11          1           0        0.913237   -1.238391    0.158705
     12          1           0        0.674405   -0.259490    2.389390
     13          1           0       -1.091915   -0.169794    2.165394
     14          1           0       -0.155834    1.317951    2.476272
 ---------------------------------------------------------------------
                    Distance matrix (angstroms):
                    1          2          3          4          5
     1  N    0.000000
     2  C    1.464647   0.000000
     3  C    2.440272   1.522279   0.000000
     4  O    3.666858   2.380575   1.414189   0.000000
     5  C    4.787268   3.669751   2.349414   1.410002   0.000000
     6  H    1.016316   2.046021   3.327461   4.413660   5.638268
     7  H    1.018140   2.045363   2.725399   3.983603   4.994746
     8  H    2.173368   1.102917   2.142590   2.560865   3.903523
     9  H    2.089708   1.095274   2.136790   2.633495   3.944790
    10  H    2.682509   2.158413   1.101340   2.084327   2.626480
    11  H    2.684751   2.168098   1.105803   2.076588   2.629191
    12  H    4.993339   4.046393   2.650612   2.087115   1.101961
    13  H    4.990176   4.034633   2.648960   2.087051   1.101564
    14  H    5.661141   4.406555   3.273342   2.026190   1.092539
                    6          7          8          9         10
     6  H    0.000000
     7  H    1.624199   0.000000
     8  H    2.501347   2.426797   0.000000
     9  H    2.348807   2.934626   1.765868   0.000000
    10  H    3.585993   3.112644   3.058008   2.460319   0.000000
    11  H    3.644492   2.544298   2.532956   3.060476   1.774870
    12  H    5.909401   4.979091   4.192988   4.567994   3.018053
    13  H    5.868656   5.293655   4.521166   4.178042   2.445235
    14  H    6.437338   5.904980   4.474452   4.545855   3.614818
                   11         12         13         14
    11  H    0.000000
    12  H    2.447702   0.000000
    13  H    3.031392   1.782725   0.000000
    14  H    3.612328   1.784703   1.785014   0.000000
 Stoichiometry    C3H9NO
 Framework group  C1[X(C3H9NO)]
 Deg. of freedom    36
 Full point group                 C1      NOp   1
 Largest Abelian subgroup         C1      NOp   1
 Largest concise Abelian subgroup C1      NOp   1
                         Standard orientation:                         
 ---------------------------------------------------------------------
 Center     Atomic      Atomic             Coordinates (Angstroms)
 Number     Number       Type             X           Y           Z
 ---------------------------------------------------------------------
      1          7           0       -2.397962   -0.343942    0.082383
      2          6           0       -1.213723    0.512613   -0.012910
      3          6           0        0.042129   -0.345216    0.052661
      4          8           0        1.166342    0.505085   -0.061633
      5          6           0        2.386533   -0.197802    0.010400
      6          1           0       -3.233742    0.230485    0.148738
      7          1           0       -2.498070   -0.885535   -0.773925
      8          1           0       -1.161978    1.134928   -0.922016
      9          1           0       -1.208451    1.197065    0.842147
     10          1           0        0.059115   -0.905632    1.000603
     11          1           0        0.037965   -1.090201   -0.764518
     12          1           0        2.480673   -0.938102   -0.800410
     13          1           0        2.497668   -0.727624    0.969765
     14          1           0        3.192192    0.533957   -0.084904
 ---------------------------------------------------------------------
 Rotational constants (GHZ):          21.4264854           2.1380242           2.0306985
 Standard basis: 6-31G(d,p) (6D, 7F)
 There are   120 symmetry adapted cartesian basis functions of A   symmetry.
 There are   120 symmetry adapted basis functions of A   symmetry.
   120 basis functions,   203 primitive gaussians,   120 cartesian basis functions
    21 alpha electrons       21 beta electrons
       nuclear repulsion energy       189.2870427740 Hartrees.
 NAtoms=   14 NActive=   14 NUniq=   14 SFac= 1.00D+00 NAtFMM=   60 NAOKFM=F Big=F
 Integral buffers will be    131072 words long.
 Raffenetti 2 integral format.
 Two-electron integral symmetry is turned on.
 Nuclear repulsion after empirical dispersion term =      189.2728709486 Hartrees.
 One-electron integrals computed using PRISM.
 NBasis=   120 RedAO= T EigKep=  3.78D-03  NBF=   120
 NBsUse=   120 1.00D-06 EigRej= -1.00D+00 NBFU=   120
 Initial guess from the checkpoint file:  "N1_conf-3.chk"
 B after Tr=     0.000000   -0.000000    0.000000
         Rot=    1.000000    0.000269   -0.000072   -0.000065 Ang=   0.03 deg.
 ExpMin= 1.61D-01 ExpMax= 5.48D+03 ExpMxC= 8.25D+02 IAcc=3 IRadAn=         5 AccDes= 0.00D+00
 Harris functional with IExCor=  402 and IRadAn=       5 diagonalized for initial guess.
 HarFok:  IExCor=  402 AccDes= 0.00D+00 IRadAn=         5 IDoV= 1 UseB2=F ITyADJ=14
 ICtDFT=  3500011 ScaDFX=  1.000000  1.000000  1.000000  1.000000
 FoFCou: FMM=F IPFlag=           0 FMFlag=      100000 FMFlg1=           0
         NFxFlg=           0 DoJE=T BraDBF=F KetDBF=T FulRan=T
         wScrn=  0.000000 ICntrl=       500 IOpCl=  0 I1Cent=   200000004 NGrid=           0
         NMat0=    1 NMatS0=      1 NMatT0=    0 NMatD0=    1 NMtDS0=    0 NMtDT0=    0
 Petite list used in FoFCou.
 Requested convergence on RMS density matrix=1.00D-08 within 128 cycles.
 Requested convergence on MAX density matrix=1.00D-06.
 Requested convergence on             energy=1.00D-06.
 No special actions if energy rises.
 Integral accuracy reduced to 1.0D-05 until final iterations.
 Initial convergence to 1.0D-05 achieved.  Increase integral accuracy.
 SCF Done:  E(RB3LYP) =  -249.712926744     A.U. after    9 cycles
            NFock=  9  Conv=0.22D-08     -V/T= 2.0093
 Calling FoFJK, ICntrl=      2127 FMM=F ISym2X=0 I1Cent= 0 IOpClX= 0 NMat=1 NMatS=1 NMatT=0.
 ***** Axes restored to original set *****
 -------------------------------------------------------------------
 Center     Atomic                   Forces (Hartrees/Bohr)
 Number     Number              X              Y              Z
 -------------------------------------------------------------------
      1        7           0.000250219   -0.000404802   -0.000049331
      2        6           0.000098038    0.000305263    0.000259976
      3        6          -0.000009345    0.000087051    0.000259487
      4        8          -0.000067752   -0.000037783    0.000010921
      5        6           0.000050114   -0.000144569   -0.000228680
      6        1          -0.000218895   -0.000027007    0.000039073
      7        1          -0.000072878    0.000134362   -0.000118127
      8        1          -0.000106773   -0.000029816    0.000133536
      9        1           0.000162860   -0.000023018   -0.000048961
     10        1           0.000028356    0.000009386   -0.000058910
     11        1          -0.000105615    0.000037406   -0.000190845
     12        1          -0.000019197    0.000059606    0.000004386
     13        1           0.000015678    0.000058469    0.000016949
     14        1          -0.000004809   -0.000024548   -0.000029476
 -------------------------------------------------------------------
 Cartesian Forces:  Max     0.000404802 RMS     0.000135041

 GradGradGradGradGradGradGradGradGradGradGradGradGradGradGradGradGradGrad
 Berny optimization.
 Using GEDIIS/GDIIS optimizer.
 FormGI is forming the generalized inverse of G from B-inverse, IUseBI=4.
 Internal  Forces:  Max     0.000316820 RMS     0.000095138
 Search for a local minimum.
 Step number   4 out of a maximum of   66
 All quantities printed in internal units (Hartrees-Bohrs-Radians)
 Mixed Optimization -- En-DIIS/RFO-DIIS
 Swapping is turned off.
 Update second derivatives using D2CorX and points    1    2    3    4
 DE= -2.28D-05 DEPred=-1.68D-05 R= 1.36D+00
 TightC=F SS=  1.41D+00  RLast= 5.48D-02 DXNew= 8.4853D-01 1.6441D-01
 Trust test= 1.36D+00 RLast= 5.48D-02 DXMaxT set to 5.05D-01
 ITU=  1  1  1  0
     Eigenvalues ---    0.00260   0.00376   0.01398   0.01424   0.04469
     Eigenvalues ---    0.04876   0.05194   0.05665   0.05786   0.09296
     Eigenvalues ---    0.10152   0.10448   0.11512   0.13230   0.13685
     Eigenvalues ---    0.15952   0.16000   0.16000   0.16176   0.16531
     Eigenvalues ---    0.21774   0.23283   0.27149   0.31584   0.34135
     Eigenvalues ---    0.34539   0.34574   0.34622   0.34668   0.34822
     Eigenvalues ---    0.35003   0.38768   0.42357   0.45281   0.45908
     Eigenvalues ---    0.46466
 En-DIIS/RFO-DIIS/Sim-DIIS IScMMF=       -3 using points:     4    3
 RFO step:  Lambda=-1.88859249D-05.
 DidBck=F Rises=F RFO-DIIS coefs:    2.23646   -1.23646
 Iteration  1 RMS(Cart)=  0.00832754 RMS(Int)=  0.00010129
 Iteration  2 RMS(Cart)=  0.00010254 RMS(Int)=  0.00000239
 Iteration  3 RMS(Cart)=  0.00000001 RMS(Int)=  0.00000239
 Variable       Old X    -DE/DX   Delta X   Delta X   Delta X     New X
                                 (Linear)    (Quad)   (Total)
    R1        2.76778   0.00032  -0.00138   0.00246   0.00108   2.76887
    R2        1.92056  -0.00005   0.00053  -0.00028   0.00025   1.92081
    R3        1.92401  -0.00015   0.00056  -0.00060  -0.00004   1.92397
    R4        2.87669  -0.00021   0.00015  -0.00060  -0.00045   2.87624
    R5        2.08421  -0.00011  -0.00058   0.00007  -0.00051   2.08370
    R6        2.06977  -0.00013  -0.00010  -0.00034  -0.00044   2.06933
    R7        2.67243  -0.00020  -0.00275   0.00134  -0.00142   2.67101
    R8        2.08123  -0.00004   0.00034  -0.00021   0.00013   2.08136
    R9        2.08967  -0.00016   0.00088  -0.00084   0.00004   2.08971
   R10        2.66452  -0.00023  -0.00220   0.00081  -0.00139   2.66313
   R11        2.08241  -0.00005   0.00048  -0.00027   0.00020   2.08261
   R12        2.08165  -0.00004   0.00032  -0.00015   0.00017   2.08182
   R13        2.06460  -0.00004  -0.00103   0.00067  -0.00036   2.06424
    A1        1.91625   0.00002  -0.00248   0.00243  -0.00005   1.91620
    A2        1.91333   0.00001  -0.00006   0.00038   0.00032   1.91365
    A3        1.84909   0.00002  -0.00297   0.00217  -0.00081   1.84828
    A4        1.91206  -0.00006  -0.00169   0.00131  -0.00038   1.91168
    A5        2.00594   0.00011  -0.00573   0.00526  -0.00048   2.00547
    A6        1.89501  -0.00002   0.00132  -0.00164  -0.00032   1.89469
    A7        1.89100  -0.00001   0.00228  -0.00171   0.00056   1.89156
    A8        1.89078   0.00002   0.00404  -0.00284   0.00119   1.89197
    A9        1.86572  -0.00003   0.00042  -0.00087  -0.00047   1.86525
   A10        1.88969  -0.00010   0.00020   0.00068   0.00088   1.89057
   A11        1.91404  -0.00000   0.00112  -0.00131  -0.00019   1.91385
   A12        1.92272  -0.00012  -0.00055  -0.00113  -0.00167   1.92105
   A13        1.94256   0.00005   0.00051   0.00011   0.00062   1.94318
   A14        1.92660   0.00015   0.00158   0.00016   0.00175   1.92835
   A15        1.86848   0.00002  -0.00289   0.00144  -0.00145   1.86703
   A16        1.96501  -0.00012   0.00008   0.00052   0.00061   1.96561
   A17        1.95113   0.00004   0.00097  -0.00049   0.00047   1.95161
   A18        1.95149   0.00004   0.00150  -0.00085   0.00065   1.95214
   A19        1.87529  -0.00005  -0.00002   0.00044   0.00043   1.87571
   A20        1.88501   0.00003  -0.00305   0.00178  -0.00126   1.88375
   A21        1.89946  -0.00002   0.00030  -0.00040  -0.00010   1.89936
   A22        1.90045  -0.00003   0.00031  -0.00052  -0.00021   1.90024
    D1        3.02649  -0.00014  -0.02089  -0.00643  -0.02733   2.99915
    D2       -1.12323  -0.00013  -0.02332  -0.00391  -0.02723  -1.15045
    D3        0.96469  -0.00012  -0.02556  -0.00280  -0.02836   0.93633
    D4       -1.23220  -0.00009  -0.02594  -0.00220  -0.02815  -1.26035
    D5        0.90127  -0.00008  -0.02836   0.00032  -0.02804   0.87323
    D6        2.98919  -0.00007  -0.03061   0.00143  -0.02918   2.96001
    D7        3.12653   0.00006  -0.00891   0.00581  -0.00310   3.12342
    D8       -1.03405   0.00006  -0.00748   0.00557  -0.00191  -1.03596
    D9        1.01818   0.00001  -0.01065   0.00587  -0.00478   1.01340
   D10        0.92582  -0.00002  -0.00214  -0.00050  -0.00264   0.92318
   D11        3.04843  -0.00002  -0.00070  -0.00074  -0.00144   3.04699
   D12       -1.18253  -0.00007  -0.00387  -0.00045  -0.00431  -1.18684
   D13       -1.09224   0.00001  -0.00594   0.00293  -0.00301  -1.09525
   D14        1.03038   0.00001  -0.00450   0.00268  -0.00182   1.02856
   D15        3.08261  -0.00004  -0.00767   0.00298  -0.00469   3.07792
   D16        3.12458   0.00004   0.00398  -0.00069   0.00329   3.12786
   D17        1.01961   0.00008   0.00214   0.00042   0.00257   1.02218
   D18       -1.05268  -0.00008   0.00439  -0.00155   0.00284  -1.04983
   D19        1.05998   0.00004  -0.00037   0.00040   0.00003   1.06001
   D20       -1.05595  -0.00004   0.00181  -0.00095   0.00086  -1.05509
   D21       -3.14029   0.00000   0.00056  -0.00009   0.00046  -3.13983
         Item               Value     Threshold  Converged?
 Maximum Force            0.000317     0.000450     YES
 RMS     Force            0.000095     0.000300     YES
 Maximum Displacement     0.033895     0.001800     NO 
 RMS     Displacement     0.008321     0.001200     NO 
 Predicted change in Energy=-9.488493D-06
 GradGradGradGradGradGradGradGradGradGradGradGradGradGradGradGradGradGrad

                          Input orientation:                          
 ---------------------------------------------------------------------
 Center     Atomic      Atomic             Coordinates (Angstroms)
 Number     Number       Type             X           Y           Z
 ---------------------------------------------------------------------
      1          7           0        0.325666   -1.427559   -2.449932
      2          6           0        0.263396   -0.212221   -1.633878
      3          6           0        0.078135   -0.590346   -0.171242
      4          8           0        0.045682    0.597513    0.594100
      5          6           0       -0.141378    0.351507    1.969064
      6          1           0        0.313529   -1.181015   -3.435952
      7          1           0        1.213032   -1.900966   -2.291718
      8          1           0        1.144108    0.446403   -1.713834
      9          1           0       -0.603626    0.376588   -1.951202
     10          1           0       -0.851693   -1.168748   -0.053024
     11          1           0        0.907912   -1.241805    0.160300
     12          1           0        0.673244   -0.259585    2.390387
     13          1           0       -1.092390   -0.168166    2.166934
     14          1           0       -0.155016    1.318800    2.476396
 ---------------------------------------------------------------------
                    Distance matrix (angstroms):
                    1          2          3          4          5
     1  N    0.000000
     2  C    1.465220   0.000000
     3  C    2.440210   1.522039   0.000000
     4  O    3.666803   2.380537   1.413440   0.000000
     5  C    4.786516   3.669172   2.348656   1.409268   0.000000
     6  H    1.016448   2.046594   3.326053   4.413187   5.636467
     7  H    1.018119   2.046076   2.739002   3.991623   5.006229
     8  H    2.173344   1.102648   2.142600   2.560456   3.901950
     9  H    2.089800   1.095042   2.137292   2.636091   3.947504
    10  H    2.682969   2.158116   1.101410   2.084161   2.627653
    11  H    2.680826   2.166684   1.105824   2.077189   2.628931
    12  H    4.991359   4.045358   2.650566   2.086887   1.102069
    13  H    4.991233   4.035624   2.648666   2.086930   1.101652
    14  H    5.660588   4.406069   3.272490   2.025728   1.092349
                    6          7          8          9         10
     6  H    0.000000
     7  H    1.623794   0.000000
     8  H    2.510785   2.418439   0.000000
     9  H    2.339184   2.933164   1.765160   0.000000
    10  H    3.578001   3.132249   3.057813   2.460220   0.000000
    11  H    3.645547   2.557339   2.533419   3.059801   1.773993
    12  H    5.909708   4.990752   4.191033   4.569957   3.020309
    13  H    5.864708   5.310098   4.521059   4.182666   2.446898
    14  H    6.436184   5.913828   4.472899   4.548917   3.615414
                   11         12         13         14
    11  H    0.000000
    12  H    2.448083   0.000000
    13  H    3.029932   1.782065   0.000000
    14  H    3.612591   1.784576   1.784798   0.000000
 Stoichiometry    C3H9NO
 Framework group  C1[X(C3H9NO)]
 Deg. of freedom    36
[...]
 ---------------------------------------------------------------------
 Center     Atomic      Atomic             Coordinates (Angstroms)
 Number     Number       Type             X           Y           Z
 ---------------------------------------------------------------------
      1          7           0       -2.397379   -0.345950    0.078606
      2          6           0       -1.212988    0.511880   -0.014179
      3          6           0        0.042932   -0.345317    0.054876
      4          8           0        1.166733    0.504779   -0.060950
      5          6           0        2.386613   -0.197942    0.009504
      6          1           0       -3.229946    0.226634    0.185921
      7          1           0       -2.519219   -0.858489   -0.792191
      8          1           0       -1.159383    1.134000   -0.922906
      9          1           0       -1.211020    1.196811    0.840156
     10          1           0        0.058539   -0.902941    1.004406
     11          1           0        0.037674   -1.092573   -0.759754
     12          1           0        2.480210   -0.937913   -0.801581
     13          1           0        2.499457   -0.727686    0.968679
     14          1           0        3.192142    0.533857   -0.086582
 ---------------------------------------------------------------------
 Rotational constants (GHZ):          21.4365307           2.1372738           2.0306757
 Standard basis: def2TZVP (5D, 7F)
 There are   234 symmetry adapted cartesian basis functions of A   symmetry.
 There are   209 symmetry adapted basis functions of A   symmetry.
   209 basis functions,   327 primitive gaussians,   234 cartesian basis functions
    21 alpha electrons       21 beta electrons
       nuclear repulsion energy       189.2843411365 Hartrees.
 NAtoms=   14 NActive=   14 NUniq=   14 SFac= 1.00D+00 NAtFMM=   60 NAOKFM=F Big=F
 Integral buffers will be    131072 words long.
 Raffenetti 2 integral format.
 Two-electron integral symmetry is turned on.
 One-electron integrals computed using PRISM.
   1 Symmetry operations used in ECPInt.
 ECPInt:  NShTT=    4186 NPrTT=   12072 LenC2=    4104 LenP2D=    9845.
 LDataN:  DoStor=T MaxTD1= 6 Len=  172
 NBasis=   209 RedAO= T EigKep=  3.45D-04  NBF=   209
 NBsUse=   209 1.00D-06 EigRej= -1.00D+00 NBFU=   209
 Initial guess from the checkpoint file:  "N1_conf-3.chk"
 B after Tr=    -0.000000    0.000000    0.000000
         Rot=    1.000000    0.000000    0.000000   -0.000000 Ang=   0.00 deg.
 Requested convergence on RMS density matrix=1.00D-08 within 128 cycles.
 Requested convergence on MAX density matrix=1.00D-06.
 Requested convergence on             energy=1.00D-06.
 No special actions if energy rises.
 SCF Done:  E(RM062X) =  -249.669628069     A.U. after    1 cycles
            NFock=  1  Conv=0.16D-08     -V/T= 2.0052
 DoSCS=F DFT=T ScalE2(SS,OS)=  1.000000  1.000000
 Range of M.O.s used for correlation:     1   209
 NBasis=   209 NAE=    21 NBE=    21 NFC=     0 NFV=     0
 NROrb=    209 NOA=    21 NOB=    21 NVA=   188 NVB=   188

 **** Warning!!: The largest alpha MO coefficient is  0.15162114D+02

          Differentiating once with respect to magnetic field using GIAOs.
          Electric field/nuclear overlap derivatives assumed to be zero.
 FoFCou: FMM=F IPFlag=           0 FMFlag=      100000 FMFlg1=           0
         NFxFlg=           0 DoJE=F BraDBF=F KetDBF=T FulRan=T
         wScrn=  0.000000 ICntrl=      6100 IOpCl=  0 I1Cent=           7 NGrid=          14
         NMat0=    1 NMatS0=      1 NMatT0=    0 NMatD0=    1 NMtDS0=    0 NMtDT0=    0
 Symmetry not used in FoFCou.
   1 Symmetry operations used in ECPInt.
 ECPInt:  NShTT=    4186 NPrTT=   12072 LenC2=    4187 LenP2D=   12072.
 LDataN:  DoStor=T MaxTD1= 7 Len=  274
 FoFJK:  IHMeth= 1 ICntrl=    6127 DoSepK=F KAlg= 0 I1Cent=           0 FoldK=F
 IRaf=         1 NMat=       1 IRICut=       1 DoRegI=T DoRafI=F ISym2E= 0 IDoP0=0 IntGTp=1.
          There are     3 degrees of freedom in the 1st order CPHF.  IDoFFX=0 NUNeed=     3.
      3 vectors produced by pass  0 Test12= 1.32D-13 3.33D-08 XBig12= 2.82D+00 3.23D-01.
 AX will form     3 AO Fock derivatives at one time.
      3 vectors produced by pass  1 Test12= 1.32D-13 3.33D-08 XBig12= 1.13D-02 2.51D-02.
      3 vectors produced by pass  2 Test12= 1.32D-13 3.33D-08 XBig12= 7.75D-05 2.69D-03.
      3 vectors produced by pass  3 Test12= 1.32D-13 3.33D-08 XBig12= 7.63D-07 2.44D-04.
      3 vectors produced by pass  4 Test12= 1.32D-13 3.33D-08 XBig12= 9.67D-09 1.77D-05.
      3 vectors produced by pass  5 Test12= 1.32D-13 3.33D-08 XBig12= 1.01D-10 1.48D-06.
      3 vectors produced by pass  6 Test12= 1.32D-13 3.33D-08 XBig12= 6.57D-13 1.36D-07.
 InvSVY:  IOpt=1 It=  1 EMax= 2.22D-16
 Solved reduced A of dimension    21 with     3 vectors.
 Calculating GIAO nuclear magnetic shielding tensors.
 SCF GIAO Magnetic shielding tensor (ppm):
      1  N    Isotropic =   237.8992   Anisotropy =    33.0933
   XX=   248.4932   YX=    -3.8483   ZX=    -9.8775
   XY=     9.7052   YY=   242.9487   ZY=    22.5897
   XZ=   -16.8167   YZ=    22.2069   ZZ=   222.2556
   Eigenvalues:   204.1837   249.5524   259.9614
      2  C    Isotropic =   139.6021   Anisotropy =    40.7364
   XX=   160.7065   YX=    17.1569   ZX=     1.3686
   XY=     8.5389   YY=   139.3586   ZY=    -5.5585
   XZ=     2.1131   YZ=    -6.8400   ZZ=   118.7414
   Eigenvalues:   116.3440   135.7026   166.7598
      3  C    Isotropic =   106.1714   Anisotropy =    85.5831
   XX=   150.0901   YX=    33.3055   ZX=    -2.6013
   XY=    24.1875   YY=    97.9419   ZY=    -3.9291
   XZ=    -6.4798   YZ=    -5.6625   ZZ=    70.4822
   Eigenvalues:    69.6666    85.6208   163.2268
      4  O    Isotropic =   314.6621   Anisotropy =    34.0259
   XX=   323.6535   YX=     4.0780   ZX=    -0.8394
   XY=    12.9956   YY=   331.4031   ZY=    -4.7259
   XZ=    -4.0958   YZ=    -3.1095   ZZ=   288.9298
   Eigenvalues:   288.4870   318.1533   337.3460
      5  C    Isotropic =   125.2928   Anisotropy =    90.2289
   XX=   169.5434   YX=   -32.4681   ZX=     3.0108
   XY=   -36.3476   YY=   110.2709   ZY=    -1.1104
   XZ=     3.4019   YZ=    -1.0489   ZZ=    96.0640
   Eigenvalues:    94.4131    96.0198   185.4454
      6  H    Isotropic =    31.4069   Anisotropy =    14.7952
   XX=    39.2089   YX=    -5.4562   ZX=    -2.2694
   XY=    -2.9361   YY=    29.7366   ZY=     2.0020
   XZ=    -1.7800   YZ=     2.7042   ZZ=    25.2752
   Eigenvalues:    24.2600    28.6903    41.2704
      7  H    Isotropic =    31.9714   Anisotropy =    13.2371
   XX=    31.2360   YX=     3.6947   ZX=     2.5782
   XY=     1.8056   YY=    30.4075   ZY=     7.6788
   XZ=     1.7657   YZ=     6.2889   ZZ=    34.2708
   Eigenvalues:    24.9543    30.1639    40.7961
      8  H    Isotropic =    28.9355   Anisotropy =     6.4671
   XX=    29.5217   YX=     1.8497   ZX=    -0.6203
   XY=     1.2628   YY=    28.8166   ZY=    -4.6784
   XZ=     0.6321   YZ=    -3.8268   ZZ=    28.4683
   Eigenvalues:    24.1619    29.3978    33.2469
      9  H    Isotropic =    29.1515   Anisotropy =     5.4087
   XX=    29.5036   YX=     1.0488   ZX=     0.6954
   XY=     0.7777   YY=    29.7851   ZY=     3.7655
   XZ=    -0.6474   YZ=     3.2834   ZZ=    28.1659
   Eigenvalues:    25.2862    29.4111    32.7573
     10  H    Isotropic =    28.5096   Anisotropy =     4.0571
   XX=    29.2815   YX=     1.7227   ZX=    -1.5836
   XY=     0.6888   YY=    27.7271   ZY=    -2.5213
   XZ=     0.2420   YZ=    -1.8310   ZZ=    28.5202
   Eigenvalues:    25.8318    28.4826    31.2143
     11  H    Isotropic =    28.8352   Anisotropy =     4.3833
   XX=    30.2984   YX=     2.3183   ZX=     1.1583
   XY=     0.6762   YY=    28.8522   ZY=     2.5219
   XZ=    -0.4643   YZ=     1.6294   ZZ=    27.3551
   Eigenvalues:    25.8147    28.9336    31.7575
     12  H    Isotropic =    28.7686   Anisotropy =     8.2389
   XX=    29.9530   YX=    -4.8495   ZX=    -2.9518
   XY=    -2.3773   YY=    28.3779   ZY=     2.5837
   XZ=    -1.3414   YZ=     1.5307   ZZ=    27.9749
   Eigenvalues:    25.4198    26.6248    34.2612
     13  H    Isotropic =    28.7167   Anisotropy =     8.2289
   XX=    29.9965   YX=    -4.0431   ZX=     4.0059
   XY=    -2.0803   YY=    27.3989   ZY=    -2.4001
   XZ=     1.8151   YZ=    -1.2898   ZZ=    28.7545
   Eigenvalues:    25.3690    26.5784    34.2026
     14  H    Isotropic =    28.3214   Anisotropy =     9.0972
   XX=    34.2634   YX=     2.2945   ZX=    -0.3577
   XY=    -0.3258   YY=    26.0788   ZY=    -0.1364
   XZ=    -0.0916   YZ=    -0.1958   ZZ=    24.6219
   Eigenvalues:    24.6018    25.9762    34.3862
 End of Minotr F.D. properties file   721 does not exist.
 End of Minotr F.D. properties file   722 does not exist.
 End of Minotr F.D. properties file   788 does not exist.

 **********************************************************************

            Population analysis using the SCF Density.

 **********************************************************************

 Orbital symmetries:
       Occupied  (A) (A) (A) (A) (A) (A) (A) (A) (A) (A) (A) (A)
                 (A) (A) (A) (A) (A) (A) (A) (A) (A)
       Virtual   (A) (A) (A) (A) (A) (A) (A) (A) (A) (A) (A) (A)
                 (A) (A) (A) (A) (A) (A) (A) (A) (A) (A) (A) (A)
                 (A) (A) (A) (A) (A) (A) (A) (A) (A) (A) (A) (A)
                 (A) (A) (A) (A) (A) (A) (A) (A) (A) (A) (A) (A)
                 (A) (A) (A) (A) (A) (A) (A) (A) (A) (A) (A) (A)
                 (A) (A) (A) (A) (A) (A) (A) (A) (A) (A) (A) (A)
                 (A) (A) (A) (A) (A) (A) (A) (A) (A) (A) (A) (A)
                 (A) (A) (A) (A) (A) (A) (A) (A) (A) (A) (A) (A)
                 (A) (A) (A) (A) (A) (A) (A) (A) (A) (A) (A) (A)
                 (A) (A) (A) (A) (A) (A) (A) (A) (A) (A) (A) (A)
                 (A) (A) (A) (A) (A) (A) (A) (A) (A) (A) (A) (A)
                 (A) (A) (A) (A) (A) (A) (A) (A) (A) (A) (A) (A)
                 (A) (A) (A) (A) (A) (A) (A) (A) (A) (A) (A) (A)
                 (A) (A) (A) (A) (A) (A) (A) (A) (A) (A) (A) (A)
                 (A) (A) (A) (A) (A) (A) (A) (A) (A) (A) (A) (A)
                 (A) (A) (A) (A) (A) (A) (A) (A)
 The electronic state is 1-A.
 Alpha  occ. eigenvalues --  -19.62600 -14.72945 -10.57736 -10.57617 -10.55649
 Alpha  occ. eigenvalues --   -1.15656  -0.98904  -0.83571  -0.74999  -0.68606
 Alpha  occ. eigenvalues --   -0.57640  -0.56478  -0.54505  -0.51827  -0.49759
 Alpha  occ. eigenvalues --   -0.47203  -0.42716  -0.41194  -0.38943  -0.33128
 Alpha  occ. eigenvalues --   -0.31327
 Alpha virt. eigenvalues --    0.06130   0.07922   0.10973   0.11139   0.13240
 Alpha virt. eigenvalues --    0.14272   0.15052   0.16274   0.17622   0.19000
 Alpha virt. eigenvalues --    0.20663   0.21338   0.25133   0.25351   0.26708
 Alpha virt. eigenvalues --    0.30439   0.32294   0.33769   0.35029   0.37530
 Alpha virt. eigenvalues --    0.38711   0.39739   0.43534   0.43957   0.46399
 Alpha virt. eigenvalues --    0.46839   0.47616   0.48447   0.49189   0.51874
 Alpha virt. eigenvalues --    0.53317   0.53930   0.55111   0.55849   0.57094
 Alpha virt. eigenvalues --    0.59594   0.63936   0.64919   0.68473   0.69536
 Alpha virt. eigenvalues --    0.70273   0.73574   0.80955   0.82547   0.86274
 Alpha virt. eigenvalues --    0.90634   0.91712   0.94885   0.98037   1.01342
 Alpha virt. eigenvalues --    1.05588   1.06982   1.09490   1.12528   1.17460
 Alpha virt. eigenvalues --    1.21519   1.26422   1.27795   1.35130   1.36768
 Alpha virt. eigenvalues --    1.42282   1.44740   1.49150   1.49842   1.55760
 Alpha virt. eigenvalues --    1.56366   1.57706   1.58273   1.62326   1.62711
 Alpha virt. eigenvalues --    1.67587   1.68585   1.74117   1.76251   1.78959
 Alpha virt. eigenvalues --    1.79664   1.83616   1.84654   1.88963   1.91367
 Alpha virt. eigenvalues --    1.93544   1.94742   1.96832   2.01313   2.02454
 Alpha virt. eigenvalues --    2.02995   2.05968   2.07084   2.10362   2.11803
 Alpha virt. eigenvalues --    2.21176   2.26742   2.29275   2.32685   2.32856
 Alpha virt. eigenvalues --    2.33330   2.37601   2.39744   2.42819   2.46081
 Alpha virt. eigenvalues --    2.49198   2.51744   2.52068   2.53032   2.54371
 Alpha virt. eigenvalues --    2.57150   2.60154   2.61219   2.63021   2.67862
 Alpha virt. eigenvalues --    2.69434   2.71168   2.73144   2.76339   2.80708
 Alpha virt. eigenvalues --    2.87188   2.89501   2.90705   2.96520   3.06799
 Alpha virt. eigenvalues --    3.07656   3.10127   3.14944   3.16263   3.18609
 Alpha virt. eigenvalues --    3.19672   3.21512   3.22347   3.24365   3.28086
 Alpha virt. eigenvalues --    3.30053   3.32894   3.35559   3.39157   3.44218
 Alpha virt. eigenvalues --    3.45595   3.52421   3.53642   3.55930   3.58862
 Alpha virt. eigenvalues --    3.60685   3.68108   3.77345   3.80590   3.84693
 Alpha virt. eigenvalues --    3.85150   3.88364   3.95086   4.10292   4.12380
 Alpha virt. eigenvalues --    4.14626   4.17862   4.30133   4.31638   4.33353
 Alpha virt. eigenvalues --    4.38799   4.44025   4.48119   4.55569   4.64783
 Alpha virt. eigenvalues --    4.73885   4.77252   4.80635   4.84541   4.88824
 Alpha virt. eigenvalues --    5.04316   5.07417   5.17888   5.24035   5.39770
 Alpha virt. eigenvalues --    5.45330   5.53072   5.72681   5.74383   5.82645
 Alpha virt. eigenvalues --    5.84725   6.12023   6.18926   6.68612   6.69764
 Alpha virt. eigenvalues --    6.83711   7.15496   7.24033  22.40037  22.50481
 Alpha virt. eigenvalues --   22.59934  32.01979  44.17940
          Condensed to atoms (all electrons):
               1          2          3          4          5          6
     1  N    6.720162   0.220419  -0.048227   0.005075  -0.000258   0.367357
     2  C    0.220419   5.022175   0.292286  -0.065457   0.006838  -0.041644
     3  C   -0.048227   0.292286   4.917772   0.248712  -0.072559   0.011888
     4  O    0.005075  -0.065457   0.248712   8.069364   0.249005  -0.000313
     5  C   -0.000258   0.006838  -0.072559   0.249005   4.838879   0.000037
     6  H    0.367357  -0.041644   0.011888  -0.000313   0.000037   0.477636
     7  H    0.363743  -0.039059  -0.007808  -0.000086  -0.000009  -0.035342
     8  H   -0.051191   0.440279  -0.067935   0.010688   0.000664  -0.003124
     9  H   -0.028282   0.405933  -0.027669   0.006737  -0.000161  -0.009155
    10  H    0.010992  -0.036692   0.416284  -0.043346  -0.007223  -0.000593
    11  H    0.003027  -0.046508   0.414614  -0.046456  -0.003702  -0.000463
    12  H    0.000037  -0.000301  -0.014406  -0.043701   0.420914   0.000003
    13  H   -0.000036  -0.000498  -0.009326  -0.045141   0.419987   0.000001
    14  H   -0.000002   0.000132   0.010610  -0.033110   0.396787  -0.000001
               7          8          9         10         11         12
     1  N    0.363743  -0.051191  -0.028282   0.010992   0.003027   0.000037
     2  C   -0.039059   0.440279   0.405933  -0.036692  -0.046508  -0.000301
     3  C   -0.007808  -0.067935  -0.027669   0.416284   0.414614  -0.014406
     4  O   -0.000086   0.010688   0.006737  -0.043346  -0.046456  -0.043701
     5  C   -0.000009   0.000664  -0.000161  -0.007223  -0.003702   0.420914
     6  H   -0.035342  -0.003124  -0.009155  -0.000593  -0.000463   0.000003
     7  H    0.486242  -0.009248   0.008431  -0.000825   0.004513  -0.000004
     8  H   -0.009248   0.596704  -0.042252   0.011976  -0.012749  -0.000339
     9  H    0.008431  -0.042252   0.556648  -0.013369   0.009858   0.000214
    10  H   -0.000825   0.011976  -0.013369   0.594983  -0.066935  -0.005706
    11  H    0.004513  -0.012749   0.009858  -0.066935   0.633476   0.014477
    12  H   -0.000004  -0.000339   0.000214  -0.005706   0.014477   0.590108
    13  H    0.000010   0.000214  -0.000226   0.013490  -0.006270  -0.061451
    14  H   -0.000001  -0.000046  -0.000023  -0.000101  -0.000018  -0.025638
              13         14
     1  N   -0.000036  -0.000002
     2  C   -0.000498   0.000132
     3  C   -0.009326   0.010610
     4  O   -0.045141  -0.033110
     5  C    0.419987   0.396787
     6  H    0.000001  -0.000001
     7  H    0.000010  -0.000001
     8  H    0.000214  -0.000046
     9  H   -0.000226  -0.000023
    10  H    0.013490  -0.000101
    11  H   -0.006270  -0.000018
    12  H   -0.061451  -0.025638
    13  H    0.586923  -0.025606
    14  H   -0.025606   0.537643
 Mulliken charges:
               1
     1  N   -0.562816
     2  C   -0.157904
     3  C   -0.064235
     4  O   -0.311971
     5  C   -0.249200
     6  H    0.233714
     7  H    0.229441
     8  H    0.126359
     9  H    0.133315
    10  H    0.127067
    11  H    0.103136
    12  H    0.125793
    13  H    0.127928
    14  H    0.139373
 Sum of Mulliken charges =   0.00000
 Mulliken charges with hydrogens summed into heavy atoms:
               1
     1  N   -0.099661
     2  C    0.101770
     3  C    0.165968
     4  O   -0.311971
     5  C    0.143894
 Electronic spatial extent (au):  <R**2>=            621.3028
 Charge=              0.0000 electrons
 Dipole moment (field-independent basis, Debye):
    X=             -0.2342    Y=             -0.3554    Z=             -0.8824  Tot=              0.9797
 Quadrupole moment (field-independent basis, Debye-Ang):
   XX=            -27.2533   YY=            -34.0707   ZZ=            -32.6601
   XY=             -3.6099   XZ=              2.8701   YZ=              1.8986
 Traceless Quadrupole moment (field-independent basis, Debye-Ang):
   XX=              4.0748   YY=             -2.7426   ZZ=             -1.3321
   XY=             -3.6099   XZ=              2.8701   YZ=              1.8986
 Octapole moment (field-independent basis, Debye-Ang**2):
  XXX=             -4.1565  YYY=              2.1506  ZZZ=             -1.1443  XYY=             -0.1893
  XXY=              6.4782  XXZ=             -6.5275  XZZ=             -0.2878  YZZ=             -0.0436
  YYZ=             -1.5545  XYZ=             -4.4925
 Hexadecapole moment (field-independent basis, Debye-Ang**3):
 XXXX=           -576.6582 YYYY=            -96.7710 ZZZZ=            -57.9487 XXXY=             -9.1382
 XXXZ=             14.0751 YYYX=              1.7617 YYYZ=              3.0615 ZZZX=              4.1901
 ZZZY=              1.9410 XXYY=           -127.9411 XXZZ=           -122.4562 YYZZ=            -23.6656
 XXYZ=             11.3388 YYXZ=              3.1591 ZZXY=             -0.7505
 N-N= 1.892843411365D+02 E-N=-9.612961048197D+02  KE= 2.483769624260D+02
 Unable to Open any file for archive entry.
 1\1\GINC-NOTCH218\SP\RM062X\def2TZVP\C3H9N1O1\U6032257\21-Feb-2022\0\\
 # M062X/def2tzvp int=(grid=ultrafine) nmr=giao guess=read geom=check\\
 N1.xyz\\0,1\N,0,0.3283080172,-1.4286801931,-2.4489774266\C,0,0.2659570
 557,-0.213270532,-1.632794501\C,0,0.0786768314,-0.5913848694,-0.170315
 3816\O,0,0.0461953931,0.5974819843,0.5942427643\C,0,-0.1423887396,0.35
 17677003,1.9693606609\H,0,0.3002673446,-1.183556702,-3.4347081363\H,0,
 1.2200883973,-1.8962934107,-2.3010134322\H,0,1.1467660759,0.4452977009
 ,-1.711247404\H,0,-0.6004581268,0.3759690425,-1.9508267474\H,0,-0.8520
 62514,-1.1683564084,-0.0535992873\H,0,0.9076124235,-1.2426694001,0.162
 455575\H,0,0.6717713284,-0.2590753527,2.3914853379\H,0,-1.0943081558,-
 0.1663910875,2.1661878691\H,0,-0.155825331,1.3195615279,2.4761501092\\
 Version=ES64L-G16RevC.01\State=1-A\HF=-249.6696281\RMSD=1.578e-09\Dipo
 le=0.3587399,-0.1408754,-0.0040551\Quadrupole=-0.4097523,-3.4211232,3.
 8308755,-1.8465586,-1.9338895,-0.6955873\PG=C01 [X(C3H9N1O1)]\\@
 The archive entry for this job was punched.


 WHEN ALL ELSE FAILS, TRY THE BOSS'S SUGGESTION.
 Job cpu time:       0 days  0 hours  4 minutes 58.5 seconds.
 Elapsed time:       0 days  0 hours  0 minutes  6.1 seconds.
 File lengths (MBytes):  RWF=     30 Int=      0 D2E=      0 Chk=      5 Scr=      1
 Normal termination of Gaussian 16 at Mon Feb 21 19:00:19 2022.
