 Entering Gaussian System, Link 0=/uufs/chpc.utah.edu/sys/installdir/gaussian16/C01/AVX2/g16/g16
 Input=N1_conf-7.com
 Output=N1_conf-7.log
 Initial command:
 /uufs/chpc.utah.edu/sys/installdir/gaussian16/C01/AVX2/g16/l1.exe "/scratch/local/u6032257/4038470/notchpeak.peaks/Gau-180845.inp" -scrdir="/scratch/local/u6032257/4038470/notchpeak.peaks/"
 Entering Link 1 = /uufs/chpc.utah.edu/sys/installdir/gaussian16/C01/AVX2/g16/l1.exe PID=    180847.
  
 Copyright (c) 1988-2019, Gaussian, Inc.  All Rights Reserved.
  
 This is part of the Gaussian(R) 16 program.  It is based on
 the Gaussian(R) 09 system (copyright 2009, Gaussian, Inc.),
 the Gaussian(R) 03 system (copyright 2003, Gaussian, Inc.),
 the Gaussian(R) 98 system (copyright 1998, Gaussian, Inc.),
 the Gaussian(R) 94 system (copyright 1995, Gaussian, Inc.),
 the Gaussian 92(TM) system (copyright 1992, Gaussian, Inc.),
 the Gaussian 90(TM) system (copyright 1990, Gaussian, Inc.),
 the Gaussian 88(TM) system (copyright 1988, Gaussian, Inc.),
 the Gaussian 86(TM) system (copyright 1986, Carnegie Mellon
 University), and the Gaussian 82(TM) system (copyright 1983,
 Carnegie Mellon University). Gaussian is a federally registered
 trademark of Gaussian, Inc.
  
 This software contains proprietary and confidential information,
 including trade secrets, belonging to Gaussian, Inc.
  
 This software is provided under written license and may be
 used, copied, transmitted, or stored only in accord with that
 written license.
  
 The following legend is applicable only to US Government
 contracts under FAR:
  
                    RESTRICTED RIGHTS LEGEND
  
 Use, reproduction and disclosure by the US Government is
 subject to restrictions as set forth in subparagraphs (a)
 and (c) of the Commercial Computer Software - Restricted
 Rights clause in FAR 52.227-19.
  
 Gaussian, Inc.
 340 Quinnipiac St., Bldg. 40, Wallingford CT 06492
  
  
 ---------------------------------------------------------------
 Warning -- This program may not be used in any manner that
 competes with the business of Gaussian, Inc. or will provide
 assistance to any competitor of Gaussian, Inc.  The licensee
 of this program is prohibited from giving any competitor of
 Gaussian, Inc. access to this program.  By using this program,
 the user acknowledges that Gaussian, Inc. is engaged in the
 business of creating and licensing software in the field of
 computational chemistry and represents and warrants to the
 licensee that it is not a competitor of Gaussian, Inc. and that
 it will not use this program in any manner prohibited above.
 ---------------------------------------------------------------
  

 Cite this work as:
 Gaussian 16, Revision C.01,
 M. J. Frisch, G. W. Trucks, H. B. Schlegel, G. E. Scuseria, 
 M. A. Robb, J. R. Cheeseman, G. Scalmani, V. Barone, 
 G. A. Petersson, H. Nakatsuji, X. Li, M. Caricato, A. V. Marenich, 
 J. Bloino, B. G. Janesko, R. Gomperts, B. Mennucci, H. P. Hratchian, 
 J. V. Ortiz, A. F. Izmaylov, J. L. Sonnenberg, D. Williams-Young, 
 F. Ding, F. Lipparini, F. Egidi, J. Goings, B. Peng, A. Petrone, 
 T. Henderson, D. Ranasinghe, V. G. Zakrzewski, J. Gao, N. Rega, 
 G. Zheng, W. Liang, M. Hada, M. Ehara, K. Toyota, R. Fukuda, 
 J. Hasegawa, M. Ishida, T. Nakajima, Y. Honda, O. Kitao, H. Nakai, 
 T. Vreven, K. Throssell, J. A. Montgomery, Jr., J. E. Peralta, 
 F. Ogliaro, M. J. Bearpark, J. J. Heyd, E. N. Brothers, K. N. Kudin, 
 V. N. Staroverov, T. A. Keith, R. Kobayashi, J. Normand, 
 K. Raghavachari, A. P. Rendell, J. C. Burant, S. S. Iyengar, 
 J. Tomasi, M. Cossi, J. M. Millam, M. Klene, C. Adamo, R. Cammi, 
 J. W. Ochterski, R. L. Martin, K. Morokuma, O. Farkas, 
 J. B. Foresman, and D. J. Fox, Gaussian, Inc., Wallingford CT, 2019.
 
 ******************************************
 Gaussian 16:  ES64L-G16RevC.01  3-Jul-2019
                21-Feb-2022 
 ******************************************
 %NProcShared=40
 Will use up to   40 processors via shared memory.
 %mem=16GB
 %chk=N1_conf-7.chk
 ----------------------------------------------------------------------
 # B3LYP/6-31G(d,p) empiricaldispersion=GD3BJ int=(grid=ultrafine) opt 
 freq=noraman
 ----------------------------------------------------------------------
 1/18=20,19=15,26=4,38=1/1,3;
 2/9=110,12=2,17=6,18=5,40=1/2;
 3/5=1,6=6,7=101,11=2,25=1,30=1,71=1,74=-5,75=-5,124=41/1,2,3;
 4//1;
 5/5=2,38=5/2;
 6/7=2,8=2,9=2,10=2,28=1/1;
 7//1,2,3,16;
 1/18=20,19=15,26=4/3(2);
 2/9=110/2;
 99//99;
 2/9=110/2;
 3/5=1,6=6,7=101,11=2,25=1,30=1,71=1,74=-5,75=-5,124=41/1,2,3;
 4/5=5,16=3,69=1/1;
 5/5=2,38=5/2;
 7//1,2,3,16;
 1/18=20,19=15,26=4/3(-5);
 2/9=110/2;
 6/7=2,8=2,9=2,10=2,19=2,28=1/1;
 99/9=1/99;
 ------
 N1.xyz
 ------
 Symbolic Z-matrix:
 Charge =  0 Multiplicity = 1
 N                    -0.458    -1.1008   -1.9688 
 C                     0.7902   -0.9186   -1.2356 
 C                     0.8231    0.4237   -0.4616 
 O                    -0.2558    0.6268    0.4503 
 C                    -0.3555   -0.3234    1.5027 
 H                    -0.7664   -0.2251   -2.3713 
 H                    -0.3614   -1.7623   -2.7265 
 H                     0.9305   -1.7579   -0.5524 
 H                     1.6298   -0.9458   -1.9329 
 H                     0.7931    1.2481   -1.1749 
 H                     1.7706    0.5234    0.0703 
 H                     0.5718   -0.3898    2.0736 
 H                    -0.6117   -1.315     1.1278 
 H                    -1.1471   -0.02      2.1879 
 

 GradGradGradGradGradGradGradGradGradGradGradGradGradGradGradGradGradGrad
 Berny optimization.
 Initialization pass.
                           ----------------------------
                           !    Initial Parameters    !
                           ! (Angstroms and Degrees)  !
 --------------------------                            --------------------------
 ! Name  Definition              Value          Derivative Info.                !
 --------------------------------------------------------------------------------
 ! R1    R(1,2)                  1.459          estimate D2E/DX2                !
 ! R2    R(1,6)                  1.0119         estimate D2E/DX2                !
 ! R3    R(1,7)                  1.0105         estimate D2E/DX2                !
 ! R4    R(2,3)                  1.5498         estimate D2E/DX2                !
 ! R5    R(2,8)                  1.0913         estimate D2E/DX2                !
 ! R6    R(2,9)                  1.0917         estimate D2E/DX2                !
 ! R7    R(3,4)                  1.4272         estimate D2E/DX2                !
 ! R8    R(3,10)                 1.0906         estimate D2E/DX2                !
 ! R9    R(3,11)                 1.0912         estimate D2E/DX2                !
 ! R10   R(4,5)                  1.4214         estimate D2E/DX2                !
 ! R11   R(5,12)                 1.091          estimate D2E/DX2                !
 ! R12   R(5,13)                 1.0906         estimate D2E/DX2                !
 ! R13   R(5,14)                 1.09           estimate D2E/DX2                !
 ! A1    A(2,1,6)              110.6432         estimate D2E/DX2                !
 ! A2    A(2,1,7)              112.1348         estimate D2E/DX2                !
 ! A3    A(6,1,7)              107.3017         estimate D2E/DX2                !
 ! A4    A(1,2,3)              112.1656         estimate D2E/DX2                !
 ! A5    A(1,2,8)              109.181          estimate D2E/DX2                !
 ! A6    A(1,2,9)              109.5021         estimate D2E/DX2                !
 ! A7    A(3,2,8)              110.532          estimate D2E/DX2                !
 ! A8    A(3,2,9)              108.919          estimate D2E/DX2                !
 ! A9    A(8,2,9)              106.3696         estimate D2E/DX2                !
 ! A10   A(2,3,4)              115.2335         estimate D2E/DX2                !
 ! A11   A(2,3,10)             109.1163         estimate D2E/DX2                !
 ! A12   A(2,3,11)             109.9389         estimate D2E/DX2                !
 ! A13   A(4,3,10)             106.8307         estimate D2E/DX2                !
 ! A14   A(4,3,11)             109.3885         estimate D2E/DX2                !
 ! A15   A(10,3,11)            105.8816         estimate D2E/DX2                !
 ! A16   A(3,4,5)              115.5293         estimate D2E/DX2                !
 ! A17   A(4,5,12)             111.624          estimate D2E/DX2                !
 ! A18   A(4,5,13)             111.7013         estimate D2E/DX2                !
 ! A19   A(4,5,14)             109.2861         estimate D2E/DX2                !
 ! A20   A(12,5,13)            108.9179         estimate D2E/DX2                !
 ! A21   A(12,5,14)            107.7738         estimate D2E/DX2                !
 ! A22   A(13,5,14)            107.3707         estimate D2E/DX2                !
 ! D1    D(6,1,2,3)             38.5876         estimate D2E/DX2                !
 ! D2    D(6,1,2,8)            161.4551         estimate D2E/DX2                !
 ! D3    D(6,1,2,9)            -82.4563         estimate D2E/DX2                !
 ! D4    D(7,1,2,3)            158.3456         estimate D2E/DX2                !
 ! D5    D(7,1,2,8)            -78.7869         estimate D2E/DX2                !
 ! D6    D(7,1,2,9)             37.3016         estimate D2E/DX2                !
 ! D7    D(1,2,3,4)             55.9789         estimate D2E/DX2                !
 ! D8    D(1,2,3,10)           -64.1612         estimate D2E/DX2                !
 ! D9    D(1,2,3,11)          -179.8716         estimate D2E/DX2                !
 ! D10   D(8,2,3,4)            -66.1223         estimate D2E/DX2                !
 ! D11   D(8,2,3,10)           173.7377         estimate D2E/DX2                !
 ! D12   D(8,2,3,11)            58.0273         estimate D2E/DX2                !
 ! D13   D(9,2,3,4)            177.3582         estimate D2E/DX2                !
 ! D14   D(9,2,3,10)            57.2182         estimate D2E/DX2                !
 ! D15   D(9,2,3,11)           -58.4923         estimate D2E/DX2                !
 ! D16   D(2,3,4,5)             61.1036         estimate D2E/DX2                !
 ! D17   D(10,3,4,5)          -177.5106         estimate D2E/DX2                !
 ! D18   D(11,3,4,5)           -63.3343         estimate D2E/DX2                !
 ! D19   D(3,4,5,12)            55.4553         estimate D2E/DX2                !
 ! D20   D(3,4,5,13)           -66.7616         estimate D2E/DX2                !
 ! D21   D(3,4,5,14)           174.5732         estimate D2E/DX2                !
 --------------------------------------------------------------------------------
 Trust Radius=3.00D-01 FncErr=1.00D-07 GrdErr=1.00D-06 EigMax=2.50D+02 EigMin=1.00D-04
 Number of steps in this run=     66 maximum allowed number of steps=    100.
 GradGradGradGradGradGradGradGradGradGradGradGradGradGradGradGradGradGrad

                          Input orientation:                          
 ---------------------------------------------------------------------
 Center     Atomic      Atomic             Coordinates (Angstroms)
 Number     Number       Type             X           Y           Z
 ---------------------------------------------------------------------
      1          7           0       -0.458000   -1.100800   -1.968800
      2          6           0        0.790200   -0.918600   -1.235600
      3          6           0        0.823100    0.423700   -0.461600
      4          8           0       -0.255800    0.626800    0.450300
      5          6           0       -0.355500   -0.323400    1.502700
      6          1           0       -0.766400   -0.225100   -2.371300
      7          1           0       -0.361400   -1.762300   -2.726500
      8          1           0        0.930500   -1.757900   -0.552400
      9          1           0        1.629800   -0.945800   -1.932900
     10          1           0        0.793100    1.248100   -1.174900
     11          1           0        1.770600    0.523400    0.070300
     12          1           0        0.571800   -0.389800    2.073600
     13          1           0       -0.611700   -1.315000    1.127800
     14          1           0       -1.147100   -0.020000    2.187900
 ---------------------------------------------------------------------
                    Distance matrix (angstroms):
                    1          2          3          4          5
     1  N    0.000000
     2  C    1.459035   0.000000
     3  C    2.497393   1.549815   0.000000
     4  O    2.979519   2.514883   1.427178   0.000000
     5  C    3.558956   3.027405   2.409508   1.421396   0.000000
     6  H    1.011913   2.047867   2.567958   2.991299   3.896970
     7  H    1.010457   2.064169   3.363244   3.976306   4.467281
     8  H    2.089474   1.091270   2.186129   2.845964   2.816917
     9  H    2.093854   1.091740   2.165876   3.421725   4.016484
    10  H    2.777204   2.167552   1.090565   2.031620   3.310353
    11  H    3.429667   2.178514   1.091153   2.064313   2.699841
    12  H    4.231667   3.358293   2.674355   2.086504   1.090973
    13  H    3.107803   2.776349   2.758246   2.087165   1.090623
    14  H    4.349844   4.034968   3.331427   2.057187   1.090037
                    6          7          8          9         10
     6  H    0.000000
     7  H    1.628857   0.000000
     8  H    2.921873   2.528979   0.000000
     9  H    2.540350   2.293763   1.747658   0.000000
    10  H    2.456365   3.578106   3.072852   2.467352   0.000000
    11  H    3.599727   4.194275   2.509552   2.488209   1.741040
    12  H    4.644894   5.078935   2.982656   4.180974   3.644783
    13  H    3.668176   3.888233   2.323276   3.811629   3.720937
    14  H    4.579662   5.272975   3.853046   5.054629   4.084223
                   11         12         13         14
    11  H    0.000000
    12  H    2.506844   0.000000
    13  H    3.189573   1.775163   0.000000
    14  H    3.645886   1.761940   1.757126   0.000000
 Stoichiometry    C3H9NO
 Framework group  C1[X(C3H9NO)]
 Deg. of freedom    36
 Full point group                 C1      NOp   1
 Largest Abelian subgroup         C1      NOp   1
 Largest concise Abelian subgroup C1      NOp   1
                         Standard orientation:                         
 ---------------------------------------------------------------------
 Center     Atomic      Atomic             Coordinates (Angstroms)
 Number     Number       Type             X           Y           Z
 ---------------------------------------------------------------------
      1          7           0        1.725110   -0.722781   -0.342167
      2          6           0        1.105525    0.198542    0.604438
      3          6           0       -0.050985    1.006263   -0.037435
      4          8           0       -1.086223    0.221623   -0.628585
      5          6           0       -1.781803   -0.643615    0.259051
      6          1           0        1.790669   -0.300994   -1.259644
      7          1           0        2.660896   -0.982817   -0.063400
      8          1           0        0.746659   -0.362916    1.468643
      9          1           0        1.857481    0.894935    0.980594
     10          1           0        0.352412    1.642482   -0.825996
     11          1           0       -0.485683    1.683448    0.699500
     12          1           0       -2.201924   -0.098149    1.105329
     13          1           0       -1.136761   -1.438314    0.635659
     14          1           0       -2.606162   -1.118333   -0.273166
 ---------------------------------------------------------------------
 Rotational constants (GHZ):           8.8303380           3.1210098           2.8421321
 Standard basis: 6-31G(d,p) (6D, 7F)
 There are   120 symmetry adapted cartesian basis functions of A   symmetry.
 There are   120 symmetry adapted basis functions of A   symmetry.
   120 basis functions,   203 primitive gaussians,   120 cartesian basis functions
    21 alpha electrons       21 beta electrons
       nuclear repulsion energy       194.1396532511 Hartrees.
 NAtoms=   14 NActive=   14 NUniq=   14 SFac= 1.00D+00 NAtFMM=   60 NAOKFM=F Big=F
 Integral buffers will be    131072 words long.
 Raffenetti 2 integral format.
 Two-electron integral symmetry is turned on.
 Nuclear repulsion after empirical dispersion term =      194.1245086579 Hartrees.
 One-electron integrals computed using PRISM.
 NBasis=   120 RedAO= T EigKep=  5.01D-03  NBF=   120
 NBsUse=   120 1.00D-06 EigRej= -1.00D+00 NBFU=   120
 ExpMin= 1.61D-01 ExpMax= 5.48D+03 ExpMxC= 8.25D+02 IAcc=3 IRadAn=         5 AccDes= 0.00D+00
 Harris functional with IExCor=  402 and IRadAn=       5 diagonalized for initial guess.
 HarFok:  IExCor=  402 AccDes= 0.00D+00 IRadAn=         5 IDoV= 1 UseB2=F ITyADJ=14
 ICtDFT=  3500011 ScaDFX=  1.000000  1.000000  1.000000  1.000000
 FoFCou: FMM=F IPFlag=           0 FMFlag=      100000 FMFlg1=           0
         NFxFlg=           0 DoJE=T BraDBF=F KetDBF=T FulRan=T
         wScrn=  0.000000 ICntrl=       500 IOpCl=  0 I1Cent=   200000004 NGrid=           0
         NMat0=    1 NMatS0=      1 NMatT0=    0 NMatD0=    1 NMtDS0=    0 NMtDT0=    0
 Petite list used in FoFCou.
 Requested convergence on RMS density matrix=1.00D-08 within 128 cycles.
 Requested convergence on MAX density matrix=1.00D-06.
 Requested convergence on             energy=1.00D-06.
 No special actions if energy rises.
 Integral accuracy reduced to 1.0D-05 until final iterations.
 Initial convergence to 1.0D-05 achieved.  Increase integral accuracy.
 SCF Done:  E(RB3LYP) =  -249.707177654     A.U. after   13 cycles
            NFock= 13  Conv=0.29D-08     -V/T= 2.0093

 **********************************************************************

            Population analysis using the SCF Density.

 **********************************************************************

 Orbital symmetries:
       Occupied  (A) (A) (A) (A) (A) (A) (A) (A) (A) (A) (A) (A)
                 (A) (A) (A) (A) (A) (A) (A) (A) (A)
       Virtual   (A) (A) (A) (A) (A) (A) (A) (A) (A) (A) (A) (A)
                 (A) (A) (A) (A) (A) (A) (A) (A) (A) (A) (A) (A)
                 (A) (A) (A) (A) (A) (A) (A) (A) (A) (A) (A) (A)
                 (A) (A) (A) (A) (A) (A) (A) (A) (A) (A) (A) (A)
                 (A) (A) (A) (A) (A) (A) (A) (A) (A) (A) (A) (A)
                 (A) (A) (A) (A) (A) (A) (A) (A) (A) (A) (A) (A)
                 (A) (A) (A) (A) (A) (A) (A) (A) (A) (A) (A) (A)
                 (A) (A) (A) (A) (A) (A) (A) (A) (A) (A) (A) (A)
                 (A) (A) (A)
 The electronic state is 1-A.
 Alpha  occ. eigenvalues --  -19.13878 -14.30358 -10.23010 -10.21684 -10.20603
 Alpha  occ. eigenvalues --   -1.01538  -0.87328  -0.73104  -0.67109  -0.59210
 Alpha  occ. eigenvalues --   -0.49326  -0.48188  -0.46399  -0.43431  -0.41792
 Alpha  occ. eigenvalues --   -0.40141  -0.37385  -0.36226  -0.29915  -0.24612
 Alpha  occ. eigenvalues --   -0.22261
 Alpha virt. eigenvalues --    0.07911   0.11562   0.13084   0.13395   0.14988
 Alpha virt. eigenvalues --    0.16332   0.17089   0.18199   0.20387   0.20616
 Alpha virt. eigenvalues --    0.23444   0.24416   0.27899   0.51921   0.52719
 Alpha virt. eigenvalues --    0.53969   0.55818   0.56799   0.58389   0.64071
 Alpha virt. eigenvalues --    0.68215   0.72460   0.77435   0.78555   0.81513
 Alpha virt. eigenvalues --    0.83170   0.84712   0.87067   0.87465   0.89886
 Alpha virt. eigenvalues --    0.91771   0.92625   0.93723   0.95858   0.97739
 Alpha virt. eigenvalues --    1.03848   1.11042   1.15066   1.18601   1.31227
 Alpha virt. eigenvalues --    1.34013   1.35924   1.44280   1.48538   1.59156
 Alpha virt. eigenvalues --    1.61799   1.67364   1.69090   1.78911   1.82659
 Alpha virt. eigenvalues --    1.85428   1.91902   1.94566   1.97652   1.98447
 Alpha virt. eigenvalues --    2.01942   2.03967   2.07240   2.09198   2.11451
 Alpha virt. eigenvalues --    2.12574   2.16935   2.18688   2.23980   2.26646
 Alpha virt. eigenvalues --    2.32646   2.36487   2.40021   2.45336   2.46709
 Alpha virt. eigenvalues --    2.52715   2.57354   2.59238   2.64768   2.68637
 Alpha virt. eigenvalues --    2.71782   2.72881   2.75959   2.81754   2.85974
 Alpha virt. eigenvalues --    2.90676   2.91131   2.96545   3.00732   3.03900
 Alpha virt. eigenvalues --    3.19179   3.27274   3.31908   3.33749   3.41548
 Alpha virt. eigenvalues --    3.44546   3.45240   3.48896   3.57790   3.90065
 Alpha virt. eigenvalues --    4.01129   4.40170   4.45202   4.62210
          Condensed to atoms (all electrons):
               1          2          3          4          5          6
     1  N    6.756125   0.301181  -0.043810   0.005311  -0.001594   0.345648
     2  C    0.301181   4.896050   0.347230  -0.050951  -0.006026  -0.044810
     3  C   -0.043810   0.347230   4.720933   0.273630  -0.040722  -0.007673
     4  O    0.005311  -0.050951   0.273630   8.168939   0.263876   0.000898
     5  C   -0.001594  -0.006026  -0.040722   0.263876   4.709991   0.000106
     6  H    0.345648  -0.044810  -0.007673   0.000898   0.000106   0.491566
     7  H    0.342665  -0.034264   0.004754   0.000060  -0.000011  -0.034736
     8  H   -0.055431   0.383273  -0.030011  -0.004367   0.004141   0.006736
     9  H   -0.053283   0.363864  -0.026015   0.003254   0.000035  -0.000488
    10  H   -0.005210  -0.042907   0.387264  -0.038039   0.005739   0.005739
    11  H    0.004619  -0.053860   0.366280  -0.039505  -0.008086   0.000148
    12  H    0.000251  -0.002295  -0.008152  -0.038518   0.364850   0.000010
    13  H    0.003394   0.005400  -0.007132  -0.037808   0.376798  -0.000285
    14  H   -0.000049  -0.000002   0.004987  -0.030653   0.395151   0.000004
               7          8          9         10         11         12
     1  N    0.342665  -0.055431  -0.053283  -0.005210   0.004619   0.000251
     2  C   -0.034264   0.383273   0.363864  -0.042907  -0.053860  -0.002295
     3  C    0.004754  -0.030011  -0.026015   0.387264   0.366280  -0.008152
     4  O    0.000060  -0.004367   0.003254  -0.038039  -0.039505  -0.038518
     5  C   -0.000011   0.004141   0.000035   0.005739  -0.008086   0.364850
     6  H   -0.034736   0.006736  -0.000488   0.005739   0.000148   0.000010
     7  H    0.493297   0.000896  -0.008241   0.000091  -0.000190   0.000001
     8  H    0.000896   0.648096  -0.056366   0.005754  -0.004513  -0.000151
     9  H   -0.008241  -0.056366   0.702620  -0.004745   0.002311   0.000065
    10  H    0.000091   0.005754  -0.004745   0.631507  -0.043657  -0.000227
    11  H   -0.000190  -0.004513   0.002311  -0.043657   0.681516   0.013080
    12  H    0.000001  -0.000151   0.000065  -0.000227   0.013080   0.677051
    13  H   -0.000077  -0.001189  -0.000088  -0.000267  -0.001655  -0.051984
    14  H    0.000001  -0.000076  -0.000001  -0.000194  -0.000148  -0.037127
              13         14
     1  N    0.003394  -0.000049
     2  C    0.005400  -0.000002
     3  C   -0.007132   0.004987
     4  O   -0.037808  -0.030653
     5  C    0.376798   0.395151
     6  H   -0.000285   0.000004
     7  H   -0.000077   0.000001
     8  H   -0.001189  -0.000076
     9  H   -0.000088  -0.000001
    10  H   -0.000267  -0.000194
    11  H   -0.001655  -0.000148
    12  H   -0.051984  -0.037127
    13  H    0.641071  -0.038001
    14  H   -0.038001   0.593419
 Mulliken charges:
               1
     1  N   -0.599818
     2  C   -0.061884
     3  C    0.058436
     4  O   -0.476127
     5  C   -0.064249
     6  H    0.237137
     7  H    0.235755
     8  H    0.103209
     9  H    0.077076
    10  H    0.099152
    11  H    0.083660
    12  H    0.083144
    13  H    0.111822
    14  H    0.112687
 Sum of Mulliken charges =  -0.00000
 Mulliken charges with hydrogens summed into heavy atoms:
               1
     1  N   -0.126926
     2  C    0.118401
     3  C    0.241249
     4  O   -0.476127
     5  C    0.243404
 Electronic spatial extent (au):  <R**2>=            504.6360
 Charge=             -0.0000 electrons
 Dipole moment (field-independent basis, Debye):
    X=              1.1846    Y=              0.8198    Z=              1.1915  Tot=              1.8695
 Quadrupole moment (field-independent basis, Debye-Ang):
   XX=            -27.2443   YY=            -32.8483   ZZ=            -32.1020
   XY=              1.9974   XZ=             -2.2679   YZ=             -0.8200
 Traceless Quadrupole moment (field-independent basis, Debye-Ang):
   XX=              3.4872   YY=             -2.1168   ZZ=             -1.3705
   XY=              1.9974   XZ=             -2.2679   YZ=             -0.8200
 Octapole moment (field-independent basis, Debye-Ang**2):
  XXX=              9.7039  YYY=              3.2070  ZZZ=             -4.6497  XYY=             -2.4460
  XXY=             -6.6406  XXZ=             -1.0421  XZZ=              3.4536  YZZ=             -0.1928
  YYZ=             -0.2216  XYZ=             -1.9397
 Hexadecapole moment (field-independent basis, Debye-Ang**3):
 XXXX=           -360.2025 YYYY=           -145.6551 ZZZZ=            -91.9770 XXXY=             -8.5304
 XXXZ=             -2.5340 YYYX=              0.9461 YYYZ=             -3.1588 ZZZX=             -5.0051
 ZZZY=             -0.9976 XXYY=            -89.1259 XXZZ=            -81.3775 YYZZ=            -39.0126
 XXYZ=              1.2614 YYXZ=              1.3539 ZZXY=             -0.8982
 N-N= 1.941245086579D+02 E-N=-9.702640317643D+02  KE= 2.474041967023D+02
 Calling FoFJK, ICntrl=      2127 FMM=F ISym2X=0 I1Cent= 0 IOpClX= 0 NMat=1 NMatS=1 NMatT=0.
 ***** Axes restored to original set *****
 -------------------------------------------------------------------
 Center     Atomic                   Forces (Hartrees/Bohr)
 Number     Number              X              Y              Z
 -------------------------------------------------------------------
      1        7          -0.011174618    0.001354777    0.009763840
      2        6          -0.003066899    0.006920793   -0.004123801
      3        6          -0.006891711   -0.013291357    0.003843364
      4        8          -0.002277002    0.001383410   -0.003635830
      5        6           0.002361971    0.000984476   -0.008282832
      6        1          -0.000503722    0.002903289   -0.001497762
      7        1           0.002599464   -0.002636407   -0.001640077
      8        1           0.000066791   -0.002000201    0.003460967
      9        1           0.012310110    0.004487292    0.002166343
     10        1          -0.005122210    0.003158646   -0.001400128
     11        1           0.007503105   -0.003639811    0.002797584
     12        1           0.006435583   -0.000795531    0.002815425
     13        1          -0.000311667   -0.004456524   -0.001983170
     14        1          -0.001929194    0.005627147   -0.002283922
 -------------------------------------------------------------------
 Cartesian Forces:  Max     0.013291357 RMS     0.005071954

 GradGradGradGradGradGradGradGradGradGradGradGradGradGradGradGradGradGrad
 Berny optimization.
 FormGI is forming the generalized inverse of G from B-inverse, IUseBI=4.
 Internal  Forces:  Max     0.013616187 RMS     0.004731244
 Search for a local minimum.
 Step number   1 out of a maximum of   66
 All quantities printed in internal units (Hartrees-Bohrs-Radians)
 Mixed Optimization -- RFO/linear search
 Second derivative matrix not updated -- first step.
 ITU=  0
     Eigenvalues ---    0.00230   0.00911   0.01332   0.01409   0.04066
     Eigenvalues ---    0.04133   0.04372   0.05387   0.05707   0.09409
     Eigenvalues ---    0.09952   0.10299   0.11971   0.12836   0.14175
     Eigenvalues ---    0.16000   0.16000   0.16000   0.16000   0.16000
     Eigenvalues ---    0.21919   0.22025   0.25000   0.27667   0.34612
     Eigenvalues ---    0.34666   0.34680   0.34700   0.34741   0.34747
     Eigenvalues ---    0.34808   0.37085   0.41397   0.42251   0.45654
     Eigenvalues ---    0.45896
 RFO step:  Lambda=-6.80618221D-03 EMin= 2.30000000D-03
 Linear search not attempted -- first point.
 Iteration  1 RMS(Cart)=  0.08978151 RMS(Int)=  0.00159501
 Iteration  2 RMS(Cart)=  0.00230503 RMS(Int)=  0.00032286
 Iteration  3 RMS(Cart)=  0.00000127 RMS(Int)=  0.00032285
 Iteration  4 RMS(Cart)=  0.00000000 RMS(Int)=  0.00032285
 Variable       Old X    -DE/DX   Delta X   Delta X   Delta X     New X
                                 (Linear)    (Quad)   (Total)
    R1        2.75718   0.00423   0.00000   0.01121   0.01121   2.76839
    R2        1.91224   0.00326   0.00000   0.00704   0.00704   1.91928
    R3        1.90949   0.00320   0.00000   0.00688   0.00688   1.91637
    R4        2.92873  -0.01362   0.00000  -0.04803  -0.04803   2.88069
    R5        2.06220   0.00371   0.00000   0.01051   0.01051   2.07271
    R6        2.06309   0.00797   0.00000   0.02259   0.02259   2.08568
    R7        2.69698  -0.01139   0.00000  -0.02706  -0.02706   2.66991
    R8        2.06087   0.00344   0.00000   0.00972   0.00972   2.07059
    R9        2.06198   0.00755   0.00000   0.02134   0.02134   2.08332
   R10        2.68605  -0.00858   0.00000  -0.01998  -0.01998   2.66607
   R11        2.06164   0.00699   0.00000   0.01976   0.01976   2.08140
   R12        2.06098   0.00481   0.00000   0.01357   0.01357   2.07455
   R13        2.05987   0.00153   0.00000   0.00432   0.00432   2.06419
    A1        1.93109   0.00008   0.00000  -0.00280  -0.00291   1.92818
    A2        1.95712  -0.00396   0.00000  -0.02695  -0.02706   1.93007
    A3        1.87277   0.00140   0.00000   0.00228   0.00207   1.87484
    A4        1.95766  -0.00533   0.00000  -0.02354  -0.02376   1.93390
    A5        1.90557  -0.00013   0.00000  -0.01527  -0.01642   1.88915
    A6        1.91117   0.01073   0.00000   0.10454   0.10465   2.01583
    A7        1.92915   0.00114   0.00000  -0.02207  -0.02304   1.90611
    A8        1.90100  -0.00570   0.00000  -0.04060  -0.04059   1.86040
    A9        1.85650  -0.00031   0.00000  -0.00018  -0.00152   1.85498
   A10        2.01120  -0.00132   0.00000  -0.01160  -0.01180   1.99941
   A11        1.90444   0.00231   0.00000   0.00639   0.00595   1.91039
   A12        1.91880  -0.00400   0.00000  -0.01839  -0.01834   1.90046
   A13        1.86455  -0.00346   0.00000  -0.04194  -0.04212   1.82242
   A14        1.90919   0.00437   0.00000   0.03561   0.03572   1.94491
   A15        1.84798   0.00247   0.00000   0.03334   0.03360   1.88158
   A16        2.01637  -0.01098   0.00000  -0.04274  -0.04274   1.97363
   A17        1.94821   0.00084   0.00000   0.00574   0.00561   1.95381
   A18        1.94956   0.00136   0.00000   0.00959   0.00950   1.95906
   A19        1.90740  -0.00911   0.00000  -0.05667  -0.05678   1.85062
   A20        1.90098   0.00019   0.00000   0.00484   0.00473   1.90571
   A21        1.88101   0.00330   0.00000   0.01705   0.01689   1.89789
   A22        1.87397   0.00362   0.00000   0.02044   0.02038   1.89435
    D1        0.67348   0.00025   0.00000   0.04147   0.04122   0.71470
    D2        2.81792  -0.00200   0.00000  -0.01345  -0.01360   2.80432
    D3       -1.43913   0.00358   0.00000   0.03633   0.03657  -1.40257
    D4        2.76365  -0.00056   0.00000   0.02448   0.02434   2.78799
    D5       -1.37509  -0.00280   0.00000  -0.03044  -0.03048  -1.40557
    D6        0.65104   0.00277   0.00000   0.01934   0.01969   0.67073
    D7        0.97702  -0.00531   0.00000  -0.12827  -0.12800   0.84902
    D8       -1.11982  -0.00167   0.00000  -0.07091  -0.07068  -1.19050
    D9       -3.13935  -0.00371   0.00000  -0.10434  -0.10407   3.03977
   D10       -1.15405  -0.00225   0.00000  -0.07642  -0.07637  -1.23042
   D11        3.03230   0.00140   0.00000  -0.01906  -0.01905   3.01325
   D12        1.01277  -0.00065   0.00000  -0.05248  -0.05243   0.96033
   D13        3.09548   0.00083   0.00000  -0.03969  -0.03997   3.05551
   D14        0.99865   0.00447   0.00000   0.01767   0.01735   1.01599
   D15       -1.02088   0.00243   0.00000  -0.01575  -0.01604  -1.03692
   D16        1.06646  -0.00119   0.00000  -0.01163  -0.01201   1.05445
   D17       -3.09814  -0.00163   0.00000  -0.04180  -0.04126  -3.13941
   D18       -1.10539   0.00159   0.00000  -0.00730  -0.00746  -1.11286
   D19        0.96788   0.00069   0.00000  -0.00699  -0.00704   0.96084
   D20       -1.16521  -0.00115   0.00000  -0.02428  -0.02431  -1.18952
   D21        3.04688  -0.00060   0.00000  -0.01900  -0.01892   3.02796
         Item               Value     Threshold  Converged?
 Maximum Force            0.013616     0.000450     NO 
 RMS     Force            0.004731     0.000300     NO 
 Maximum Displacement     0.244251     0.001800     NO 
 RMS     Displacement     0.090411     0.001200     NO 
 Predicted change in Energy=-3.668152D-03
 GradGradGradGradGradGradGradGradGradGradGradGradGradGradGradGradGradGrad

                          Input orientation:                          
 ---------------------------------------------------------------------
 Center     Atomic      Atomic             Coordinates (Angstroms)
 Number     Number       Type             X           Y           Z
 ---------------------------------------------------------------------
      1          7           0       -0.492992   -1.100349   -1.846063
      2          6           0        0.815484   -0.897363   -1.219312
      3          6           0        0.852400    0.423081   -0.458488
      4          8           0       -0.247870    0.635995    0.401883
      5          6           0       -0.362421   -0.347398    1.406988
      6          1           0       -0.834519   -0.231050   -2.245060
      7          1           0       -0.426277   -1.775006   -2.600238
      8          1           0        0.992338   -1.722614   -0.518797
      9          1           0        1.676573   -0.887541   -1.909649
     10          1           0        0.807688    1.255448   -1.169645
     11          1           0        1.808783    0.495123    0.085139
     12          1           0        0.563404   -0.444004    1.995768
     13          1           0       -0.634413   -1.329421    0.998548
     14          1           0       -1.164978   -0.011601    2.067525
 ---------------------------------------------------------------------
                    Distance matrix (angstroms):
                    1          2          3          4          5
     1  N    0.000000
     2  C    1.464968   0.000000
     3  C    2.460952   1.524397   0.000000
     4  O    2.851006   2.471878   1.412857   0.000000
     5  C    3.341605   2.930422   2.355723   1.410822   0.000000
     6  H    1.015638   2.053934   2.542720   2.846442   3.684273
     7  H    1.014097   2.054066   3.324710   3.854541   4.254410
     8  H    2.086877   1.096831   2.151099   2.819362   2.726764
     9  H    2.180905   1.103692   2.121994   3.371620   3.930564
    10  H    2.774723   2.153398   1.095710   1.991890   3.252278
    11  H    3.401947   2.151105   1.102446   2.085664   2.677920
    12  H    4.038122   3.256657   2.618917   2.089266   1.101429
    13  H    2.857321   2.684730   2.721182   2.090044   1.097804
    14  H    4.117415   3.938287   3.261825   2.008689   1.092321
                    6          7          8          9         10
     6  H    0.000000
     7  H    1.636036   0.000000
     8  H    2.922697   2.519446   0.000000
     9  H    2.617073   2.384636   1.760680   0.000000
    10  H    2.462324   3.571123   3.053941   2.427956   0.000000
    11  H    3.597805   4.166561   2.439197   2.430723   1.776167
    12  H    4.470365   4.886134   2.853396   4.085114   3.601063
    13  H    3.430372   3.632234   2.259038   3.740791   3.669096
    14  H    4.330791   5.044134   3.777650   4.965843   3.997011
                   11         12         13         14
    11  H    0.000000
    12  H    2.466462   0.000000
    13  H    3.183156   1.792533   0.000000
    14  H    3.609693   1.783094   1.777881   0.000000
 Stoichiometry    C3H9NO
 Framework group  C1[X(C3H9NO)]
 Deg. of freedom    36
 Full point group                 C1      NOp   1
 Largest Abelian subgroup         C1      NOp   1
 Largest concise Abelian subgroup C1      NOp   1
                         Standard orientation:                         
 ---------------------------------------------------------------------
 Center     Atomic      Atomic             Coordinates (Angstroms)
 Number     Number       Type             X           Y           Z
 ---------------------------------------------------------------------
      1          7           0        1.606025   -0.776891   -0.310755
      2          6           0        1.094995    0.269374    0.578238
      3          6           0       -0.057732    1.021339   -0.077167
      4          8           0       -1.054605    0.193170   -0.639790
      5          6           0       -1.675199   -0.647406    0.308215
      6          1           0        1.648406   -0.440274   -1.268050
      7          1           0        2.546058   -1.045713   -0.041559
      8          1           0        0.737788   -0.207053    1.499357
      9          1           0        1.831534    1.030348    0.888986
     10          1           0        0.321510    1.605098   -0.923323
     11          1           0       -0.485471    1.726631    0.654264
     12          1           0       -2.091617   -0.077347    1.153659
     13          1           0       -0.991873   -1.415750    0.692773
     14          1           0       -2.494045   -1.142914   -0.218217
 ---------------------------------------------------------------------
 Rotational constants (GHZ):           8.4815880           3.4108022           3.0427426
 Standard basis: 6-31G(d,p) (6D, 7F)
 There are   120 symmetry adapted cartesian basis functions of A   symmetry.
 There are   120 symmetry adapted basis functions of A   symmetry.
   120 basis functions,   203 primitive gaussians,   120 cartesian basis functions
    21 alpha electrons       21 beta electrons
       nuclear repulsion energy       196.7976283921 Hartrees.
 NAtoms=   14 NActive=   14 NUniq=   14 SFac= 1.00D+00 NAtFMM=   60 NAOKFM=F Big=F
 Integral buffers will be    131072 words long.
 Raffenetti 2 integral format.
 Two-electron integral symmetry is turned on.
 Nuclear repulsion after empirical dispersion term =      196.7820779759 Hartrees.
 One-electron integrals computed using PRISM.
 NBasis=   120 RedAO= T EigKep=  4.59D-03  NBF=   120
 NBsUse=   120 1.00D-06 EigRej= -1.00D+00 NBFU=   120
 Initial guess from the checkpoint file:  "N1_conf-7.chk"
 B after Tr=    -0.000000    0.000000    0.000000
         Rot=    0.999532    0.029861   -0.006656   -0.000364 Ang=   3.51 deg.
 ExpMin= 1.61D-01 ExpMax= 5.48D+03 ExpMxC= 8.25D+02 IAcc=3 IRadAn=         5 AccDes= 0.00D+00
 Harris functional with IExCor=  402 and IRadAn=       5 diagonalized for initial guess.
 HarFok:  IExCor=  402 AccDes= 0.00D+00 IRadAn=         5 IDoV= 1 UseB2=F ITyADJ=14
 ICtDFT=  3500011 ScaDFX=  1.000000  1.000000  1.000000  1.000000
 FoFCou: FMM=F IPFlag=           0 FMFlag=      100000 FMFlg1=           0
         NFxFlg=           0 DoJE=T BraDBF=F KetDBF=T FulRan=T
         wScrn=  0.000000 ICntrl=       500 IOpCl=  0 I1Cent=   200000004 NGrid=           0
         NMat0=    1 NMatS0=      1 NMatT0=    0 NMatD0=    1 NMtDS0=    0 NMtDT0=    0
 Petite list used in FoFCou.
 Requested convergence on RMS density matrix=1.00D-08 within 128 cycles.
 Requested convergence on MAX density matrix=1.00D-06.
 Requested convergence on             energy=1.00D-06.
 No special actions if energy rises.
 Integral accuracy reduced to 1.0D-05 until final iterations.
 Initial convergence to 1.0D-05 achieved.  Increase integral accuracy.
 SCF Done:  E(RB3LYP) =  -249.710129781     A.U. after   11 cycles
            NFock= 11  Conv=0.46D-08     -V/T= 2.0092
 Calling FoFJK, ICntrl=      2127 FMM=F ISym2X=0 I1Cent= 0 IOpClX= 0 NMat=1 NMatS=1 NMatT=0.
 ***** Axes restored to original set *****
 -------------------------------------------------------------------
 Center     Atomic                   Forces (Hartrees/Bohr)
 Number     Number              X              Y              Z
 -------------------------------------------------------------------
      1        7           0.001859769   -0.000842929    0.002124104
      2        6          -0.002015322   -0.000804686   -0.000129728
      3        6          -0.001879856    0.003003260   -0.001849256
      4        8           0.002593841   -0.000509329   -0.000137530
      5        6          -0.003960807    0.000301917    0.002675403
      6        1           0.000581937    0.000608352   -0.000803758
      7        1          -0.000132111   -0.000813402   -0.000889846
      8        1           0.000988534   -0.001100002   -0.000896719
      9        1          -0.000467313    0.000126759   -0.001357437
     10        1           0.001530537    0.000531140   -0.000849223
     11        1           0.000241664   -0.000003004    0.001152544
     12        1           0.000438644   -0.000063828   -0.000121719
     13        1           0.000128803    0.000530600   -0.000159576
     14        1           0.000091679   -0.000964848    0.001242741
 -------------------------------------------------------------------
 Cartesian Forces:  Max     0.003960807 RMS     0.001336027

 GradGradGradGradGradGradGradGradGradGradGradGradGradGradGradGradGradGrad
 Berny optimization.
 Using GEDIIS/GDIIS optimizer.
 FormGI is forming the generalized inverse of G from B-inverse, IUseBI=4.
 Internal  Forces:  Max     0.006570428 RMS     0.001426996
 Search for a local minimum.
 Step number   2 out of a maximum of   66
 All quantities printed in internal units (Hartrees-Bohrs-Radians)
 Mixed Optimization -- RFO/linear search
 Update second derivatives using D2CorX and points    1    2
 DE= -2.95D-03 DEPred=-3.67D-03 R= 8.05D-01
 TightC=F SS=  1.41D+00  RLast= 2.86D-01 DXNew= 5.0454D-01 8.5940D-01
 Trust test= 8.05D-01 RLast= 2.86D-01 DXMaxT set to 5.05D-01
 ITU=  1  0
 Use linear search instead of GDIIS.
     Eigenvalues ---    0.00229   0.00907   0.01330   0.01404   0.04229
     Eigenvalues ---    0.04321   0.04575   0.05565   0.05864   0.09257
     Eigenvalues ---    0.09988   0.10601   0.11843   0.12441   0.14119
     Eigenvalues ---    0.15930   0.16000   0.16000   0.16000   0.16476
     Eigenvalues ---    0.21866   0.22288   0.26179   0.29704   0.33773
     Eigenvalues ---    0.34636   0.34669   0.34695   0.34735   0.34794
     Eigenvalues ---    0.34824   0.37372   0.41685   0.43552   0.45576
     Eigenvalues ---    0.45860
 RFO step:  Lambda=-8.11630340D-04 EMin= 2.29052304D-03
 Quartic linear search produced a step of -0.12430.
 Iteration  1 RMS(Cart)=  0.08385807 RMS(Int)=  0.00286932
 Iteration  2 RMS(Cart)=  0.00377898 RMS(Int)=  0.00003448
 Iteration  3 RMS(Cart)=  0.00000550 RMS(Int)=  0.00003421
 Iteration  4 RMS(Cart)=  0.00000000 RMS(Int)=  0.00003421
 Variable       Old X    -DE/DX   Delta X   Delta X   Delta X     New X
                                 (Linear)    (Quad)   (Total)
    R1        2.76839  -0.00210  -0.00139  -0.00296  -0.00436   2.76403
    R2        1.91928   0.00064  -0.00087   0.00243   0.00156   1.92084
    R3        1.91637   0.00119  -0.00086   0.00345   0.00259   1.91896
    R4        2.88069   0.00340   0.00597   0.00226   0.00823   2.88892
    R5        2.07271   0.00041  -0.00131   0.00286   0.00156   2.07427
    R6        2.08568   0.00049  -0.00281   0.00514   0.00234   2.08801
    R7        2.66991   0.00258   0.00336   0.00070   0.00406   2.67398
    R8        2.07059   0.00089  -0.00121   0.00392   0.00271   2.07330
    R9        2.08332   0.00078  -0.00265   0.00565   0.00300   2.08632
   R10        2.66607   0.00300   0.00248   0.00268   0.00517   2.67123
   R11        2.08140   0.00031  -0.00246   0.00421   0.00175   2.08315
   R12        2.07455  -0.00045  -0.00169   0.00124  -0.00044   2.07411
   R13        2.06419   0.00039  -0.00054   0.00171   0.00118   2.06537
    A1        1.92818  -0.00101   0.00036  -0.00776  -0.00741   1.92077
    A2        1.93007   0.00037   0.00336  -0.00460  -0.00124   1.92883
    A3        1.87484  -0.00003  -0.00026  -0.00339  -0.00366   1.87118
    A4        1.93390   0.00161   0.00295   0.00313   0.00609   1.93999
    A5        1.88915  -0.00066   0.00204  -0.00377  -0.00164   1.88751
    A6        2.01583  -0.00122  -0.01301   0.00772  -0.00530   2.01053
    A7        1.90611   0.00046   0.00286   0.00459   0.00756   1.91367
    A8        1.86040  -0.00014   0.00505  -0.00780  -0.00274   1.85766
    A9        1.85498  -0.00002   0.00019  -0.00398  -0.00363   1.85135
   A10        1.99941   0.00299   0.00147   0.01093   0.01240   2.01181
   A11        1.91039  -0.00080  -0.00074   0.00030  -0.00045   1.90994
   A12        1.90046  -0.00064   0.00228  -0.00846  -0.00617   1.89429
   A13        1.82242  -0.00015   0.00524  -0.00053   0.00468   1.82710
   A14        1.94491  -0.00155  -0.00444  -0.00329  -0.00771   1.93719
   A15        1.88158   0.00003  -0.00418   0.00112  -0.00309   1.87849
   A16        1.97363   0.00657   0.00531   0.01526   0.02057   1.99420
   A17        1.95381  -0.00071  -0.00070  -0.00360  -0.00430   1.94951
   A18        1.95906  -0.00091  -0.00118  -0.00389  -0.00507   1.95398
   A19        1.85062   0.00264   0.00706   0.00546   0.01254   1.86316
   A20        1.90571  -0.00004  -0.00059  -0.00169  -0.00229   1.90341
   A21        1.89789  -0.00056  -0.00210   0.00117  -0.00091   1.89698
   A22        1.89435  -0.00036  -0.00253   0.00313   0.00060   1.89496
    D1        0.71470   0.00018  -0.00512   0.03031   0.02521   0.73991
    D2        2.80432   0.00128   0.00169   0.03544   0.03713   2.84145
    D3       -1.40257  -0.00000  -0.00455   0.03254   0.02796  -1.37460
    D4        2.78799  -0.00027  -0.00303   0.01827   0.01527   2.80326
    D5       -1.40557   0.00084   0.00379   0.02339   0.02719  -1.37838
    D6        0.67073  -0.00045  -0.00245   0.02050   0.01802   0.68875
    D7        0.84902   0.00046   0.01591  -0.13604  -0.12014   0.72888
    D8       -1.19050  -0.00068   0.00879  -0.14244  -0.13367  -1.32417
    D9        3.03977   0.00011   0.01294  -0.13907  -0.12616   2.91361
   D10       -1.23042   0.00000   0.00949  -0.13619  -0.12671  -1.35713
   D11        3.01325  -0.00114   0.00237  -0.14259  -0.14024   2.87301
   D12        0.96033  -0.00035   0.00652  -0.13922  -0.13273   0.82760
   D13        3.05551  -0.00012   0.00497  -0.12974  -0.12472   2.93079
   D14        1.01599  -0.00126  -0.00216  -0.13613  -0.13825   0.87774
   D15       -1.03692  -0.00048   0.00199  -0.13277  -0.13074  -1.16767
   D16        1.05445  -0.00030   0.00149  -0.02000  -0.01850   1.03596
   D17       -3.13941   0.00028   0.00513  -0.01390  -0.00880   3.13498
   D18       -1.11286  -0.00051   0.00093  -0.01446  -0.01351  -1.12637
   D19        0.96084  -0.00095   0.00088  -0.02767  -0.02677   0.93406
   D20       -1.18952   0.00031   0.00302  -0.01983  -0.01682  -1.20634
   D21        3.02796  -0.00039   0.00235  -0.02488  -0.02253   3.00542
         Item               Value     Threshold  Converged?
 Maximum Force            0.006570     0.000450     NO 
 RMS     Force            0.001427     0.000300     NO 
 Maximum Displacement     0.261972     0.001800     NO 
 RMS     Displacement     0.084100     0.001200     NO 
 Predicted change in Energy=-5.124881D-04
 GradGradGradGradGradGradGradGradGradGradGradGradGradGradGradGradGradGrad

                          Input orientation:                          
 ---------------------------------------------------------------------
 Center     Atomic      Atomic             Coordinates (Angstroms)
 Number     Number       Type             X           Y           Z
 ---------------------------------------------------------------------
      1          7           0       -0.490226   -1.143434   -1.765779
      2          6           0        0.850283   -0.880698   -1.242912
      3          6           0        0.888040    0.428378   -0.454257
      4          8           0       -0.220958    0.654010    0.395131
      5          6           0       -0.407719   -0.339833    1.382823
      6          1           0       -0.893705   -0.287301   -2.136504
      7          1           0       -0.449715   -1.811699   -2.529295
      8          1           0        1.130968   -1.714888   -0.587026
      9          1           0        1.646907   -0.809488   -2.005266
     10          1           0        0.880873    1.275120   -1.151894
     11          1           0        1.834861    0.469736    0.112054
     12          1           0        0.507558   -0.502832    1.975183
     13          1           0       -0.728141   -1.295334    0.948076
     14          1           0       -1.195824    0.021562    2.048266
 ---------------------------------------------------------------------
                    Distance matrix (angstroms):
                    1          2          3          4          5
     1  N    0.000000
     2  C    1.462663   0.000000
     3  C    2.467852   1.528751   0.000000
     4  O    2.823622   2.487181   1.415007   0.000000
     5  C    3.250581   2.961349   2.375711   1.413556   0.000000
     6  H    1.016463   2.047467   2.552796   2.783493   3.553112
     7  H    1.015468   2.052204   3.333664   3.832013   4.180051
     8  H    2.084296   1.097654   2.161071   2.898968   2.852830
     9  H    2.176284   1.104928   2.124575   3.375301   3.990140
    10  H    2.847133   2.157955   1.097142   1.998273   3.270066
    11  H    3.396263   2.151511   1.104034   2.083382   2.701744
    12  H    3.924377   3.258278   2.629467   2.089398   1.102357
    13  H    2.728495   2.731991   2.747683   2.088762   1.097569
    14  H    4.049941   3.979004   3.281860   2.020695   1.092945
                    6          7          8          9         10
     6  H    0.000000
     7  H    1.635604   0.000000
     8  H    2.922018   2.506061   0.000000
     9  H    2.597040   2.382196   1.759929   0.000000
    10  H    2.561199   3.632650   3.053158   2.379211   0.000000
    11  H    3.615826   4.171446   2.399325   2.480885   1.776599
    12  H    4.349249   4.787465   2.902177   4.151642   3.616502
    13  H    3.249335   3.526509   2.447213   3.820881   3.688636
    14  H    4.207014   4.987142   3.920966   5.020247   4.015607
                   11         12         13         14
    11  H    0.000000
    12  H    2.485734   0.000000
    13  H    3.222326   1.791636   0.000000
    14  H    3.624200   1.783771   1.778583   0.000000
 Stoichiometry    C3H9NO
 Framework group  C1[X(C3H9NO)]
 Deg. of freedom    36
 Full point group                 C1      NOp   1
 Largest Abelian subgroup         C1      NOp   1
 Largest concise Abelian subgroup C1      NOp   1
                         Standard orientation:                         
 ---------------------------------------------------------------------
 Center     Atomic      Atomic             Coordinates (Angstroms)
 Number     Number       Type             X           Y           Z
 ---------------------------------------------------------------------
      1          7           0        1.535588   -0.835367   -0.287719
      2          6           0        1.138109    0.307147    0.534506
      3          6           0       -0.049869    1.044753   -0.083335
      4          8           0       -1.064465    0.215367   -0.617152
      5          6           0       -1.652371   -0.661387    0.322959
      6          1           0        1.522008   -0.578563   -1.271113
      7          1           0        2.484160   -1.121274   -0.064908
      8          1           0        0.863499   -0.066675    1.529338
      9          1           0        1.925336    1.064837    0.698958
     10          1           0        0.295573    1.644575   -0.934572
     11          1           0       -0.461990    1.739078    0.669632
     12          1           0       -2.020562   -0.120400    1.210065
     13          1           0       -0.954906   -1.445231    0.645123
     14          1           0       -2.501725   -1.134791   -0.176056
 ---------------------------------------------------------------------
 Rotational constants (GHZ):           8.2195542           3.5118315           3.0417092
 Standard basis: 6-31G(d,p) (6D, 7F)
 There are   120 symmetry adapted cartesian basis functions of A   symmetry.
 There are   120 symmetry adapted basis functions of A   symmetry.
   120 basis functions,   203 primitive gaussians,   120 cartesian basis functions
    21 alpha electrons       21 beta electrons
       nuclear repulsion energy       196.7006812086 Hartrees.
 NAtoms=   14 NActive=   14 NUniq=   14 SFac= 1.00D+00 NAtFMM=   60 NAOKFM=F Big=F
 Integral buffers will be    131072 words long.
 Raffenetti 2 integral format.
 Two-electron integral symmetry is turned on.
 Nuclear repulsion after empirical dispersion term =      196.6851299376 Hartrees.
 One-electron integrals computed using PRISM.
 NBasis=   120 RedAO= T EigKep=  4.48D-03  NBF=   120
 NBsUse=   120 1.00D-06 EigRej= -1.00D+00 NBFU=   120
 Initial guess from the checkpoint file:  "N1_conf-7.chk"
 B after Tr=    -0.000000    0.000000   -0.000000
         Rot=    0.999871    0.010496   -0.010767    0.005694 Ang=   1.84 deg.
 ExpMin= 1.61D-01 ExpMax= 5.48D+03 ExpMxC= 8.25D+02 IAcc=3 IRadAn=         5 AccDes= 0.00D+00
 Harris functional with IExCor=  402 and IRadAn=       5 diagonalized for initial guess.
 HarFok:  IExCor=  402 AccDes= 0.00D+00 IRadAn=         5 IDoV= 1 UseB2=F ITyADJ=14
 ICtDFT=  3500011 ScaDFX=  1.000000  1.000000  1.000000  1.000000
 FoFCou: FMM=F IPFlag=           0 FMFlag=      100000 FMFlg1=           0
         NFxFlg=           0 DoJE=T BraDBF=F KetDBF=T FulRan=T
         wScrn=  0.000000 ICntrl=       500 IOpCl=  0 I1Cent=   200000004 NGrid=           0
         NMat0=    1 NMatS0=      1 NMatT0=    0 NMatD0=    1 NMtDS0=    0 NMtDT0=    0
 Petite list used in FoFCou.
 Requested convergence on RMS density matrix=1.00D-08 within 128 cycles.
 Requested convergence on MAX density matrix=1.00D-06.
 Requested convergence on             energy=1.00D-06.
 No special actions if energy rises.
 Integral accuracy reduced to 1.0D-05 until final iterations.
 Initial convergence to 1.0D-05 achieved.  Increase integral accuracy.
 SCF Done:  E(RB3LYP) =  -249.710442928     A.U. after   11 cycles
            NFock= 11  Conv=0.22D-08     -V/T= 2.0093
 Calling FoFJK, ICntrl=      2127 FMM=F ISym2X=0 I1Cent= 0 IOpClX= 0 NMat=1 NMatS=1 NMatT=0.
 ***** Axes restored to original set *****
 -------------------------------------------------------------------
 Center     Atomic                   Forces (Hartrees/Bohr)
 Number     Number              X              Y              Z
 -------------------------------------------------------------------
      1        7           0.000370124    0.000624848   -0.000217454
      2        6          -0.000516982   -0.002206954    0.001150901
      3        6          -0.000741824    0.002448761    0.000907208
      4        8           0.000708426    0.000060947   -0.001500738
      5        6           0.000148311   -0.001432286    0.000817437
      6        1          -0.000014881    0.000092651   -0.000478316
      7        1          -0.000002205   -0.000292451   -0.000093026
      8        1          -0.000047357   -0.000399369   -0.000199827
      9        1          -0.000409767    0.000071297   -0.000287571
     10        1           0.000045270   -0.000148251    0.000521435
     11        1          -0.000161833    0.000224320   -0.000053884
     12        1          -0.000228016    0.000238039    0.000048149
     13        1           0.000442107    0.000486872   -0.000703634
     14        1           0.000408627    0.000231576    0.000089320
 -------------------------------------------------------------------
 Cartesian Forces:  Max     0.002448761 RMS     0.000729286

 GradGradGradGradGradGradGradGradGradGradGradGradGradGradGradGradGradGrad
 Berny optimization.
 Using GEDIIS/GDIIS optimizer.
 FormGI is forming the generalized inverse of G from B-inverse, IUseBI=4.
 Internal  Forces:  Max     0.002642929 RMS     0.000652502
 Search for a local minimum.
 Step number   3 out of a maximum of   66
 All quantities printed in internal units (Hartrees-Bohrs-Radians)
 Mixed Optimization -- En-DIIS/RFO-DIIS
 Update second derivatives using D2CorX and points    2    3
 DE= -3.13D-04 DEPred=-5.12D-04 R= 6.11D-01
 TightC=F SS=  1.41D+00  RLast= 4.01D-01 DXNew= 8.4853D-01 1.2031D+00
 Trust test= 6.11D-01 RLast= 4.01D-01 DXMaxT set to 8.49D-01
 ITU=  1  1  0
 Use linear search instead of GDIIS.
     Eigenvalues ---    0.00369   0.00858   0.01328   0.01417   0.04219
     Eigenvalues ---    0.04283   0.04428   0.05530   0.05852   0.09216
     Eigenvalues ---    0.09887   0.10542   0.11917   0.12522   0.14152
     Eigenvalues ---    0.15786   0.15983   0.16000   0.16000   0.16315
     Eigenvalues ---    0.21896   0.22545   0.27328   0.29207   0.33763
     Eigenvalues ---    0.34635   0.34672   0.34692   0.34731   0.34792
     Eigenvalues ---    0.34834   0.37110   0.41964   0.44090   0.45484
     Eigenvalues ---    0.45798
 RFO step:  Lambda=-1.28163923D-04 EMin= 3.68586977D-03
 Quartic linear search produced a step of -0.23615.
 Iteration  1 RMS(Cart)=  0.03276502 RMS(Int)=  0.00050000
 Iteration  2 RMS(Cart)=  0.00064733 RMS(Int)=  0.00000753
 Iteration  3 RMS(Cart)=  0.00000024 RMS(Int)=  0.00000753
 Variable       Old X    -DE/DX   Delta X   Delta X   Delta X     New X
                                 (Linear)    (Quad)   (Total)
    R1        2.76403  -0.00012   0.00103  -0.00193  -0.00091   2.76313
    R2        1.92084   0.00026  -0.00037   0.00097   0.00060   1.92143
    R3        1.91896   0.00026  -0.00061   0.00136   0.00074   1.91970
    R4        2.88892   0.00188  -0.00194   0.00857   0.00662   2.89555
    R5        2.07427   0.00017  -0.00037   0.00089   0.00052   2.07479
    R6        2.08801  -0.00009  -0.00055   0.00052  -0.00003   2.08798
    R7        2.67398  -0.00198  -0.00096  -0.00197  -0.00293   2.67105
    R8        2.07330  -0.00045  -0.00064  -0.00004  -0.00067   2.07262
    R9        2.08632  -0.00016  -0.00071   0.00063  -0.00008   2.08624
   R10        2.67123   0.00041  -0.00122   0.00280   0.00158   2.67281
   R11        2.08315  -0.00020  -0.00041   0.00009  -0.00032   2.08283
   R12        2.07411  -0.00027   0.00010  -0.00085  -0.00075   2.07336
   R13        2.06537  -0.00016  -0.00028   0.00005  -0.00023   2.06514
    A1        1.92077   0.00011   0.00175  -0.00252  -0.00077   1.92001
    A2        1.92883  -0.00006   0.00029  -0.00091  -0.00061   1.92822
    A3        1.87118  -0.00010   0.00086  -0.00252  -0.00165   1.86954
    A4        1.93999   0.00016  -0.00144   0.00279   0.00134   1.94134
    A5        1.88751   0.00010   0.00039   0.00240   0.00279   1.89030
    A6        2.01053  -0.00067   0.00125  -0.00972  -0.00847   2.00206
    A7        1.91367   0.00021  -0.00179   0.00710   0.00531   1.91898
    A8        1.85766   0.00016   0.00065  -0.00150  -0.00087   1.85679
    A9        1.85135   0.00006   0.00086  -0.00050   0.00036   1.85171
   A10        2.01181  -0.00162  -0.00293  -0.00127  -0.00421   2.00760
   A11        1.90994   0.00071   0.00011   0.00486   0.00498   1.91492
   A12        1.89429   0.00054   0.00146  -0.00160  -0.00016   1.89412
   A13        1.82710   0.00058  -0.00111   0.00591   0.00482   1.83192
   A14        1.93719   0.00018   0.00182  -0.00601  -0.00421   1.93299
   A15        1.87849  -0.00033   0.00073  -0.00148  -0.00075   1.87774
   A16        1.99420  -0.00264  -0.00486  -0.00016  -0.00502   1.98918
   A17        1.94951   0.00008   0.00102  -0.00160  -0.00058   1.94893
   A18        1.95398  -0.00117   0.00120  -0.00746  -0.00626   1.94772
   A19        1.86316   0.00010  -0.00296   0.00574   0.00278   1.86593
   A20        1.90341   0.00040   0.00054   0.00057   0.00111   1.90452
   A21        1.89698  -0.00018   0.00022  -0.00145  -0.00124   1.89574
   A22        1.89496   0.00081  -0.00014   0.00462   0.00448   1.89944
    D1        0.73991   0.00002  -0.00595   0.01990   0.01395   0.75386
    D2        2.84145   0.00045  -0.00877   0.03189   0.02313   2.86457
    D3       -1.37460   0.00018  -0.00660   0.02686   0.02025  -1.35435
    D4        2.80326  -0.00007  -0.00361   0.01468   0.01107   2.81433
    D5       -1.37838   0.00035  -0.00642   0.02666   0.02025  -1.35814
    D6        0.68875   0.00008  -0.00426   0.02164   0.01737   0.70612
    D7        0.72888   0.00079   0.02837   0.02662   0.05499   0.78386
    D8       -1.32417   0.00058   0.03157   0.01639   0.04796  -1.27621
    D9        2.91361   0.00027   0.02979   0.01637   0.04617   2.95977
   D10       -1.35713   0.00042   0.02992   0.01728   0.04720  -1.30993
   D11        2.87301   0.00021   0.03312   0.00705   0.04017   2.91318
   D12        0.82760  -0.00010   0.03135   0.00703   0.03838   0.86597
   D13        2.93079   0.00016   0.02945   0.01521   0.04465   2.97545
   D14        0.87774  -0.00005   0.03265   0.00498   0.03763   0.91537
   D15       -1.16767  -0.00035   0.03087   0.00496   0.03583  -1.13183
   D16        1.03596  -0.00023   0.00437  -0.01040  -0.00601   1.02995
   D17        3.13498   0.00012   0.00208  -0.00094   0.00113   3.13611
   D18       -1.12637   0.00014   0.00319  -0.00228   0.00090  -1.12547
   D19        0.93406   0.00006   0.00632  -0.00445   0.00187   0.93593
   D20       -1.20634   0.00033   0.00397   0.00143   0.00540  -1.20094
   D21        3.00542  -0.00005   0.00532  -0.00357   0.00176   3.00718
         Item               Value     Threshold  Converged?
 Maximum Force            0.002643     0.000450     NO 
 RMS     Force            0.000653     0.000300     NO 
 Maximum Displacement     0.125845     0.001800     NO 
 RMS     Displacement     0.032727     0.001200     NO 
 Predicted change in Energy=-9.469304D-05
 GradGradGradGradGradGradGradGradGradGradGradGradGradGradGradGradGradGrad

                          Input orientation:                          
 ---------------------------------------------------------------------
 Center     Atomic      Atomic             Coordinates (Angstroms)
 Number     Number       Type             X           Y           Z
 ---------------------------------------------------------------------
      1          7           0       -0.492906   -1.128526   -1.797553
      2          6           0        0.833326   -0.886273   -1.231512
      3          6           0        0.872221    0.433627   -0.454233
      4          8           0       -0.228190    0.654219    0.405006
      5          6           0       -0.392582   -0.341964    1.395512
      6          1           0       -0.859944   -0.271405   -2.203099
      7          1           0       -0.440418   -1.814412   -2.545070
      8          1           0        1.081094   -1.721746   -0.563646
      9          1           0        1.650041   -0.834998   -1.973926
     10          1           0        0.857241    1.276677   -1.155646
     11          1           0        1.822122    0.482809    0.106185
     12          1           0        0.531414   -0.494240    1.976767
     13          1           0       -0.703845   -1.298841    0.958141
     14          1           0       -1.176375    0.008372    2.071674
 ---------------------------------------------------------------------
                    Distance matrix (angstroms):
                    1          2          3          4          5
     1  N    0.000000
     2  C    1.462184   0.000000
     3  C    2.471518   1.532256   0.000000
     4  O    2.845966   2.485584   1.413457   0.000000
     5  C    3.290047   2.949640   2.371250   1.414392   0.000000
     6  H    1.016779   2.046755   2.560468   2.838680   3.629518
     7  H    1.015863   2.051659   3.338907   3.852549   4.206968
     8  H    2.086124   1.097930   2.168232   2.880577   2.813151
     9  H    2.170136   1.104912   2.126941   3.377105   3.970958
    10  H    2.831951   2.164412   1.096785   2.000313   3.269627
    11  H    3.402936   2.154422   1.103992   2.079052   2.692123
    12  H    3.961949   3.246212   2.624280   2.089590   1.102186
    13  H    2.768999   2.706971   2.735001   2.084862   1.097174
    14  H    4.090304   3.968669   3.279909   2.023353   1.092823
                    6          7          8          9         10
     6  H    0.000000
     7  H    1.635181   0.000000
     8  H    2.925564   2.499926   0.000000
     9  H    2.582670   2.378125   1.760373   0.000000
    10  H    2.538197   3.628947   3.064493   2.399434   0.000000
    11  H    3.618716   4.174382   2.420301   2.468417   1.775792
    12  H    4.410987   4.809815   2.874477   4.120123   3.613076
    13  H    3.327676   3.550732   2.383421   3.788529   3.679453
    14  H    4.295589   5.017819   3.877421   5.006674   4.019924
                   11         12         13         14
    11  H    0.000000
    12  H    2.473788   0.000000
    13  H    3.206339   1.791883   0.000000
    14  H    3.616522   1.782742   1.781024   0.000000
 Stoichiometry    C3H9NO
 Framework group  C1[X(C3H9NO)]
 Deg. of freedom    36
 Full point group                 C1      NOp   1
 Largest Abelian subgroup         C1      NOp   1
 Largest concise Abelian subgroup C1      NOp   1
                         Standard orientation:                         
 ---------------------------------------------------------------------
 Center     Atomic      Atomic             Coordinates (Angstroms)
 Number     Number       Type             X           Y           Z
 ---------------------------------------------------------------------
      1          7           0        1.568916   -0.807769   -0.304431
      2          6           0        1.120582    0.288355    0.553175
      3          6           0       -0.058190    1.038485   -0.075801
      4          8           0       -1.067976    0.214470   -0.622784
      5          6           0       -1.659763   -0.666602    0.312099
      6          1           0        1.601014   -0.500746   -1.273218
      7          1           0        2.509512   -1.095660   -0.050710
      8          1           0        0.822674   -0.132028    1.522700
      9          1           0        1.892100    1.048189    0.772816
     10          1           0        0.296688    1.647227   -0.916297
     11          1           0       -0.479799    1.725201    0.678829
     12          1           0       -2.033447   -0.128406    1.198394
     13          1           0       -0.956961   -1.445121    0.634229
     14          1           0       -2.506156   -1.141459   -0.190289
 ---------------------------------------------------------------------
 Rotational constants (GHZ):           8.3013770           3.4613252           3.0301203
 Standard basis: 6-31G(d,p) (6D, 7F)
 There are   120 symmetry adapted cartesian basis functions of A   symmetry.
 There are   120 symmetry adapted basis functions of A   symmetry.
   120 basis functions,   203 primitive gaussians,   120 cartesian basis functions
    21 alpha electrons       21 beta electrons
       nuclear repulsion energy       196.5132844027 Hartrees.
 NAtoms=   14 NActive=   14 NUniq=   14 SFac= 1.00D+00 NAtFMM=   60 NAOKFM=F Big=F
 Integral buffers will be    131072 words long.
 Raffenetti 2 integral format.
 Two-electron integral symmetry is turned on.
 Nuclear repulsion after empirical dispersion term =      196.4977550244 Hartrees.
 One-electron integrals computed using PRISM.
 NBasis=   120 RedAO= T EigKep=  4.57D-03  NBF=   120
 NBsUse=   120 1.00D-06 EigRej= -1.00D+00 NBFU=   120
 Initial guess from the checkpoint file:  "N1_conf-7.chk"
 B after Tr=     0.000000   -0.000000    0.000000
         Rot=    0.999948   -0.008768    0.003805   -0.003682 Ang=  -1.17 deg.
 ExpMin= 1.61D-01 ExpMax= 5.48D+03 ExpMxC= 8.25D+02 IAcc=3 IRadAn=         5 AccDes= 0.00D+00
 Harris functional with IExCor=  402 and IRadAn=       5 diagonalized for initial guess.
 HarFok:  IExCor=  402 AccDes= 0.00D+00 IRadAn=         5 IDoV= 1 UseB2=F ITyADJ=14
 ICtDFT=  3500011 ScaDFX=  1.000000  1.000000  1.000000  1.000000
 FoFCou: FMM=F IPFlag=           0 FMFlag=      100000 FMFlg1=           0
         NFxFlg=           0 DoJE=T BraDBF=F KetDBF=T FulRan=T
         wScrn=  0.000000 ICntrl=       500 IOpCl=  0 I1Cent=   200000004 NGrid=           0
         NMat0=    1 NMatS0=      1 NMatT0=    0 NMatD0=    1 NMtDS0=    0 NMtDT0=    0
 Petite list used in FoFCou.
 Requested convergence on RMS density matrix=1.00D-08 within 128 cycles.
 Requested convergence on MAX density matrix=1.00D-06.
 Requested convergence on             energy=1.00D-06.
 No special actions if energy rises.
 Integral accuracy reduced to 1.0D-05 until final iterations.
 Initial convergence to 1.0D-05 achieved.  Increase integral accuracy.
 SCF Done:  E(RB3LYP) =  -249.710536227     A.U. after   10 cycles
            NFock= 10  Conv=0.34D-08     -V/T= 2.0093
 Calling FoFJK, ICntrl=      2127 FMM=F ISym2X=0 I1Cent= 0 IOpClX= 0 NMat=1 NMatS=1 NMatT=0.
 ***** Axes restored to original set *****
 -------------------------------------------------------------------
 Center     Atomic                   Forces (Hartrees/Bohr)
 Number     Number              X              Y              Z
 -------------------------------------------------------------------
      1        7          -0.000391699    0.000404441    0.000528129
      2        6           0.000439332    0.000162054   -0.000380091
      3        6          -0.000428956   -0.000650766    0.001116122
      4        8          -0.000216719    0.000547794   -0.000333570
      5        6           0.000269212   -0.000592072   -0.000254468
      6        1           0.000050872   -0.000124912   -0.000382122
      7        1           0.000006568   -0.000112922    0.000180819
      8        1          -0.000099784    0.000284171   -0.000120962
      9        1           0.000211467    0.000208874    0.000089998
     10        1          -0.000118870   -0.000366551    0.000009365
     11        1           0.000227987   -0.000054849   -0.000336879
     12        1          -0.000084335    0.000048887    0.000028434
     13        1          -0.000040585    0.000053854    0.000104895
     14        1           0.000175510    0.000191998   -0.000249670
 -------------------------------------------------------------------
 Cartesian Forces:  Max     0.001116122 RMS     0.000332501

 GradGradGradGradGradGradGradGradGradGradGradGradGradGradGradGradGradGrad
 Berny optimization.
 Using GEDIIS/GDIIS optimizer.
 FormGI is forming the generalized inverse of G from B-inverse, IUseBI=4.
 Internal  Forces:  Max     0.000692281 RMS     0.000228134
 Search for a local minimum.
 Step number   4 out of a maximum of   66
 All quantities printed in internal units (Hartrees-Bohrs-Radians)
 Mixed Optimization -- En-DIIS/RFO-DIIS
 Swapping is turned off.
 Update second derivatives using D2CorX and points    1    2    3    4
 DE= -9.33D-05 DEPred=-9.47D-05 R= 9.85D-01
 TightC=F SS=  1.41D+00  RLast= 1.41D-01 DXNew= 1.4270D+00 4.2281D-01
 Trust test= 9.85D-01 RLast= 1.41D-01 DXMaxT set to 8.49D-01
 ITU=  1  1  1  0
     Eigenvalues ---    0.00366   0.00597   0.01322   0.01414   0.04250
     Eigenvalues ---    0.04326   0.05137   0.05526   0.05855   0.09371
     Eigenvalues ---    0.10224   0.10500   0.12188   0.12390   0.14114
     Eigenvalues ---    0.15896   0.15989   0.16000   0.16068   0.16870
     Eigenvalues ---    0.22067   0.22699   0.28330   0.30012   0.33465
     Eigenvalues ---    0.34632   0.34662   0.34706   0.34786   0.34793
     Eigenvalues ---    0.35055   0.37264   0.41446   0.43757   0.45446
     Eigenvalues ---    0.45829
 En-DIIS/RFO-DIIS/Sim-DIIS IScMMF=       -3 using points:     4    3
 RFO step:  Lambda=-4.19002011D-05.
 DidBck=F Rises=F RFO-DIIS coefs:    1.15967   -0.15967
 Iteration  1 RMS(Cart)=  0.01081773 RMS(Int)=  0.00012227
 Iteration  2 RMS(Cart)=  0.00012572 RMS(Int)=  0.00000143
 Iteration  3 RMS(Cart)=  0.00000002 RMS(Int)=  0.00000143
 Variable       Old X    -DE/DX   Delta X   Delta X   Delta X     New X
                                 (Linear)    (Quad)   (Total)
    R1        2.76313   0.00015  -0.00014  -0.00008  -0.00022   2.76290
    R2        1.92143   0.00003   0.00010   0.00036   0.00046   1.92189
    R3        1.91970  -0.00006   0.00012   0.00030   0.00042   1.92012
    R4        2.89555  -0.00067   0.00106  -0.00097   0.00008   2.89563
    R5        2.07479  -0.00031   0.00008  -0.00058  -0.00049   2.07429
    R6        2.08798   0.00011  -0.00000   0.00071   0.00071   2.08869
    R7        2.67105  -0.00047  -0.00047  -0.00140  -0.00187   2.66918
    R8        2.07262  -0.00029  -0.00011  -0.00058  -0.00068   2.07194
    R9        2.08624   0.00002  -0.00001   0.00052   0.00050   2.08675
   R10        2.67281  -0.00008   0.00025   0.00038   0.00064   2.67345
   R11        2.08283  -0.00006  -0.00005   0.00010   0.00005   2.08288
   R12        2.07336  -0.00008  -0.00012  -0.00026  -0.00038   2.07297
   R13        2.06514  -0.00022  -0.00004  -0.00051  -0.00055   2.06459
    A1        1.92001   0.00019  -0.00012   0.00001  -0.00011   1.91990
    A2        1.92822  -0.00012  -0.00010  -0.00145  -0.00155   1.92667
    A3        1.86954  -0.00009  -0.00026  -0.00169  -0.00195   1.86758
    A4        1.94134  -0.00023   0.00021  -0.00057  -0.00036   1.94098
    A5        1.89030   0.00004   0.00044  -0.00123  -0.00079   1.88951
    A6        2.00206   0.00030  -0.00135   0.00289   0.00153   2.00359
    A7        1.91898  -0.00014   0.00085  -0.00171  -0.00087   1.91811
    A8        1.85679   0.00002  -0.00014   0.00027   0.00013   1.85692
    A9        1.85171   0.00001   0.00006   0.00026   0.00031   1.85202
   A10        2.00760   0.00003  -0.00067   0.00084   0.00017   2.00777
   A11        1.91492  -0.00022   0.00080  -0.00243  -0.00163   1.91328
   A12        1.89412  -0.00023  -0.00003  -0.00138  -0.00142   1.89271
   A13        1.83192  -0.00003   0.00077  -0.00064   0.00013   1.83206
   A14        1.93299   0.00037  -0.00067   0.00382   0.00315   1.93613
   A15        1.87774   0.00008  -0.00012  -0.00032  -0.00045   1.87729
   A16        1.98918  -0.00069  -0.00080  -0.00184  -0.00264   1.98653
   A17        1.94893   0.00009  -0.00009   0.00019   0.00009   1.94902
   A18        1.94772   0.00023  -0.00100   0.00027  -0.00073   1.94699
   A19        1.86593  -0.00051   0.00044  -0.00226  -0.00182   1.86412
   A20        1.90452   0.00005   0.00018   0.00093   0.00111   1.90563
   A21        1.89574   0.00004  -0.00020  -0.00044  -0.00064   1.89510
   A22        1.89944   0.00009   0.00072   0.00127   0.00198   1.90143
    D1        0.75386   0.00033   0.00223   0.02723   0.02946   0.78332
    D2        2.86457   0.00004   0.00369   0.02396   0.02765   2.89223
    D3       -1.35435   0.00026   0.00323   0.02522   0.02845  -1.32590
    D4        2.81433   0.00026   0.00177   0.02428   0.02604   2.84038
    D5       -1.35814  -0.00003   0.00323   0.02100   0.02423  -1.33390
    D6        0.70612   0.00020   0.00277   0.02226   0.02504   0.73116
    D7        0.78386  -0.00033   0.00878  -0.01029  -0.00151   0.78236
    D8       -1.27621  -0.00015   0.00766  -0.00828  -0.00061  -1.27682
    D9        2.95977   0.00000   0.00737  -0.00572   0.00165   2.96142
   D10       -1.30993  -0.00013   0.00754  -0.00725   0.00028  -1.30965
   D11        2.91318   0.00004   0.00641  -0.00524   0.00117   2.91435
   D12        0.86597   0.00020   0.00613  -0.00269   0.00344   0.86941
   D13        2.97545  -0.00009   0.00713  -0.00686   0.00027   2.97571
   D14        0.91537   0.00009   0.00601  -0.00485   0.00116   0.91653
   D15       -1.13183   0.00024   0.00572  -0.00230   0.00342  -1.12841
   D16        1.02995  -0.00001  -0.00096  -0.00723  -0.00819   1.02176
   D17        3.13611  -0.00028   0.00018  -0.01022  -0.01003   3.12607
   D18       -1.12547  -0.00002   0.00014  -0.00911  -0.00897  -1.13444
   D19        0.93593   0.00014   0.00030  -0.00273  -0.00243   0.93350
   D20       -1.20094  -0.00016   0.00086  -0.00427  -0.00341  -1.20435
   D21        3.00718  -0.00008   0.00028  -0.00456  -0.00428   3.00290
         Item               Value     Threshold  Converged?
 Maximum Force            0.000692     0.000450     NO 
 RMS     Force            0.000228     0.000300     YES
 Maximum Displacement     0.041547     0.001800     NO 
 RMS     Displacement     0.010828     0.001200     NO 
 Predicted change in Energy=-2.104668D-05
 GradGradGradGradGradGradGradGradGradGradGradGradGradGradGradGradGradGrad

                          Input orientation:                          
 ---------------------------------------------------------------------
 Center     Atomic      Atomic             Coordinates (Angstroms)
 Number     Number       Type             X           Y           Z
 ---------------------------------------------------------------------
      1          7           0       -0.495238   -1.124014   -1.791790
      2          6           0        0.832374   -0.881983   -1.229203
      3          6           0        0.872730    0.437659   -0.451473
      4          8           0       -0.225709    0.658443    0.408617
      5          6           0       -0.392680   -0.345434    1.391374
      6          1           0       -0.851681   -0.273489   -2.220614
      7          1           0       -0.446906   -1.827792   -2.523084
      8          1           0        1.080361   -1.717019   -0.561302
      9          1           0        1.648647   -0.830999   -1.972679
     10          1           0        0.856285    1.279555   -1.153674
     11          1           0        1.825391    0.486346    0.104815
     12          1           0        0.532194   -0.507848    1.968526
     13          1           0       -0.711488   -1.296037    0.946333
     14          1           0       -1.171080    0.005912    2.072755
 ---------------------------------------------------------------------
                    Distance matrix (angstroms):
                    1          2          3          4          5
     1  N    0.000000
     2  C    1.462066   0.000000
     3  C    2.471156   1.532301   0.000000
     4  O    2.844571   2.484935   1.412469   0.000000
     5  C    3.278603   2.942119   2.368667   1.414729   0.000000
     6  H    1.017023   2.046754   2.570834   2.858880   3.641746
     7  H    1.016086   2.050668   3.341449   3.850345   4.186085
     8  H    2.085250   1.097668   2.167443   2.879127   2.804289
     9  H    2.171364   1.105285   2.127347   3.376716   3.964800
    10  H    2.830362   2.162989   1.096424   1.999311   3.267686
    11  H    3.402306   2.153604   1.104259   2.080606   2.695724
    12  H    3.946550   3.233506   2.620371   2.089969   1.102214
    13  H    2.752031   2.699613   2.733004   2.084493   1.096971
    14  H    4.082671   3.962968   3.276476   2.022098   1.092535
                    6          7          8          9         10
     6  H    0.000000
     7  H    1.634376   0.000000
     8  H    2.927436   2.488656   0.000000
     9  H    2.573700   2.384928   1.760671   0.000000
    10  H    2.543119   3.637195   3.062771   2.398550   0.000000
    11  H    3.626525   4.174256   2.419421   2.466296   1.775426
    12  H    4.418024   4.782829   2.857028   4.109013   3.612199
    13  H    3.330888   3.519890   2.379267   3.782476   3.674454
    14  H    4.314291   5.000864   3.869849   5.001681   4.017739
                   11         12         13         14
    11  H    0.000000
    12  H    2.476732   0.000000
    13  H    3.212599   1.792447   0.000000
    14  H    3.616966   1.782121   1.781888   0.000000
 Stoichiometry    C3H9NO
[...]
 Number     Number       Type             X           Y           Z
 ---------------------------------------------------------------------
      1          7           0        1.578955   -0.789243   -0.325759
      2          6           0        1.114399    0.279614    0.556020
      3          6           0       -0.064972    1.036887   -0.061458
      4          8           0       -1.079359    0.228055   -0.618316
      5          6           0       -1.657366   -0.679805    0.298671
      6          1           0        1.752280   -0.421662   -1.258336
      7          1           0        2.461591   -1.163107    0.011874
      8          1           0        0.809472   -0.174868    1.506682
      9          1           0        1.874680    1.041389    0.809744
     10          1           0        0.292195    1.656113   -0.893036
     11          1           0       -0.478092    1.717184    0.704227
     12          1           0       -2.012862   -0.169903    1.208880
     13          1           0       -0.954126   -1.472781    0.581663
     14          1           0       -2.515321   -1.132285   -0.204254
 ---------------------------------------------------------------------
 Rotational constants (GHZ):           8.3156510           3.4459382           3.0181909
 Standard basis: def2TZVP (5D, 7F)
 There are   234 symmetry adapted cartesian basis functions of A   symmetry.
 There are   209 symmetry adapted basis functions of A   symmetry.
   209 basis functions,   327 primitive gaussians,   234 cartesian basis functions
    21 alpha electrons       21 beta electrons
       nuclear repulsion energy       196.3894930757 Hartrees.
 NAtoms=   14 NActive=   14 NUniq=   14 SFac= 1.00D+00 NAtFMM=   60 NAOKFM=F Big=F
 Integral buffers will be    131072 words long.
 Raffenetti 2 integral format.
 Two-electron integral symmetry is turned on.
 One-electron integrals computed using PRISM.
   1 Symmetry operations used in ECPInt.
 ECPInt:  NShTT=    4186 NPrTT=   12072 LenC2=    4160 LenP2D=   10164.
 LDataN:  DoStor=T MaxTD1= 6 Len=  172
 NBasis=   209 RedAO= T EigKep=  3.27D-04  NBF=   209
 NBsUse=   209 1.00D-06 EigRej= -1.00D+00 NBFU=   209
 Initial guess from the checkpoint file:  "N1_conf-7.chk"
 B after Tr=    -0.000000    0.000000    0.000000
         Rot=    1.000000   -0.000000   -0.000000   -0.000000 Ang=   0.00 deg.
 Requested convergence on RMS density matrix=1.00D-08 within 128 cycles.
 Requested convergence on MAX density matrix=1.00D-06.
 Requested convergence on             energy=1.00D-06.
 No special actions if energy rises.
 SCF Done:  E(RM062X) =  -249.667619465     A.U. after    1 cycles
            NFock=  1  Conv=0.13D-08     -V/T= 2.0052
 DoSCS=F DFT=T ScalE2(SS,OS)=  1.000000  1.000000
 Range of M.O.s used for correlation:     1   209
 NBasis=   209 NAE=    21 NBE=    21 NFC=     0 NFV=     0
 NROrb=    209 NOA=    21 NOB=    21 NVA=   188 NVB=   188

 **** Warning!!: The largest alpha MO coefficient is  0.14555424D+02

          Differentiating once with respect to magnetic field using GIAOs.
          Electric field/nuclear overlap derivatives assumed to be zero.
 FoFCou: FMM=F IPFlag=           0 FMFlag=      100000 FMFlg1=           0
         NFxFlg=           0 DoJE=F BraDBF=F KetDBF=T FulRan=T
         wScrn=  0.000000 ICntrl=      6100 IOpCl=  0 I1Cent=           7 NGrid=          14
         NMat0=    1 NMatS0=      1 NMatT0=    0 NMatD0=    1 NMtDS0=    0 NMtDT0=    0
 Symmetry not used in FoFCou.
   1 Symmetry operations used in ECPInt.
 ECPInt:  NShTT=    4186 NPrTT=   12072 LenC2=    4187 LenP2D=   12072.
 LDataN:  DoStor=T MaxTD1= 7 Len=  274
 FoFJK:  IHMeth= 1 ICntrl=    6127 DoSepK=F KAlg= 0 I1Cent=           0 FoldK=F
 IRaf=         1 NMat=       1 IRICut=       1 DoRegI=T DoRafI=F ISym2E= 0 IDoP0=0 IntGTp=1.
          There are     3 degrees of freedom in the 1st order CPHF.  IDoFFX=0 NUNeed=     3.
      3 vectors produced by pass  0 Test12= 1.32D-13 3.33D-08 XBig12= 2.30D+00 3.20D-01.
 AX will form     3 AO Fock derivatives at one time.
      3 vectors produced by pass  1 Test12= 1.32D-13 3.33D-08 XBig12= 9.30D-03 1.78D-02.
      3 vectors produced by pass  2 Test12= 1.32D-13 3.33D-08 XBig12= 7.52D-05 2.36D-03.
      3 vectors produced by pass  3 Test12= 1.32D-13 3.33D-08 XBig12= 7.96D-07 2.07D-04.
      3 vectors produced by pass  4 Test12= 1.32D-13 3.33D-08 XBig12= 9.06D-09 1.70D-05.
      3 vectors produced by pass  5 Test12= 1.32D-13 3.33D-08 XBig12= 7.74D-11 2.00D-06.
      3 vectors produced by pass  6 Test12= 1.32D-13 3.33D-08 XBig12= 6.50D-13 1.58D-07.
 InvSVY:  IOpt=1 It=  1 EMax= 2.22D-16
 Solved reduced A of dimension    21 with     3 vectors.
 Calculating GIAO nuclear magnetic shielding tensors.
 SCF GIAO Magnetic shielding tensor (ppm):
      1  N    Isotropic =   237.0221   Anisotropy =    46.4503
   XX=   222.5885   YX=   -27.1466   ZX=     5.4153
   XY=   -32.5519   YY=   234.2445   ZY=   -12.8485
   XZ=     1.4413   YZ=   -10.2529   ZZ=   254.2334
   Eigenvalues:   197.5997   245.4777   267.9890
      2  C    Isotropic =   142.9556   Anisotropy =    41.8547
   XX=   141.8992   YX=   -13.5093   ZX=    -6.6148
   XY=   -10.3603   YY=   149.9730   ZY=    19.8519
   XZ=    -4.4118   YZ=    21.3840   ZZ=   136.9947
   Eigenvalues:   121.4580   136.5501   170.8588
      3  C    Isotropic =   112.5230   Anisotropy =    63.6653
   XX=   130.9651   YX=    24.7026   ZX=    10.6284
   XY=    24.0464   YY=   117.1099   ZY=     9.5147
   XZ=    17.7563   YZ=    16.3563   ZZ=    89.4939
   Eigenvalues:    83.7170    98.8854   154.9665
      4  O    Isotropic =   327.0971   Anisotropy =    35.5626
   XX=   328.2703   YX=     9.4140   ZX=    10.4823
   XY=     7.6675   YY=   306.8857   ZY=     9.2525
   XZ=     9.1392   YZ=    -8.6311   ZZ=   346.1354
   Eigenvalues:   303.6717   326.8141   350.8055
      5  C    Isotropic =   130.7327   Anisotropy =    80.8525
   XX=   117.8754   YX=    23.3986   ZX=   -28.9681
   XY=    26.5627   YY=   138.8060   ZY=   -25.5461
   XZ=   -27.6004   YZ=   -26.8986   ZZ=   135.5167
   Eigenvalues:    96.0819   111.4818   184.6344
      6  H    Isotropic =    31.9289   Anisotropy =    12.7900
   XX=    28.6817   YX=    -2.1159   ZX=    -4.0390
   XY=    -1.7003   YY=    28.0355   ZY=    -1.6408
   XZ=    -3.0427   YZ=    -3.4507   ZZ=    39.0697
   Eigenvalues:    25.1203    30.2109    40.4556
      7  H    Isotropic =    31.6004   Anisotropy =    15.1215
   XX=    36.2638   YX=    -7.1417   ZX=     3.3446
   XY=    -8.1021   YY=    29.4568   ZY=    -1.6212
   XZ=     1.7231   YZ=     0.4704   ZZ=    29.0806
   Eigenvalues:    24.3304    28.7894    41.6814
      8  H    Isotropic =    28.7004   Anisotropy =     5.9177
   XX=    27.4510   YX=    -0.3543   ZX=    -0.8583
   XY=    -1.0432   YY=    26.2366   ZY=     0.6582
   XZ=    -1.3127   YZ=    -0.5928   ZZ=    32.4137
   Eigenvalues:    25.8886    27.5671    32.6456
      9  H    Isotropic =    29.2622   Anisotropy =     9.0713
   XX=    30.1507   YX=     1.2780   ZX=     1.4233
   XY=     3.6781   YY=    30.5692   ZY=     4.3359
   XZ=     2.2190   YZ=     4.3035   ZZ=    27.0668
   Eigenvalues:    24.1537    28.3233    35.3097
     10  H    Isotropic =    28.2542   Anisotropy =     8.0651
   XX=    28.4079   YX=     3.5579   ZX=    -0.3316
   XY=     2.8993   YY=    30.7070   ZY=    -3.7733
   XZ=     1.1293   YZ=    -2.1537   ZZ=    25.6478
   Eigenvalues:    23.5410    27.5907    33.6310
     11  H    Isotropic =    28.5546   Anisotropy =     6.8671
   XX=    28.2867   YX=    -0.6853   ZX=     1.9473
   XY=    -1.8511   YY=    31.3796   ZY=     3.5734
   XZ=    -0.4616   YZ=     3.1332   ZZ=    25.9976
   Eigenvalues:    24.0337    28.4974    33.1327
     12  H    Isotropic =    29.2252   Anisotropy =     8.6360
   XX=    29.7882   YX=    -0.1250   ZX=    -4.7959
   XY=     0.6533   YY=    26.5593   ZY=    -2.2021
   XZ=    -3.7316   YZ=     0.3560   ZZ=    31.3282
   Eigenvalues:    25.9410    26.7522    34.9826
     13  H    Isotropic =    28.1377   Anisotropy =     7.4511
   XX=    27.7031   YX=     1.5695   ZX=    -1.4243
   XY=    -0.3504   YY=    31.0309   ZY=    -3.4571
   XZ=    -0.1479   YZ=    -4.0239   ZZ=    25.6789
   Eigenvalues:    23.7105    27.5974    33.1051
     14  H    Isotropic =    28.5102   Anisotropy =     9.1075
   XX=    30.8351   YX=     4.0975   ZX=     0.6923
   XY=     5.2365   YY=    28.6865   ZY=     0.1479
   XZ=    -0.9965   YZ=    -1.4450   ZZ=    26.0089
   Eigenvalues:    24.8244    26.1242    34.5818
 End of Minotr F.D. properties file   721 does not exist.
 End of Minotr F.D. properties file   722 does not exist.
 End of Minotr F.D. properties file   788 does not exist.

 **********************************************************************

            Population analysis using the SCF Density.

 **********************************************************************

 Orbital symmetries:
       Occupied  (A) (A) (A) (A) (A) (A) (A) (A) (A) (A) (A) (A)
                 (A) (A) (A) (A) (A) (A) (A) (A) (A)
       Virtual   (A) (A) (A) (A) (A) (A) (A) (A) (A) (A) (A) (A)
                 (A) (A) (A) (A) (A) (A) (A) (A) (A) (A) (A) (A)
                 (A) (A) (A) (A) (A) (A) (A) (A) (A) (A) (A) (A)
                 (A) (A) (A) (A) (A) (A) (A) (A) (A) (A) (A) (A)
                 (A) (A) (A) (A) (A) (A) (A) (A) (A) (A) (A) (A)
                 (A) (A) (A) (A) (A) (A) (A) (A) (A) (A) (A) (A)
                 (A) (A) (A) (A) (A) (A) (A) (A) (A) (A) (A) (A)
                 (A) (A) (A) (A) (A) (A) (A) (A) (A) (A) (A) (A)
                 (A) (A) (A) (A) (A) (A) (A) (A) (A) (A) (A) (A)
                 (A) (A) (A) (A) (A) (A) (A) (A) (A) (A) (A) (A)
                 (A) (A) (A) (A) (A) (A) (A) (A) (A) (A) (A) (A)
                 (A) (A) (A) (A) (A) (A) (A) (A) (A) (A) (A) (A)
                 (A) (A) (A) (A) (A) (A) (A) (A) (A) (A) (A) (A)
                 (A) (A) (A) (A) (A) (A) (A) (A) (A) (A) (A) (A)
                 (A) (A) (A) (A) (A) (A) (A) (A) (A) (A) (A) (A)
                 (A) (A) (A) (A) (A) (A) (A) (A)
 The electronic state is 1-A.
 Alpha  occ. eigenvalues --  -19.61959 -14.72731 -10.58076 -10.56702 -10.56092
 Alpha  occ. eigenvalues --   -1.14968  -0.98699  -0.83101  -0.76517  -0.67156
 Alpha  occ. eigenvalues --   -0.57605  -0.56555  -0.54215  -0.51075  -0.49287
 Alpha  occ. eigenvalues --   -0.46864  -0.43685  -0.42145  -0.37543  -0.32498
 Alpha  occ. eigenvalues --   -0.31062
 Alpha virt. eigenvalues --    0.05941   0.09153   0.10275   0.11434   0.12619
 Alpha virt. eigenvalues --    0.14298   0.15206   0.16875   0.17061   0.17459
 Alpha virt. eigenvalues --    0.20503   0.22134   0.23935   0.25258   0.26197
 Alpha virt. eigenvalues --    0.30660   0.32513   0.34771   0.36366   0.38482
 Alpha virt. eigenvalues --    0.39524   0.41238   0.42283   0.44136   0.44260
 Alpha virt. eigenvalues --    0.47033   0.47450   0.47984   0.50335   0.51493
 Alpha virt. eigenvalues --    0.52473   0.53351   0.54990   0.55507   0.56817
 Alpha virt. eigenvalues --    0.58103   0.62931   0.66290   0.69562   0.71744
 Alpha virt. eigenvalues --    0.75069   0.77729   0.78981   0.84442   0.86885
 Alpha virt. eigenvalues --    0.90885   0.94000   0.97389   0.99760   1.02691
 Alpha virt. eigenvalues --    1.07402   1.09925   1.12126   1.13460   1.16723
 Alpha virt. eigenvalues --    1.19674   1.24755   1.29275   1.34848   1.39157
 Alpha virt. eigenvalues --    1.42699   1.44735   1.49627   1.53122   1.55867
 Alpha virt. eigenvalues --    1.58325   1.60194   1.60667   1.61676   1.62983
 Alpha virt. eigenvalues --    1.65303   1.66813   1.70537   1.74798   1.77120
 Alpha virt. eigenvalues --    1.79330   1.82283   1.86309   1.90503   1.92879
 Alpha virt. eigenvalues --    1.93550   1.96287   1.99086   2.01895   2.03778
 Alpha virt. eigenvalues --    2.06143   2.07439   2.08481   2.10824   2.13629
 Alpha virt. eigenvalues --    2.17116   2.22343   2.27164   2.32735   2.34773
 Alpha virt. eigenvalues --    2.36072   2.40479   2.41552   2.43687   2.46424
 Alpha virt. eigenvalues --    2.48876   2.51181   2.52703   2.57120   2.58783
 Alpha virt. eigenvalues --    2.60858   2.64399   2.64596   2.65695   2.66634
 Alpha virt. eigenvalues --    2.70151   2.71862   2.72493   2.75193   2.78163
 Alpha virt. eigenvalues --    2.90540   2.91564   2.96263   2.98774   3.04481
 Alpha virt. eigenvalues --    3.08563   3.09532   3.13966   3.15497   3.18357
 Alpha virt. eigenvalues --    3.19536   3.23880   3.25256   3.26000   3.30913
 Alpha virt. eigenvalues --    3.32669   3.34882   3.35866   3.37244   3.39748
 Alpha virt. eigenvalues --    3.45090   3.46937   3.53061   3.55247   3.60831
 Alpha virt. eigenvalues --    3.62771   3.69728   3.72408   3.78825   3.80476
 Alpha virt. eigenvalues --    3.84047   3.90165   3.91958   4.03360   4.15653
 Alpha virt. eigenvalues --    4.17863   4.22424   4.28546   4.30550   4.36621
 Alpha virt. eigenvalues --    4.37356   4.42921   4.49200   4.50715   4.64384
 Alpha virt. eigenvalues --    4.72986   4.75434   4.84603   4.85068   4.90292
 Alpha virt. eigenvalues --    5.07477   5.08907   5.14824   5.24952   5.38254
 Alpha virt. eigenvalues --    5.42715   5.50562   5.73089   5.75640   5.84913
 Alpha virt. eigenvalues --    5.88031   6.13883   6.17016   6.70188   6.71657
 Alpha virt. eigenvalues --    6.87317   7.16425   7.19885  22.43530  22.52544
 Alpha virt. eigenvalues --   22.58577  32.03415  44.15660
          Condensed to atoms (all electrons):
               1          2          3          4          5          6
     1  N    6.743396   0.169630  -0.010040   0.019361  -0.020732   0.362638
     2  C    0.169630   5.289767   0.178289  -0.084264   0.016560  -0.034888
     3  C   -0.010040   0.178289   4.973648   0.271188  -0.071346  -0.012884
     4  O    0.019361  -0.084264   0.271188   8.060748   0.235097   0.002092
     5  C   -0.020732   0.016560  -0.071346   0.235097   4.873757   0.000200
     6  H    0.362638  -0.034888  -0.012884   0.002092   0.000200   0.476501
     7  H    0.361214  -0.035256   0.004992  -0.000371   0.000483  -0.035638
     8  H   -0.054859   0.430434  -0.042170  -0.000359   0.003200   0.008594
     9  H   -0.045779   0.403458  -0.023992   0.005516  -0.002042  -0.003364
    10  H   -0.005201  -0.035655   0.398524  -0.044377   0.009067   0.005058
    11  H    0.010228  -0.115330   0.476575  -0.043051  -0.008334   0.000669
    12  H    0.003056  -0.027647   0.015749  -0.046665   0.404938   0.000078
    13  H    0.003158   0.035430  -0.029037  -0.040716   0.418421  -0.001169
    14  H   -0.000319  -0.000549   0.007994  -0.033348   0.400784   0.000053
               7          8          9         10         11         12
     1  N    0.361214  -0.054859  -0.045779  -0.005201   0.010228   0.003056
     2  C   -0.035256   0.430434   0.403458  -0.035655  -0.115330  -0.027647
     3  C    0.004992  -0.042170  -0.023992   0.398524   0.476575   0.015749
     4  O   -0.000371  -0.000359   0.005516  -0.044377  -0.043051  -0.046665
     5  C    0.000483   0.003200  -0.002042   0.009067  -0.008334   0.404938
     6  H   -0.035638   0.008594  -0.003364   0.005058   0.000669   0.000078
     7  H    0.490440  -0.003007  -0.009396   0.000065  -0.000655  -0.000057
     8  H   -0.003007   0.556541  -0.043724   0.008633  -0.002936   0.001151
     9  H   -0.009396  -0.043724   0.600113  -0.012956   0.004121   0.000431
    10  H    0.000065   0.008633  -0.012956   0.572151  -0.027087  -0.000204
    11  H   -0.000655  -0.002936   0.004121  -0.027087   0.566179   0.009004
    12  H   -0.000057   0.001151   0.000431  -0.000204   0.009004   0.594138
    13  H   -0.000082  -0.013461   0.000753  -0.001418  -0.002064  -0.056959
    14  H   -0.000006   0.000341   0.000009   0.000032  -0.000024  -0.022326
              13         14
     1  N    0.003158  -0.000319
     2  C    0.035430  -0.000549
     3  C   -0.029037   0.007994
     4  O   -0.040716  -0.033348
     5  C    0.418421   0.400784
     6  H   -0.001169   0.000053
     7  H   -0.000082  -0.000006
     8  H   -0.013461   0.000341
     9  H    0.000753   0.000009
    10  H   -0.001418   0.000032
    11  H   -0.002064  -0.000024
    12  H   -0.056959  -0.022326
    13  H    0.558399  -0.026360
    14  H   -0.026360   0.533894
 Mulliken charges:
               1
     1  N   -0.535751
     2  C   -0.189980
     3  C   -0.137489
     4  O   -0.300852
     5  C   -0.260054
     6  H    0.232060
     7  H    0.227274
     8  H    0.151623
     9  H    0.126851
    10  H    0.133368
    11  H    0.132705
    12  H    0.125315
    13  H    0.155105
    14  H    0.139825
 Sum of Mulliken charges =  -0.00000
 Mulliken charges with hydrogens summed into heavy atoms:
               1
     1  N   -0.076418
     2  C    0.088495
     3  C    0.128583
     4  O   -0.300852
     5  C    0.160191
 Electronic spatial extent (au):  <R**2>=            483.5234
 Charge=              0.0000 electrons
 Dipole moment (field-independent basis, Debye):
    X=              1.5048    Y=              0.6480    Z=              1.2060  Tot=              2.0344
 Quadrupole moment (field-independent basis, Debye-Ang):
   XX=            -28.5862   YY=            -33.1592   ZZ=            -32.5114
   XY=              1.1949   XZ=             -2.2850   YZ=             -0.6265
 Traceless Quadrupole moment (field-independent basis, Debye-Ang):
   XX=              2.8327   YY=             -1.7402   ZZ=             -1.0925
   XY=              1.1949   XZ=             -2.2850   YZ=             -0.6265
 Octapole moment (field-independent basis, Debye-Ang**2):
  XXX=              8.1188  YYY=              2.8716  ZZZ=             -4.4590  XYY=             -0.7327
  XXY=             -7.6800  XXZ=             -0.8355  XZZ=              3.4776  YZZ=             -0.0703
  YYZ=             -0.1000  XYZ=             -1.8640
 Hexadecapole moment (field-independent basis, Debye-Ang**3):
 XXXX=           -346.2400 YYYY=           -164.1210 ZZZZ=            -93.8044 XXXY=            -10.5436
 XXXZ=             -0.8085 YYYX=             -1.6753 YYYZ=             -3.1007 ZZZX=             -5.4444
 ZZZY=             -0.8692 XXYY=            -83.7927 XXZZ=            -76.8865 YYZZ=            -42.0459
 XXYZ=              1.9435 YYXZ=              1.5846 ZZXY=             -1.6434
 N-N= 1.963894930757D+02 E-N=-9.755830258076D+02  KE= 2.483711560583D+02
 Unable to Open any file for archive entry.
 1\1\GINC-NOTCH099\SP\RM062X\def2TZVP\C3H9N1O1\U6032257\21-Feb-2022\0\\
 # M062X/def2tzvp int=(grid=ultrafine) nmr=giao guess=read geom=check\\
 N1.xyz\\0,1\N,0,-0.4999634544,-1.0995669176,-1.8079960772\C,0,0.823185
 6121,-0.8683382967,-1.2321394201\C,0,0.8654501486,0.4447947861,-0.4450
 244301\O,0,-0.2214489525,0.6620560028,0.4294641028\C,0,-0.386906549,-0
 .351060756,1.401772466\H,0,-0.8003896974,-0.2809892402,-2.3319537642\H
 ,0,-0.4653503101,-1.8735180779,-2.4657336597\H,0,1.0542790801,-1.70961
 5036,-0.567200808\H,0,1.6506274449,-0.819115095,-1.9640008812\H,0,0.84
 16825532,1.2908539583,-1.142269319\H,0,1.825437519,0.4910732306,0.0990
 592355\H,0,0.543348747,-0.5328578304,1.9642952087\H,0,-0.7256002553,-1
 .2926829192,0.9522448527\H,0,-1.1511518862,0.0022661912,2.0980824938\\
 Version=ES64L-G16RevC.01\State=1-A\HF=-249.6676195\RMSD=1.291e-09\Dipo
 le=0.5657714,-0.3682817,-0.4299981\Quadrupole=-1.5997391,-1.4473231,3.
 0470622,0.0486041,-0.0253995,-0.5518631\PG=C01 [X(C3H9N1O1)]\\@
 The archive entry for this job was punched.


 HIGGLEDY-PIGGLEDY
 NIC'LAUS COPERNICUS
 LOOKED AT THE UNIVERSE,
 SPOKE TO THE THRONG;
 GIVE UP YOUR PTOLOMY,
 RISE UP AND FOLLOW ME,
 HELIOCENTRICALLY
 PTOLEMY'S WRONG.
   -- NANCY L. STARK
 Job cpu time:       0 days  0 hours  4 minutes 51.7 seconds.
 Elapsed time:       0 days  0 hours  0 minutes  9.0 seconds.
 File lengths (MBytes):  RWF=     30 Int=      0 D2E=      0 Chk=      5 Scr=      1
 Normal termination of Gaussian 16 at Mon Feb 21 19:01:06 2022.
