 Entering Gaussian System, Link 0=/uufs/chpc.utah.edu/sys/installdir/gaussian16/C01/AVX2/g16/g16
 Input=N1_conf-5.com
 Output=N1_conf-5.log
 Initial command:
 /uufs/chpc.utah.edu/sys/installdir/gaussian16/C01/AVX2/g16/l1.exe "/scratch/local/u6032257/4038468/notchpeak.peaks/Gau-263374.inp" -scrdir="/scratch/local/u6032257/4038468/notchpeak.peaks/"
 Entering Link 1 = /uufs/chpc.utah.edu/sys/installdir/gaussian16/C01/AVX2/g16/l1.exe PID=    263376.
  
 Copyright (c) 1988-2019, Gaussian, Inc.  All Rights Reserved.
  
 This is part of the Gaussian(R) 16 program.  It is based on
 the Gaussian(R) 09 system (copyright 2009, Gaussian, Inc.),
 the Gaussian(R) 03 system (copyright 2003, Gaussian, Inc.),
 the Gaussian(R) 98 system (copyright 1998, Gaussian, Inc.),
 the Gaussian(R) 94 system (copyright 1995, Gaussian, Inc.),
 the Gaussian 92(TM) system (copyright 1992, Gaussian, Inc.),
 the Gaussian 90(TM) system (copyright 1990, Gaussian, Inc.),
 the Gaussian 88(TM) system (copyright 1988, Gaussian, Inc.),
 the Gaussian 86(TM) system (copyright 1986, Carnegie Mellon
 University), and the Gaussian 82(TM) system (copyright 1983,
 Carnegie Mellon University). Gaussian is a federally registered
 trademark of Gaussian, Inc.
  
 This software contains proprietary and confidential information,
 including trade secrets, belonging to Gaussian, Inc.
  
 This software is provided under written license and may be
 used, copied, transmitted, or stored only in accord with that
 written license.
  
 The following legend is applicable only to US Government
 contracts under FAR:
  
                    RESTRICTED RIGHTS LEGEND
  
 Use, reproduction and disclosure by the US Government is
 subject to restrictions as set forth in subparagraphs (a)
 and (c) of the Commercial Computer Software - Restricted
 Rights clause in FAR 52.227-19.
  
 Gaussian, Inc.
 340 Quinnipiac St., Bldg. 40, Wallingford CT 06492
  
  
 ---------------------------------------------------------------
 Warning -- This program may not be used in any manner that
 competes with the business of Gaussian, Inc. or will provide
 assistance to any competitor of Gaussian, Inc.  The licensee
 of this program is prohibited from giving any competitor of
 Gaussian, Inc. access to this program.  By using this program,
 the user acknowledges that Gaussian, Inc. is engaged in the
 business of creating and licensing software in the field of
 computational chemistry and represents and warrants to the
 licensee that it is not a competitor of Gaussian, Inc. and that
 it will not use this program in any manner prohibited above.
 ---------------------------------------------------------------
  

 Cite this work as:
 Gaussian 16, Revision C.01,
 M. J. Frisch, G. W. Trucks, H. B. Schlegel, G. E. Scuseria, 
 M. A. Robb, J. R. Cheeseman, G. Scalmani, V. Barone, 
 G. A. Petersson, H. Nakatsuji, X. Li, M. Caricato, A. V. Marenich, 
 J. Bloino, B. G. Janesko, R. Gomperts, B. Mennucci, H. P. Hratchian, 
 J. V. Ortiz, A. F. Izmaylov, J. L. Sonnenberg, D. Williams-Young, 
 F. Ding, F. Lipparini, F. Egidi, J. Goings, B. Peng, A. Petrone, 
 T. Henderson, D. Ranasinghe, V. G. Zakrzewski, J. Gao, N. Rega, 
 G. Zheng, W. Liang, M. Hada, M. Ehara, K. Toyota, R. Fukuda, 
 J. Hasegawa, M. Ishida, T. Nakajima, Y. Honda, O. Kitao, H. Nakai, 
 T. Vreven, K. Throssell, J. A. Montgomery, Jr., J. E. Peralta, 
 F. Ogliaro, M. J. Bearpark, J. J. Heyd, E. N. Brothers, K. N. Kudin, 
 V. N. Staroverov, T. A. Keith, R. Kobayashi, J. Normand, 
 K. Raghavachari, A. P. Rendell, J. C. Burant, S. S. Iyengar, 
 J. Tomasi, M. Cossi, J. M. Millam, M. Klene, C. Adamo, R. Cammi, 
 J. W. Ochterski, R. L. Martin, K. Morokuma, O. Farkas, 
 J. B. Foresman, and D. J. Fox, Gaussian, Inc., Wallingford CT, 2019.
 
 ******************************************
 Gaussian 16:  ES64L-G16RevC.01  3-Jul-2019
                21-Feb-2022 
 ******************************************
 %NProcShared=40
 Will use up to   40 processors via shared memory.
 %mem=16GB
 %chk=N1_conf-5.chk
 ----------------------------------------------------------------------
 # B3LYP/6-31G(d,p) empiricaldispersion=GD3BJ int=(grid=ultrafine) opt 
 freq=noraman
 ----------------------------------------------------------------------
 1/18=20,19=15,26=4,38=1/1,3;
 2/9=110,12=2,17=6,18=5,40=1/2;
 3/5=1,6=6,7=101,11=2,25=1,30=1,71=1,74=-5,75=-5,124=41/1,2,3;
 4//1;
 5/5=2,38=5/2;
 6/7=2,8=2,9=2,10=2,28=1/1;
 7//1,2,3,16;
 1/18=20,19=15,26=4/3(2);
 2/9=110/2;
 99//99;
 2/9=110/2;
 3/5=1,6=6,7=101,11=2,25=1,30=1,71=1,74=-5,75=-5,124=41/1,2,3;
 4/5=5,16=3,69=1/1;
 5/5=2,38=5/2;
 7//1,2,3,16;
 1/18=20,19=15,26=4/3(-5);
 2/9=110/2;
 6/7=2,8=2,9=2,10=2,19=2,28=1/1;
 99/9=1/99;
 ------
 N1.xyz
 ------
 Symbolic Z-matrix:
 Charge =  0 Multiplicity = 1
 N                     0.1892   -1.3043   -2.4572 
 C                    -0.2219   -0.3902   -1.3971 
 C                     0.7776   -0.4072   -0.221 
 O                     0.4588    0.5643    0.7719 
 C                    -0.6597    0.2452    1.5904 
 H                    -0.4628   -1.2741   -3.23 
 H                     1.0865   -1.0274   -2.8342 
 H                    -0.306     0.6267   -1.7862 
 H                    -1.2165   -0.6699   -1.0468 
 H                     0.8587   -1.4045    0.2167 
 H                     1.7734   -0.166    -0.5952 
 H                    -0.5204   -0.7075    2.104 
 H                    -1.5867    0.2025    1.0181 
 H                    -0.7805    1.0161    2.3516 
 

 GradGradGradGradGradGradGradGradGradGradGradGradGradGradGradGradGradGrad
 Berny optimization.
 Initialization pass.
                           ----------------------------
                           !    Initial Parameters    !
                           ! (Angstroms and Degrees)  !
 --------------------------                            --------------------------
 ! Name  Definition              Value          Derivative Info.                !
 --------------------------------------------------------------------------------
 ! R1    R(1,2)                  1.4589         estimate D2E/DX2                !
 ! R2    R(1,6)                  1.0116         estimate D2E/DX2                !
 ! R3    R(1,7)                  1.0119         estimate D2E/DX2                !
 ! R4    R(2,3)                  1.5435         estimate D2E/DX2                !
 ! R5    R(2,8)                  1.092          estimate D2E/DX2                !
 ! R6    R(2,9)                  1.0909         estimate D2E/DX2                !
 ! R7    R(3,4)                  1.4252         estimate D2E/DX2                !
 ! R8    R(3,10)                 1.0921         estimate D2E/DX2                !
 ! R9    R(3,11)                 1.0908         estimate D2E/DX2                !
 ! R10   R(4,5)                  1.4223         estimate D2E/DX2                !
 ! R11   R(5,12)                 1.0913         estimate D2E/DX2                !
 ! R12   R(5,13)                 1.0903         estimate D2E/DX2                !
 ! R13   R(5,14)                 1.0901         estimate D2E/DX2                !
 ! A1    A(2,1,6)              110.7814         estimate D2E/DX2                !
 ! A2    A(2,1,7)              110.4347         estimate D2E/DX2                !
 ! A3    A(6,1,7)              106.1859         estimate D2E/DX2                !
 ! A4    A(1,2,3)              111.3644         estimate D2E/DX2                !
 ! A5    A(1,2,8)              110.258          estimate D2E/DX2                !
 ! A6    A(1,2,9)              109.2434         estimate D2E/DX2                !
 ! A7    A(3,2,8)              109.3666         estimate D2E/DX2                !
 ! A8    A(3,2,9)              110.0516         estimate D2E/DX2                !
 ! A9    A(8,2,9)              106.4357         estimate D2E/DX2                !
 ! A10   A(2,3,4)              112.2389         estimate D2E/DX2                !
 ! A11   A(2,3,10)             111.3161         estimate D2E/DX2                !
 ! A12   A(2,3,11)             109.1064         estimate D2E/DX2                !
 ! A13   A(4,3,10)             111.0915         estimate D2E/DX2                !
 ! A14   A(4,3,11)             107.0057         estimate D2E/DX2                !
 ! A15   A(10,3,11)            105.7606         estimate D2E/DX2                !
 ! A16   A(3,4,5)              115.0809         estimate D2E/DX2                !
 ! A17   A(4,5,12)             111.4904         estimate D2E/DX2                !
 ! A18   A(4,5,13)             112.0466         estimate D2E/DX2                !
 ! A19   A(4,5,14)             109.2897         estimate D2E/DX2                !
 ! A20   A(12,5,13)            108.7475         estimate D2E/DX2                !
 ! A21   A(12,5,14)            107.6315         estimate D2E/DX2                !
 ! A22   A(13,5,14)            107.4588         estimate D2E/DX2                !
 ! D1    D(6,1,2,3)           -179.0014         estimate D2E/DX2                !
 ! D2    D(6,1,2,8)            -57.4049         estimate D2E/DX2                !
 ! D3    D(6,1,2,9)             59.2287         estimate D2E/DX2                !
 ! D4    D(7,1,2,3)            -61.6421         estimate D2E/DX2                !
 ! D5    D(7,1,2,8)             59.9544         estimate D2E/DX2                !
 ! D6    D(7,1,2,9)            176.588          estimate D2E/DX2                !
 ! D7    D(1,2,3,4)            174.8073         estimate D2E/DX2                !
 ! D8    D(1,2,3,10)           -59.9615         estimate D2E/DX2                !
 ! D9    D(1,2,3,11)            56.3807         estimate D2E/DX2                !
 ! D10   D(8,2,3,4)             52.6939         estimate D2E/DX2                !
 ! D11   D(8,2,3,10)           177.9251         estimate D2E/DX2                !
 ! D12   D(8,2,3,11)           -65.7326         estimate D2E/DX2                !
 ! D13   D(9,2,3,4)            -63.8931         estimate D2E/DX2                !
 ! D14   D(9,2,3,10)            61.3381         estimate D2E/DX2                !
 ! D15   D(9,2,3,11)           177.6804         estimate D2E/DX2                !
 ! D16   D(2,3,4,5)             74.1686         estimate D2E/DX2                !
 ! D17   D(10,3,4,5)           -51.1856         estimate D2E/DX2                !
 ! D18   D(11,3,4,5)          -166.1715         estimate D2E/DX2                !
 ! D19   D(3,4,5,12)            57.6406         estimate D2E/DX2                !
 ! D20   D(3,4,5,13)           -64.5072         estimate D2E/DX2                !
 ! D21   D(3,4,5,14)           176.5015         estimate D2E/DX2                !
 --------------------------------------------------------------------------------
 Trust Radius=3.00D-01 FncErr=1.00D-07 GrdErr=1.00D-06 EigMax=2.50D+02 EigMin=1.00D-04
 Number of steps in this run=     66 maximum allowed number of steps=    100.
 GradGradGradGradGradGradGradGradGradGradGradGradGradGradGradGradGradGrad

                          Input orientation:                          
 ---------------------------------------------------------------------
 Center     Atomic      Atomic             Coordinates (Angstroms)
 Number     Number       Type             X           Y           Z
 ---------------------------------------------------------------------
      1          7           0        0.189200   -1.304300   -2.457200
      2          6           0       -0.221900   -0.390200   -1.397100
      3          6           0        0.777600   -0.407200   -0.221000
      4          8           0        0.458800    0.564300    0.771900
      5          6           0       -0.659700    0.245200    1.590400
      6          1           0       -0.462800   -1.274100   -3.230000
      7          1           0        1.086500   -1.027400   -2.834200
      8          1           0       -0.306000    0.626700   -1.786200
      9          1           0       -1.216500   -0.669900   -1.046800
     10          1           0        0.858700   -1.404500    0.216700
     11          1           0        1.773400   -0.166000   -0.595200
     12          1           0       -0.520400   -0.707500    2.104000
     13          1           0       -1.586700    0.202500    1.018100
     14          1           0       -0.780500    1.016100    2.351600
 ---------------------------------------------------------------------
                    Distance matrix (angstroms):
                    1          2          3          4          5
     1  N    0.000000
     2  C    1.458902   0.000000
     3  C    2.480241   1.543535   0.000000
     4  O    3.740513   2.465560   1.425235   0.000000
     5  C    4.416407   3.085540   2.402629   1.422255   0.000000
     6  H    1.011551   2.049106   3.368114   4.499363   5.057994
     7  H    1.011904   2.045285   2.703494   3.991425   4.924003
     8  H    2.103384   1.092043   2.166331   2.670709   3.416442
     9  H    2.089900   1.090950   2.174257   2.763612   2.846447
    10  H    2.758262   2.191085   1.092138   2.084308   2.629468
    11  H    2.696750   2.162066   1.090789   2.032357   3.296348
    12  H    4.654487   3.528099   2.679666   2.085857   1.091250
    13  H    4.183536   2.836752   2.738068   2.091790   1.090266
    14  H    5.426705   4.042582   3.327421   2.058018   1.090094
                    6          7          8          9         10
     6  H    0.000000
     7  H    1.617977   0.000000
     8  H    2.392109   2.402792   0.000000
     9  H    2.387359   2.937076   1.748398   0.000000
    10  H    3.693658   3.082546   3.081219   2.538213   0.000000
    11  H    3.629139   2.495388   2.524036   3.065511   1.740615
    12  H    5.364318   5.202911   4.118217   3.226997   2.439186
    13  H    4.635715   4.847563   3.111951   2.271991   3.033920
    14  H    6.041540   5.878274   4.183082   3.818614   3.619956
                   11         12         13         14
    11  H    0.000000
    12  H    3.583353   0.000000
    13  H    3.745504   1.773210   0.000000
    14  H    4.074726   1.760612   1.757875   0.000000
 Stoichiometry    C3H9NO
 Framework group  C1[X(C3H9NO)]
 Deg. of freedom    36
 Full point group                 C1      NOp   1
 Largest Abelian subgroup         C1      NOp   1
 Largest concise Abelian subgroup C1      NOp   1
                         Standard orientation:                         
 ---------------------------------------------------------------------
 Center     Atomic      Atomic             Coordinates (Angstroms)
 Number     Number       Type             X           Y           Z
 ---------------------------------------------------------------------
      1          7           0        2.328001   -0.141632    0.232498
      2          6           0        0.979879   -0.393842   -0.264846
      3          6           0       -0.005511    0.698273    0.202906
      4          8           0       -1.301190    0.536216   -0.368276
      5          6           0       -2.071046   -0.528699    0.175864
      6          1           0        2.969393   -0.853142   -0.092473
      7          1           0        2.677711    0.737991   -0.125158
      8          1           0        0.981322   -0.437005   -1.356035
      9          1           0        0.645807   -1.372631    0.082342
     10          1           0       -0.059363    0.744008    1.292756
     11          1           0        0.364308    1.673436   -0.116643
     12          1           0       -2.204990   -0.415443    1.252925
     13          1           0       -1.620170   -1.501695   -0.020778
     14          1           0       -3.060433   -0.528218   -0.281759
 ---------------------------------------------------------------------
 Rotational constants (GHZ):          14.3985590           2.4009422           2.2353895
 Standard basis: 6-31G(d,p) (6D, 7F)
 There are   120 symmetry adapted cartesian basis functions of A   symmetry.
 There are   120 symmetry adapted basis functions of A   symmetry.
   120 basis functions,   203 primitive gaussians,   120 cartesian basis functions
    21 alpha electrons       21 beta electrons
       nuclear repulsion energy       190.5130171503 Hartrees.
 NAtoms=   14 NActive=   14 NUniq=   14 SFac= 1.00D+00 NAtFMM=   60 NAOKFM=F Big=F
 Integral buffers will be    131072 words long.
 Raffenetti 2 integral format.
 Two-electron integral symmetry is turned on.
 Nuclear repulsion after empirical dispersion term =      190.4982852357 Hartrees.
 One-electron integrals computed using PRISM.
 NBasis=   120 RedAO= T EigKep=  4.15D-03  NBF=   120
 NBsUse=   120 1.00D-06 EigRej= -1.00D+00 NBFU=   120
 ExpMin= 1.61D-01 ExpMax= 5.48D+03 ExpMxC= 8.25D+02 IAcc=3 IRadAn=         5 AccDes= 0.00D+00
 Harris functional with IExCor=  402 and IRadAn=       5 diagonalized for initial guess.
 HarFok:  IExCor=  402 AccDes= 0.00D+00 IRadAn=         5 IDoV= 1 UseB2=F ITyADJ=14
 ICtDFT=  3500011 ScaDFX=  1.000000  1.000000  1.000000  1.000000
 FoFCou: FMM=F IPFlag=           0 FMFlag=      100000 FMFlg1=           0
         NFxFlg=           0 DoJE=T BraDBF=F KetDBF=T FulRan=T
         wScrn=  0.000000 ICntrl=       500 IOpCl=  0 I1Cent=   200000004 NGrid=           0
         NMat0=    1 NMatS0=      1 NMatT0=    0 NMatD0=    1 NMtDS0=    0 NMtDT0=    0
 Petite list used in FoFCou.
 Requested convergence on RMS density matrix=1.00D-08 within 128 cycles.
 Requested convergence on MAX density matrix=1.00D-06.
 Requested convergence on             energy=1.00D-06.
 No special actions if energy rises.
 Integral accuracy reduced to 1.0D-05 until final iterations.
 Initial convergence to 1.0D-05 achieved.  Increase integral accuracy.
 SCF Done:  E(RB3LYP) =  -249.709049140     A.U. after   12 cycles
            NFock= 12  Conv=0.69D-08     -V/T= 2.0092

 **********************************************************************

            Population analysis using the SCF Density.

 **********************************************************************

 Orbital symmetries:
       Occupied  (A) (A) (A) (A) (A) (A) (A) (A) (A) (A) (A) (A)
                 (A) (A) (A) (A) (A) (A) (A) (A) (A)
       Virtual   (A) (A) (A) (A) (A) (A) (A) (A) (A) (A) (A) (A)
                 (A) (A) (A) (A) (A) (A) (A) (A) (A) (A) (A) (A)
                 (A) (A) (A) (A) (A) (A) (A) (A) (A) (A) (A) (A)
                 (A) (A) (A) (A) (A) (A) (A) (A) (A) (A) (A) (A)
                 (A) (A) (A) (A) (A) (A) (A) (A) (A) (A) (A) (A)
                 (A) (A) (A) (A) (A) (A) (A) (A) (A) (A) (A) (A)
                 (A) (A) (A) (A) (A) (A) (A) (A) (A) (A) (A) (A)
                 (A) (A) (A) (A) (A) (A) (A) (A) (A) (A) (A) (A)
                 (A) (A) (A)
 The electronic state is 1-A.
 Alpha  occ. eigenvalues --  -19.14224 -14.30977 -10.22549 -10.22260 -10.20317
 Alpha  occ. eigenvalues --   -1.01918  -0.87891  -0.73148  -0.66912  -0.59670
 Alpha  occ. eigenvalues --   -0.49505  -0.48392  -0.46288  -0.44080  -0.42420
 Alpha  occ. eigenvalues --   -0.39789  -0.37682  -0.35868  -0.30166  -0.24937
 Alpha  occ. eigenvalues --   -0.22983
 Alpha virt. eigenvalues --    0.07758   0.09673   0.12267   0.14508   0.15204
 Alpha virt. eigenvalues --    0.16700   0.17365   0.18112   0.18853   0.22081
 Alpha virt. eigenvalues --    0.24986   0.25552   0.27216   0.51272   0.52174
 Alpha virt. eigenvalues --    0.54613   0.55360   0.56861   0.60118   0.64896
 Alpha virt. eigenvalues --    0.67073   0.73168   0.74692   0.78282   0.79773
 Alpha virt. eigenvalues --    0.83207   0.84386   0.85426   0.86469   0.88281
 Alpha virt. eigenvalues --    0.90784   0.92682   0.94502   0.97881   0.99262
 Alpha virt. eigenvalues --    1.02469   1.11638   1.16284   1.24097   1.31964
 Alpha virt. eigenvalues --    1.34397   1.37803   1.38590   1.50745   1.59445
 Alpha virt. eigenvalues --    1.64001   1.66426   1.69467   1.77396   1.83466
 Alpha virt. eigenvalues --    1.84730   1.88933   1.94498   1.97273   1.97725
 Alpha virt. eigenvalues --    2.01685   2.04324   2.07709   2.08443   2.10093
 Alpha virt. eigenvalues --    2.13314   2.15984   2.21854   2.24466   2.26184
 Alpha virt. eigenvalues --    2.30650   2.36106   2.38234   2.44703   2.48993
 Alpha virt. eigenvalues --    2.54186   2.55858   2.62889   2.63957   2.67821
 Alpha virt. eigenvalues --    2.74237   2.75327   2.79119   2.81982   2.85746
 Alpha virt. eigenvalues --    2.89713   2.93543   2.95200   2.99851   3.03165
 Alpha virt. eigenvalues --    3.19112   3.26268   3.30343   3.33531   3.42068
 Alpha virt. eigenvalues --    3.43419   3.44806   3.52144   3.57579   3.88729
 Alpha virt. eigenvalues --    4.06124   4.37302   4.44390   4.63351
          Condensed to atoms (all electrons):
               1          2          3          4          5          6
     1  N    6.783302   0.265906  -0.040410   0.001896   0.000084   0.338720
     2  C    0.265906   4.905061   0.350983  -0.042682  -0.006016  -0.028178
     3  C   -0.040410   0.350983   4.737653   0.255144  -0.040724   0.004661
     4  O    0.001896  -0.042682   0.255144   8.177577   0.265292  -0.000089
     5  C    0.000084  -0.006016  -0.040724   0.265292   4.709504  -0.000003
     6  H    0.338720  -0.028178   0.004661  -0.000089  -0.000003   0.489737
     7  H    0.342811  -0.041923  -0.005660  -0.000012   0.000009  -0.036073
     8  H   -0.049782   0.379296  -0.047448   0.005649  -0.000027  -0.003660
     9  H   -0.037980   0.382893  -0.028313  -0.001072   0.001632  -0.004095
    10  H    0.008768  -0.052247   0.360642  -0.033259  -0.009518  -0.000249
    11  H   -0.000898  -0.047973   0.389052  -0.033301   0.005756  -0.000188
    12  H    0.000038  -0.001261  -0.009857  -0.037309   0.370972  -0.000001
    13  H   -0.000301   0.003613  -0.002859  -0.041404   0.370836   0.000026
    14  H    0.000000   0.000031   0.004770  -0.030751   0.395226  -0.000000
               7          8          9         10         11         12
     1  N    0.342811  -0.049782  -0.037980   0.008768  -0.000898   0.000038
     2  C   -0.041923   0.379296   0.382893  -0.052247  -0.047973  -0.001261
     3  C   -0.005660  -0.047448  -0.028313   0.360642   0.389052  -0.009857
     4  O   -0.000012   0.005649  -0.001072  -0.033259  -0.033301  -0.037309
     5  C    0.000009  -0.000027   0.001632  -0.009518   0.005756   0.370972
     6  H   -0.036073  -0.003660  -0.004095  -0.000249  -0.000188  -0.000001
     7  H    0.499461  -0.005612   0.006837  -0.000680   0.005890   0.000002
     8  H   -0.005612   0.686913  -0.053505   0.007377  -0.007951   0.000178
     9  H    0.006837  -0.053505   0.632575  -0.008113   0.005758   0.000105
    10  H   -0.000680   0.007377  -0.008113   0.666521  -0.045649   0.013513
    11  H    0.005890  -0.007951   0.005758  -0.045649   0.634625  -0.000005
    12  H    0.000002   0.000178   0.000105   0.013513  -0.000005   0.659782
    13  H   -0.000007   0.000060   0.000900  -0.001493  -0.000326  -0.052883
    14  H    0.000000  -0.000059  -0.000062  -0.000146  -0.000206  -0.036318
              13         14
     1  N   -0.000301   0.000000
     2  C    0.003613   0.000031
     3  C   -0.002859   0.004770
     4  O   -0.041404  -0.030751
     5  C    0.370836   0.395226
     6  H    0.000026  -0.000000
     7  H   -0.000007   0.000000
     8  H    0.000060  -0.000059
     9  H    0.000900  -0.000062
    10  H   -0.001493  -0.000146
    11  H   -0.000326  -0.000206
    12  H   -0.052883  -0.036318
    13  H    0.669967  -0.039269
    14  H   -0.039269   0.592298
 Mulliken charges:
               1
     1  N   -0.612153
     2  C   -0.067502
     3  C    0.072367
     4  O   -0.485677
     5  C   -0.063024
     6  H    0.239393
     7  H    0.234957
     8  H    0.088573
     9  H    0.102442
    10  H    0.094535
    11  H    0.095417
    12  H    0.093045
    13  H    0.093140
    14  H    0.114487
 Sum of Mulliken charges =  -0.00000
 Mulliken charges with hydrogens summed into heavy atoms:
               1
     1  N   -0.137803
     2  C    0.123513
     3  C    0.262319
     4  O   -0.485677
     5  C    0.237648
 Electronic spatial extent (au):  <R**2>=            577.5900
 Charge=              0.0000 electrons
 Dipole moment (field-independent basis, Debye):
    X=              0.6512    Y=             -0.8543    Z=             -0.4219  Tot=              1.1541
 Quadrupole moment (field-independent basis, Debye-Ang):
   XX=            -28.7899   YY=            -30.6276   ZZ=            -34.2595
   XY=              2.3998   XZ=             -5.0314   YZ=              0.6474
 Traceless Quadrupole moment (field-independent basis, Debye-Ang):
   XX=              2.4357   YY=              0.5981   ZZ=             -3.0338
   XY=              2.3998   XZ=             -5.0314   YZ=              0.6474
 Octapole moment (field-independent basis, Debye-Ang**2):
  XXX=              4.8376  YYY=              1.5104  ZZZ=             -1.9139  XYY=              5.2985
  XXY=             -4.7214  XXZ=             -8.9329  XZZ=             -3.2805  YZZ=              0.8217
  YYZ=             -0.5841  XYZ=             -0.5590
 Hexadecapole moment (field-independent basis, Debye-Ang**3):
 XXXX=           -488.1902 YYYY=           -105.5505 ZZZZ=            -66.6477 XXXY=              0.0208
 XXXZ=            -21.7197 YYYX=             -2.2472 YYYZ=             -1.3935 ZZZX=             -3.7620
 ZZZY=             -0.0836 XXYY=           -102.4830 XXZZ=           -113.8777 YYZZ=            -30.1102
 XXYZ=              1.9094 YYXZ=             -0.9299 ZZXY=             -0.1470
 N-N= 1.904982852357D+02 E-N=-9.629470428095D+02  KE= 2.474283840941D+02
 Calling FoFJK, ICntrl=      2127 FMM=F ISym2X=0 I1Cent= 0 IOpClX= 0 NMat=1 NMatS=1 NMatT=0.
 ***** Axes restored to original set *****
 -------------------------------------------------------------------
 Center     Atomic                   Forces (Hartrees/Bohr)
 Number     Number              X              Y              Z
 -------------------------------------------------------------------
      1        7           0.001360252   -0.012847515    0.005859191
      2        6           0.005226544    0.001962762   -0.002756274
      3        6          -0.010282686    0.004595674   -0.002089715
      4        8           0.001032633    0.001953443    0.001501259
      5        6           0.005240434   -0.000646176   -0.005932110
      6        1          -0.003192504    0.000298131   -0.001569882
      7        1           0.003815811    0.002624480   -0.001027722
      8        1          -0.000236471    0.010154005    0.006256772
      9        1          -0.001935104   -0.003397617    0.000613943
     10        1          -0.003868938   -0.005900346    0.001132153
     11        1           0.002833963    0.004834404    0.000005448
     12        1           0.000533926   -0.006205945    0.001570536
     13        1          -0.004928978   -0.001381382   -0.002548200
     14        1           0.004401119    0.003956083   -0.001015399
 -------------------------------------------------------------------
 Cartesian Forces:  Max     0.012847515 RMS     0.004437756

 GradGradGradGradGradGradGradGradGradGradGradGradGradGradGradGradGradGrad
 Berny optimization.
 FormGI is forming the generalized inverse of G from B-inverse, IUseBI=4.
 Internal  Forces:  Max     0.010212116 RMS     0.004072263
 Search for a local minimum.
 Step number   1 out of a maximum of   66
 All quantities printed in internal units (Hartrees-Bohrs-Radians)
 Mixed Optimization -- RFO/linear search
 Second derivative matrix not updated -- first step.
 ITU=  0
     Eigenvalues ---    0.00230   0.00913   0.01358   0.01397   0.04218
     Eigenvalues ---    0.04318   0.04621   0.05414   0.05732   0.09274
     Eigenvalues ---    0.09930   0.10285   0.11673   0.12750   0.13990
     Eigenvalues ---    0.16000   0.16000   0.16000   0.16000   0.16000
     Eigenvalues ---    0.21904   0.21966   0.25000   0.28208   0.34567
     Eigenvalues ---    0.34578   0.34669   0.34703   0.34722   0.34782
     Eigenvalues ---    0.34802   0.37102   0.41682   0.42123   0.45655
     Eigenvalues ---    0.45714
 RFO step:  Lambda=-5.05830374D-03 EMin= 2.30000000D-03
 Linear search not attempted -- first point.
 Iteration  1 RMS(Cart)=  0.04660746 RMS(Int)=  0.00099123
 Iteration  2 RMS(Cart)=  0.00145816 RMS(Int)=  0.00031041
 Iteration  3 RMS(Cart)=  0.00000115 RMS(Int)=  0.00031041
 Iteration  4 RMS(Cart)=  0.00000000 RMS(Int)=  0.00031041
 Variable       Old X    -DE/DX   Delta X   Delta X   Delta X     New X
                                 (Linear)    (Quad)   (Total)
    R1        2.75692   0.00441   0.00000   0.01172   0.01172   2.76864
    R2        1.91155   0.00327   0.00000   0.00707   0.00707   1.91862
    R3        1.91222   0.00448   0.00000   0.00971   0.00971   1.92194
    R4        2.91686  -0.00889   0.00000  -0.03098  -0.03098   2.88588
    R5        2.06366   0.00724   0.00000   0.02065   0.02065   2.08431
    R6        2.06160   0.00283   0.00000   0.00804   0.00804   2.06964
    R7        2.69330  -0.00746   0.00000  -0.01769  -0.01769   2.67561
    R8        2.06384   0.00555   0.00000   0.01584   0.01584   2.07968
    R9        2.06129   0.00365   0.00000   0.01037   0.01037   2.07167
   R10        2.68767  -0.00773   0.00000  -0.01813  -0.01813   2.66954
   R11        2.06216   0.00623   0.00000   0.01770   0.01770   2.07986
   R12        2.06030   0.00558   0.00000   0.01582   0.01582   2.07612
   R13        2.05998   0.00160   0.00000   0.00453   0.00453   2.06451
    A1        1.93350  -0.00156   0.00000  -0.01154  -0.01162   1.92188
    A2        1.92745  -0.00212   0.00000  -0.01499  -0.01507   1.91238
    A3        1.85329   0.00141   0.00000   0.00431   0.00415   1.85744
    A4        1.94367  -0.00702   0.00000  -0.03384  -0.03430   1.90938
    A5        1.92437   0.01021   0.00000   0.09721   0.09742   2.02178
    A6        1.90666  -0.00084   0.00000  -0.02795  -0.02920   1.87746
    A7        1.90881  -0.00419   0.00000  -0.02866  -0.02822   1.88058
    A8        1.92076   0.00248   0.00000  -0.01276  -0.01412   1.90664
    A9        1.85765  -0.00026   0.00000   0.00820   0.00785   1.86550
   A10        1.95894   0.00431   0.00000   0.01418   0.01422   1.97316
   A11        1.94283  -0.00457   0.00000  -0.02584  -0.02579   1.91704
   A12        1.90427   0.00053   0.00000   0.00559   0.00567   1.90993
   A13        1.93891   0.00040   0.00000   0.00479   0.00486   1.94377
   A14        1.86760  -0.00371   0.00000  -0.02908  -0.02906   1.83855
   A15        1.84587   0.00300   0.00000   0.03132   0.03143   1.87730
   A16        2.00854  -0.00847   0.00000  -0.03321  -0.03321   1.97533
   A17        1.94587   0.00048   0.00000   0.00349   0.00338   1.94926
   A18        1.95558   0.00248   0.00000   0.01602   0.01600   1.97158
   A19        1.90746  -0.00856   0.00000  -0.05337  -0.05340   1.85406
   A20        1.89800  -0.00066   0.00000  -0.00134  -0.00142   1.89658
   A21        1.87852   0.00351   0.00000   0.01943   0.01929   1.89782
   A22        1.87551   0.00292   0.00000   0.01669   0.01674   1.89225
    D1       -3.12416   0.00022   0.00000  -0.04271  -0.04216   3.11686
    D2       -1.00190  -0.00281   0.00000  -0.03514  -0.03544  -1.03735
    D3        1.03374   0.00226   0.00000   0.01432   0.01394   1.04768
    D4       -1.07586  -0.00031   0.00000  -0.05379  -0.05315  -1.12901
    D5        1.04640  -0.00335   0.00000  -0.04622  -0.04644   0.99997
    D6        3.08204   0.00172   0.00000   0.00324   0.00295   3.08499
    D7        3.05096   0.00249   0.00000   0.04006   0.03988   3.09085
    D8       -1.04653   0.00278   0.00000   0.03722   0.03703  -1.00950
    D9        0.98403   0.00411   0.00000   0.06385   0.06363   1.04766
   D10        0.91968  -0.00289   0.00000  -0.04058  -0.04051   0.87917
   D11        3.10538  -0.00260   0.00000  -0.04342  -0.04336   3.06201
   D12       -1.14725  -0.00127   0.00000  -0.01679  -0.01677  -1.16402
   D13       -1.11514  -0.00155   0.00000  -0.02641  -0.02625  -1.14139
   D14        1.07055  -0.00127   0.00000  -0.02925  -0.02910   1.04145
   D15        3.10111   0.00007   0.00000  -0.00263  -0.00251   3.09860
   D16        1.29449  -0.00044   0.00000   0.02879   0.02885   1.32333
   D17       -0.89336   0.00201   0.00000   0.04843   0.04839  -0.84497
   D18       -2.90024   0.00034   0.00000   0.02519   0.02518  -2.87506
   D19        1.00602   0.00042   0.00000  -0.00868  -0.00872   0.99730
   D20       -1.12586  -0.00087   0.00000  -0.02100  -0.02110  -1.14697
   D21        3.08053  -0.00043   0.00000  -0.01674  -0.01659   3.06394
         Item               Value     Threshold  Converged?
 Maximum Force            0.010212     0.000450     NO 
 RMS     Force            0.004072     0.000300     NO 
 Maximum Displacement     0.124224     0.001800     NO 
 RMS     Displacement     0.046960     0.001200     NO 
 Predicted change in Energy=-2.638757D-03
 GradGradGradGradGradGradGradGradGradGradGradGradGradGradGradGradGradGrad

                          Input orientation:                          
 ---------------------------------------------------------------------
 Center     Atomic      Atomic             Coordinates (Angstroms)
 Number     Number       Type             X           Y           Z
 ---------------------------------------------------------------------
      1          7           0        0.199535   -1.328609   -2.415280
      2          6           0       -0.222592   -0.352340   -1.407692
      3          6           0        0.751854   -0.382936   -0.232241
      4          8           0        0.452735    0.580602    0.761147
      5          6           0       -0.649902    0.222934    1.568534
      6          1           0       -0.454462   -1.333912   -3.191860
      7          1           0        1.100142   -1.053764   -2.799659
      8          1           0       -0.299965    0.692251   -1.753212
      9          1           0       -1.218204   -0.646616   -1.058927
     10          1           0        0.792963   -1.397354    0.192505
     11          1           0        1.758454   -0.131561   -0.586349
     12          1           0       -0.495751   -0.749910    2.059621
     13          1           0       -1.596182    0.189532    1.011362
     14          1           0       -0.728926    0.995383    2.337051
 ---------------------------------------------------------------------
                    Distance matrix (angstroms):
                    1          2          3          4          5
     1  N    0.000000
     2  C    1.465103   0.000000
     3  C    2.442338   1.527143   0.000000
     4  O    3.714685   2.455669   1.415874   0.000000
     5  C    4.358853   3.061283   2.361099   1.412660   0.000000
     6  H    1.015291   2.049513   3.334501   4.484934   5.012316
     7  H    1.017044   2.044308   2.676369   3.971099   4.875830
     8  H    2.184425   1.102970   2.139090   2.626980   3.372938
     9  H    2.077208   1.095207   2.152688   2.758763   2.825356
    10  H    2.675337   2.164264   1.100519   2.086006   2.569173
    11  H    2.684798   2.155897   1.096278   2.006944   3.251056
    12  H    4.565420   3.500705   2.635113   2.087085   1.100616
    13  H    4.155867   2.834113   2.718003   2.100859   1.098637
    14  H    5.370999   4.011961   3.270128   2.012918   1.092494
                    6          7          8          9         10
     6  H    0.000000
     7  H    1.627605   0.000000
     8  H    2.489762   2.470612   0.000000
     9  H    2.367504   2.927566   1.765718   0.000000
    10  H    3.607495   3.027451   3.057247   2.484851   0.000000
    11  H    3.623718   2.486479   2.505459   3.057631   1.772292
    12  H    5.284015   5.123652   4.081159   3.202804   2.359257
    13  H    4.614269   4.831131   3.094475   2.264532   2.982742
    14  H    6.005814   5.824971   4.123851   3.803712   3.555336
                   11         12         13         14
    11  H    0.000000
    12  H    3.530574   0.000000
    13  H    3.729526   1.786714   0.000000
    14  H    4.000416   1.782522   1.777353   0.000000
 Stoichiometry    C3H9NO
 Framework group  C1[X(C3H9NO)]
 Deg. of freedom    36
 Full point group                 C1      NOp   1
 Largest Abelian subgroup         C1      NOp   1
 Largest concise Abelian subgroup C1      NOp   1
                         Standard orientation:                         
 ---------------------------------------------------------------------
 Center     Atomic      Atomic             Coordinates (Angstroms)
 Number     Number       Type             X           Y           Z
 ---------------------------------------------------------------------
      1          7           0        2.300739   -0.137354    0.255209
      2          6           0        0.975348   -0.379556   -0.320293
      3          6           0       -0.004557    0.667656    0.204397
      4          8           0       -1.299331    0.545064   -0.355273
      5          6           0       -2.039957   -0.528849    0.186754
      6          1           0        2.956047   -0.842066   -0.068469
      7          1           0        2.655958    0.757631   -0.072206
      8          1           0        0.920396   -0.369407   -1.421846
      9          1           0        0.650112   -1.373382    0.005298
     10          1           0       -0.037724    0.630438    1.303787
     11          1           0        0.341921    1.667413   -0.082421
     12          1           0       -2.137590   -0.444774    1.279802
     13          1           0       -1.609492   -1.510717   -0.053325
     14          1           0       -3.035149   -0.469683   -0.260053
 ---------------------------------------------------------------------
 Rotational constants (GHZ):          14.4079276           2.4427248           2.2862177
 Standard basis: 6-31G(d,p) (6D, 7F)
 There are   120 symmetry adapted cartesian basis functions of A   symmetry.
 There are   120 symmetry adapted basis functions of A   symmetry.
   120 basis functions,   203 primitive gaussians,   120 cartesian basis functions
    21 alpha electrons       21 beta electrons
       nuclear repulsion energy       191.4929818040 Hartrees.
 NAtoms=   14 NActive=   14 NUniq=   14 SFac= 1.00D+00 NAtFMM=   60 NAOKFM=F Big=F
 Integral buffers will be    131072 words long.
 Raffenetti 2 integral format.
 Two-electron integral symmetry is turned on.
 Nuclear repulsion after empirical dispersion term =      191.4781158398 Hartrees.
 One-electron integrals computed using PRISM.
 NBasis=   120 RedAO= T EigKep=  3.95D-03  NBF=   120
 NBsUse=   120 1.00D-06 EigRej= -1.00D+00 NBFU=   120
 Initial guess from the checkpoint file:  "N1_conf-5.chk"
 B after Tr=     0.000000    0.000000    0.000000
         Rot=    0.999883   -0.015166   -0.001515   -0.000871 Ang=  -1.75 deg.
 ExpMin= 1.61D-01 ExpMax= 5.48D+03 ExpMxC= 8.25D+02 IAcc=3 IRadAn=         5 AccDes= 0.00D+00
 Harris functional with IExCor=  402 and IRadAn=       5 diagonalized for initial guess.
 HarFok:  IExCor=  402 AccDes= 0.00D+00 IRadAn=         5 IDoV= 1 UseB2=F ITyADJ=14
 ICtDFT=  3500011 ScaDFX=  1.000000  1.000000  1.000000  1.000000
 FoFCou: FMM=F IPFlag=           0 FMFlag=      100000 FMFlg1=           0
         NFxFlg=           0 DoJE=T BraDBF=F KetDBF=T FulRan=T
         wScrn=  0.000000 ICntrl=       500 IOpCl=  0 I1Cent=   200000004 NGrid=           0
         NMat0=    1 NMatS0=      1 NMatT0=    0 NMatD0=    1 NMtDS0=    0 NMtDT0=    0
 Petite list used in FoFCou.
 Requested convergence on RMS density matrix=1.00D-08 within 128 cycles.
 Requested convergence on MAX density matrix=1.00D-06.
 Requested convergence on             energy=1.00D-06.
 No special actions if energy rises.
 Integral accuracy reduced to 1.0D-05 until final iterations.
 Initial convergence to 1.0D-05 achieved.  Increase integral accuracy.
 SCF Done:  E(RB3LYP) =  -249.711283281     A.U. after   11 cycles
            NFock= 11  Conv=0.36D-08     -V/T= 2.0092
 Calling FoFJK, ICntrl=      2127 FMM=F ISym2X=0 I1Cent= 0 IOpClX= 0 NMat=1 NMatS=1 NMatT=0.
 ***** Axes restored to original set *****
 -------------------------------------------------------------------
 Center     Atomic                   Forces (Hartrees/Bohr)
 Number     Number              X              Y              Z
 -------------------------------------------------------------------
      1        7           0.000365199    0.000869303    0.001854592
      2        6          -0.001058197   -0.001582089    0.000189704
      3        6           0.002842819    0.000783800   -0.000074682
      4        8          -0.001160704   -0.001503122   -0.000245821
      5        6           0.001022465    0.003256996    0.002486543
      6        1          -0.000338108   -0.000115917   -0.000649861
      7        1           0.000319505    0.000503849   -0.001133531
      8        1           0.000331792   -0.000170465   -0.001315234
      9        1          -0.000742172    0.000219376   -0.000536382
     10        1          -0.000475090   -0.000228199   -0.000079018
     11        1           0.000515682   -0.000606413   -0.000669395
     12        1          -0.000259076   -0.000534685   -0.000490749
     13        1          -0.000202480   -0.000465363   -0.000058457
     14        1          -0.001161635   -0.000427071    0.000722290
 -------------------------------------------------------------------
 Cartesian Forces:  Max     0.003256996 RMS     0.001062487

 GradGradGradGradGradGradGradGradGradGradGradGradGradGradGradGradGradGrad
 Berny optimization.
 Using GEDIIS/GDIIS optimizer.
 FormGI is forming the generalized inverse of G from B-inverse, IUseBI=4.
 Internal  Forces:  Max     0.004104092 RMS     0.000942204
 Search for a local minimum.
 Step number   2 out of a maximum of   66
 All quantities printed in internal units (Hartrees-Bohrs-Radians)
 Mixed Optimization -- En-DIIS/RFO-DIIS
 Update second derivatives using D2CorX and points    1    2
 DE= -2.23D-03 DEPred=-2.64D-03 R= 8.47D-01
 TightC=F SS=  1.41D+00  RLast= 2.22D-01 DXNew= 5.0454D-01 6.6463D-01
 Trust test= 8.47D-01 RLast= 2.22D-01 DXMaxT set to 5.05D-01
 ITU=  1  0
 Use linear search instead of GDIIS.
     Eigenvalues ---    0.00230   0.00904   0.01349   0.01395   0.04431
     Eigenvalues ---    0.04494   0.04650   0.05601   0.05819   0.09070
     Eigenvalues ---    0.09962   0.10559   0.11659   0.12722   0.14014
     Eigenvalues ---    0.15976   0.16000   0.16000   0.16000   0.16734
     Eigenvalues ---    0.21261   0.21991   0.26140   0.29069   0.33977
     Eigenvalues ---    0.34571   0.34631   0.34705   0.34717   0.34769
     Eigenvalues ---    0.34805   0.37199   0.41907   0.42994   0.45446
     Eigenvalues ---    0.45696
 RFO step:  Lambda=-2.28430177D-04 EMin= 2.29950225D-03
 Quartic linear search produced a step of -0.10514.
 Iteration  1 RMS(Cart)=  0.02235516 RMS(Int)=  0.00017536
 Iteration  2 RMS(Cart)=  0.00020537 RMS(Int)=  0.00003671
 Iteration  3 RMS(Cart)=  0.00000003 RMS(Int)=  0.00003671
 Variable       Old X    -DE/DX   Delta X   Delta X   Delta X     New X
                                 (Linear)    (Quad)   (Total)
    R1        2.76864  -0.00079  -0.00123  -0.00020  -0.00143   2.76721
    R2        1.91862   0.00072  -0.00074   0.00242   0.00168   1.92030
    R3        1.92194   0.00085  -0.00102   0.00306   0.00204   1.92398
    R4        2.88588   0.00193   0.00326   0.00163   0.00489   2.89077
    R5        2.08431   0.00023  -0.00217   0.00358   0.00141   2.08572
    R6        2.06964   0.00044  -0.00085   0.00231   0.00146   2.07111
    R7        2.67561   0.00229   0.00186   0.00235   0.00421   2.67983
    R8        2.07968   0.00016  -0.00167   0.00271   0.00105   2.08073
    R9        2.07167   0.00055  -0.00109   0.00292   0.00183   2.07349
   R10        2.66954   0.00152   0.00191   0.00062   0.00252   2.67206
   R11        2.07986   0.00022  -0.00186   0.00312   0.00126   2.08112
   R12        2.07612   0.00022  -0.00166   0.00285   0.00119   2.07731
   R13        2.06451   0.00029  -0.00048   0.00140   0.00093   2.06544
    A1        1.92188   0.00014   0.00122  -0.00215  -0.00092   1.92096
    A2        1.91238   0.00029   0.00158  -0.00187  -0.00028   1.91210
    A3        1.85744  -0.00047  -0.00044  -0.00462  -0.00505   1.85239
    A4        1.90938  -0.00040   0.00361  -0.00696  -0.00331   1.90607
    A5        2.02178  -0.00107  -0.01024   0.00138  -0.00888   2.01290
    A6        1.87746   0.00024   0.00307  -0.00139   0.00182   1.87928
    A7        1.88058   0.00094   0.00297   0.00054   0.00342   1.88400
    A8        1.90664   0.00049   0.00148   0.00530   0.00692   1.91356
    A9        1.86550  -0.00012  -0.00083   0.00176   0.00095   1.86645
   A10        1.97316   0.00139  -0.00150   0.00841   0.00691   1.98007
   A11        1.91704  -0.00069   0.00271  -0.00965  -0.00695   1.91009
   A12        1.90993  -0.00075  -0.00060  -0.00214  -0.00278   1.90715
   A13        1.94377  -0.00047  -0.00051  -0.00220  -0.00270   1.94107
   A14        1.83855   0.00028   0.00306   0.00268   0.00572   1.84427
   A15        1.87730   0.00023  -0.00330   0.00330  -0.00004   1.87726
   A16        1.97533   0.00410   0.00349   0.00984   0.01333   1.98867
   A17        1.94926  -0.00060  -0.00036  -0.00385  -0.00422   1.94503
   A18        1.97158  -0.00032  -0.00168  -0.00049  -0.00220   1.96938
   A19        1.85406   0.00250   0.00562   0.00807   0.01368   1.86774
   A20        1.89658  -0.00077   0.00015  -0.00779  -0.00767   1.88891
   A21        1.89782  -0.00024  -0.00203   0.00350   0.00147   1.89929
   A22        1.89225  -0.00052  -0.00176   0.00132  -0.00046   1.89179
    D1        3.11686   0.00000   0.00443  -0.02522  -0.02086   3.09601
    D2       -1.03735   0.00017   0.00373  -0.02902  -0.02525  -1.06259
    D3        1.04768  -0.00049  -0.00147  -0.02691  -0.02834   1.01934
    D4       -1.12901  -0.00032   0.00559  -0.03318  -0.02767  -1.15668
    D5        0.99997  -0.00015   0.00488  -0.03698  -0.03206   0.96791
    D6        3.08499  -0.00081  -0.00031  -0.03487  -0.03515   3.04984
    D7        3.09085  -0.00020  -0.00419  -0.01153  -0.01571   3.07514
    D8       -1.00950  -0.00033  -0.00389  -0.01567  -0.01955  -1.02905
    D9        1.04766  -0.00090  -0.00669  -0.01863  -0.02529   1.02237
   D10        0.87917   0.00077   0.00426  -0.00902  -0.00475   0.87442
   D11        3.06201   0.00063   0.00456  -0.01315  -0.00859   3.05342
   D12       -1.16402   0.00006   0.00176  -0.01611  -0.01433  -1.17835
   D13       -1.14139   0.00014   0.00276  -0.01416  -0.01142  -1.15281
   D14        1.04145   0.00001   0.00306  -0.01829  -0.01526   1.02619
   D15        3.09860  -0.00056   0.00026  -0.02125  -0.02100   3.07760
   D16        1.32333   0.00021  -0.00303   0.02185   0.01879   1.34212
   D17       -0.84497   0.00045  -0.00509   0.02996   0.02488  -0.82009
   D18       -2.87506   0.00025  -0.00265   0.02563   0.02300  -2.85206
   D19        0.99730  -0.00104   0.00092  -0.02040  -0.01946   0.97783
   D20       -1.14697   0.00066   0.00222  -0.00683  -0.00461  -1.15158
   D21        3.06394  -0.00013   0.00174  -0.01336  -0.01164   3.05230
         Item               Value     Threshold  Converged?
 Maximum Force            0.004104     0.000450     NO 
 RMS     Force            0.000942     0.000300     NO 
 Maximum Displacement     0.065274     0.001800     NO 
 RMS     Displacement     0.022291     0.001200     NO 
 Predicted change in Energy=-1.465684D-04
 GradGradGradGradGradGradGradGradGradGradGradGradGradGradGradGradGradGrad

                          Input orientation:                          
 ---------------------------------------------------------------------
 Center     Atomic      Atomic             Coordinates (Angstroms)
 Number     Number       Type             X           Y           Z
 ---------------------------------------------------------------------
      1          7           0        0.218576   -1.326455   -2.425125
      2          6           0       -0.224663   -0.358972   -1.419232
      3          6           0        0.741987   -0.386649   -0.233947
      4          8           0        0.444661    0.580715    0.759442
      5          6           0       -0.646642    0.234398    1.589204
      6          1           0       -0.438686   -1.349801   -3.199775
      7          1           0        1.108465   -1.026014   -2.818075
      8          1           0       -0.302862    0.684602   -1.769981
      9          1           0       -1.224571   -0.659693   -1.086175
     10          1           0        0.769062   -1.401113    0.193246
     11          1           0        1.753591   -0.148614   -0.586006
     12          1           0       -0.490352   -0.742456    2.073099
     13          1           0       -1.601645    0.200091    1.045903
     14          1           0       -0.717221    1.003661    2.362422
 ---------------------------------------------------------------------
                    Distance matrix (angstroms):
                    1          2          3          4          5
     1  N    0.000000
     2  C    1.464345   0.000000
     3  C    2.440996   1.529732   0.000000
     4  O    3.718854   2.465284   1.418103   0.000000
     5  C    4.393142   3.095293   2.374419   1.413995   0.000000
     6  H    1.016179   2.048873   3.334334   4.492503   5.048489
     7  H    1.018124   2.044245   2.687158   3.977542   4.908477
     8  H    2.178408   1.103714   2.144455   2.639613   3.406610
     9  H    2.078468   1.095982   2.160601   2.780512   2.879419
    10  H    2.676654   2.161858   1.101074   2.086494   2.574453
    11  H    2.669446   2.156851   1.097246   2.013814   3.261802
    12  H    4.591040   3.523354   2.639643   2.085839   1.101283
    13  H    4.206137   2.878459   2.734025   2.101025   1.099265
    14  H    5.406086   4.049726   3.286849   2.024450   1.092983
                    6          7          8          9         10
     6  H    0.000000
     7  H    1.626101   0.000000
     8  H    2.490292   2.452866   0.000000
     9  H    2.358212   2.928604   1.767559   0.000000
    10  H    3.601927   3.053514   3.058346   2.482175   0.000000
    11  H    3.616727   2.483577   2.514964   3.062813   1.773495
    12  H    5.307987   5.153659   4.103767   3.244525   2.356649
    13  H    4.666950   4.876306   3.138597   2.329629   2.985152
    14  H    6.046023   5.855788   4.165362   3.862250   3.563327
                   11         12         13         14
    11  H    0.000000
    12  H    3.529697   0.000000
    13  H    3.747310   1.782834   0.000000
    14  H    4.015703   1.784405   1.777963   0.000000
 Stoichiometry    C3H9NO
 Framework group  C1[X(C3H9NO)]
 Deg. of freedom    36
 Full point group                 C1      NOp   1
 Largest Abelian subgroup         C1      NOp   1
 Largest concise Abelian subgroup C1      NOp   1
                         Standard orientation:                         
 ---------------------------------------------------------------------
 Center     Atomic      Atomic             Coordinates (Angstroms)
 Number     Number       Type             X           Y           Z
 ---------------------------------------------------------------------
      1          7           0        2.309783   -0.126558    0.254871
      2          6           0        0.986555   -0.388229   -0.315131
      3          6           0       -0.001207    0.657827    0.204648
      4          8           0       -1.296924    0.539875   -0.359462
      5          6           0       -2.065568   -0.515143    0.184142
      6          1           0        2.967115   -0.839831   -0.048074
      7          1           0        2.666400    0.757270   -0.103251
      8          1           0        0.938019   -0.383474   -1.417767
      9          1           0        0.673801   -1.385750    0.013979
     10          1           0       -0.039535    0.611252    1.304068
     11          1           0        0.352492    1.658945   -0.072136
     12          1           0       -2.155808   -0.425333    1.278041
     13          1           0       -1.651878   -1.507152   -0.046429
     14          1           0       -3.062371   -0.445752   -0.258783
 ---------------------------------------------------------------------
 Rotational constants (GHZ):          14.5980065           2.4127852           2.2642105
 Standard basis: 6-31G(d,p) (6D, 7F)
 There are   120 symmetry adapted cartesian basis functions of A   symmetry.
 There are   120 symmetry adapted basis functions of A   symmetry.
   120 basis functions,   203 primitive gaussians,   120 cartesian basis functions
    21 alpha electrons       21 beta electrons
       nuclear repulsion energy       191.0447024841 Hartrees.
 NAtoms=   14 NActive=   14 NUniq=   14 SFac= 1.00D+00 NAtFMM=   60 NAOKFM=F Big=F
 Integral buffers will be    131072 words long.
 Raffenetti 2 integral format.
 Two-electron integral symmetry is turned on.
 Nuclear repulsion after empirical dispersion term =      191.0299071638 Hartrees.
 One-electron integrals computed using PRISM.
 NBasis=   120 RedAO= T EigKep=  3.99D-03  NBF=   120
 NBsUse=   120 1.00D-06 EigRej= -1.00D+00 NBFU=   120
 Initial guess from the checkpoint file:  "N1_conf-5.chk"
 B after Tr=    -0.000000    0.000000    0.000000
         Rot=    0.999996    0.002734    0.000649    0.000981 Ang=   0.34 deg.
 ExpMin= 1.61D-01 ExpMax= 5.48D+03 ExpMxC= 8.25D+02 IAcc=3 IRadAn=         5 AccDes= 0.00D+00
 Harris functional with IExCor=  402 and IRadAn=       5 diagonalized for initial guess.
 HarFok:  IExCor=  402 AccDes= 0.00D+00 IRadAn=         5 IDoV= 1 UseB2=F ITyADJ=14
 ICtDFT=  3500011 ScaDFX=  1.000000  1.000000  1.000000  1.000000
 FoFCou: FMM=F IPFlag=           0 FMFlag=      100000 FMFlg1=           0
         NFxFlg=           0 DoJE=T BraDBF=F KetDBF=T FulRan=T
         wScrn=  0.000000 ICntrl=       500 IOpCl=  0 I1Cent=   200000004 NGrid=           0
         NMat0=    1 NMatS0=      1 NMatT0=    0 NMatD0=    1 NMtDS0=    0 NMtDT0=    0
 Petite list used in FoFCou.
 Requested convergence on RMS density matrix=1.00D-08 within 128 cycles.
 Requested convergence on MAX density matrix=1.00D-06.
 Requested convergence on             energy=1.00D-06.
 No special actions if energy rises.
 Integral accuracy reduced to 1.0D-05 until final iterations.
 Initial convergence to 1.0D-05 achieved.  Increase integral accuracy.
 SCF Done:  E(RB3LYP) =  -249.711435696     A.U. after    9 cycles
            NFock=  9  Conv=0.78D-08     -V/T= 2.0093
 Calling FoFJK, ICntrl=      2127 FMM=F ISym2X=0 I1Cent= 0 IOpClX= 0 NMat=1 NMatS=1 NMatT=0.
 ***** Axes restored to original set *****
 -------------------------------------------------------------------
 Center     Atomic                   Forces (Hartrees/Bohr)
 Number     Number              X              Y              Z
 -------------------------------------------------------------------
      1        7           0.000665443    0.000193571    0.000286936
      2        6          -0.000690823    0.000410789    0.000438349
      3        6           0.000468949   -0.000213578    0.001198732
      4        8          -0.000455771   -0.000015461   -0.000461551
      5        6           0.000846433   -0.000125307   -0.000215130
      6        1          -0.000125342   -0.000198695   -0.000006296
      7        1          -0.000220510    0.000156744   -0.000400073
      8        1           0.000088654   -0.000328972   -0.000346507
      9        1          -0.000067275    0.000320232   -0.000077885
     10        1          -0.000012593    0.000131129   -0.000143287
     11        1          -0.000247586   -0.000121654    0.000106744
     12        1          -0.000213622    0.000023477   -0.000032167
     13        1          -0.000145463   -0.000043793   -0.000123740
     14        1           0.000109506   -0.000188484   -0.000224126
 -------------------------------------------------------------------
 Cartesian Forces:  Max     0.001198732 RMS     0.000353525

 GradGradGradGradGradGradGradGradGradGradGradGradGradGradGradGradGradGrad
 Berny optimization.
 Using GEDIIS/GDIIS optimizer.
 FormGI is forming the generalized inverse of G from B-inverse, IUseBI=4.
 Internal  Forces:  Max     0.001127645 RMS     0.000299874
 Search for a local minimum.
 Step number   3 out of a maximum of   66
 All quantities printed in internal units (Hartrees-Bohrs-Radians)
 Mixed Optimization -- En-DIIS/RFO-DIIS
 Swapping is turned off.
 Update second derivatives using D2CorX and points    1    2    3
 DE= -1.52D-04 DEPred=-1.47D-04 R= 1.04D+00
 TightC=F SS=  1.41D+00  RLast= 1.01D-01 DXNew= 8.4853D-01 3.0236D-01
 Trust test= 1.04D+00 RLast= 1.01D-01 DXMaxT set to 5.05D-01
 ITU=  1  1  0
     Eigenvalues ---    0.00235   0.00673   0.01365   0.01391   0.04443
     Eigenvalues ---    0.04477   0.04589   0.05583   0.05848   0.08978
     Eigenvalues ---    0.09907   0.10468   0.11641   0.12706   0.14036
     Eigenvalues ---    0.15975   0.16000   0.16000   0.16025   0.16645
     Eigenvalues ---    0.21320   0.22462   0.27958   0.30085   0.34175
     Eigenvalues ---    0.34570   0.34622   0.34694   0.34721   0.34779
     Eigenvalues ---    0.35076   0.37224   0.41956   0.45108   0.45690
     Eigenvalues ---    0.48371
 En-DIIS/RFO-DIIS/Sim-DIIS IScMMF=       -3 using points:     3    2
 RFO step:  Lambda=-5.65325735D-05.
 DidBck=F Rises=F RFO-DIIS coefs:    1.51825   -0.51825
 Iteration  1 RMS(Cart)=  0.01072247 RMS(Int)=  0.00012360
 Iteration  2 RMS(Cart)=  0.00012465 RMS(Int)=  0.00000785
 Iteration  3 RMS(Cart)=  0.00000002 RMS(Int)=  0.00000785
 Variable       Old X    -DE/DX   Delta X   Delta X   Delta X     New X
                                 (Linear)    (Quad)   (Total)
    R1        2.76721   0.00008  -0.00074   0.00080   0.00006   2.76727
    R2        1.92030   0.00009   0.00087  -0.00022   0.00065   1.92095
    R3        1.92398   0.00001   0.00106  -0.00050   0.00056   1.92454
    R4        2.89077   0.00031   0.00254  -0.00067   0.00186   2.89264
    R5        2.08572  -0.00021   0.00073  -0.00084  -0.00011   2.08561
    R6        2.07111  -0.00005   0.00076  -0.00051   0.00025   2.07135
    R7        2.67983  -0.00101   0.00218  -0.00408  -0.00190   2.67793
    R8        2.08073  -0.00018   0.00054  -0.00069  -0.00014   2.08059
    R9        2.07349  -0.00029   0.00095  -0.00133  -0.00038   2.07311
   R10        2.67206  -0.00073   0.00131  -0.00283  -0.00152   2.67054
   R11        2.08112  -0.00007   0.00065  -0.00039   0.00027   2.08139
   R12        2.07731   0.00019   0.00062   0.00040   0.00101   2.07832
   R13        2.06544  -0.00030   0.00048  -0.00115  -0.00067   2.06477
    A1        1.92096   0.00006  -0.00048   0.00022  -0.00026   1.92070
    A2        1.91210   0.00013  -0.00014   0.00045   0.00031   1.91241
    A3        1.85239  -0.00016  -0.00262  -0.00017  -0.00279   1.84960
    A4        1.90607  -0.00028  -0.00172  -0.00062  -0.00234   1.90373
    A5        2.01290  -0.00032  -0.00460  -0.00007  -0.00467   2.00823
    A6        1.87928   0.00027   0.00094   0.00115   0.00210   1.88138
    A7        1.88400   0.00051   0.00177   0.00258   0.00433   1.88833
    A8        1.91356  -0.00007   0.00358  -0.00236   0.00122   1.91478
    A9        1.86645  -0.00011   0.00049  -0.00090  -0.00042   1.86603
   A10        1.98007  -0.00068   0.00358  -0.00543  -0.00185   1.97822
   A11        1.91009   0.00008  -0.00360   0.00147  -0.00213   1.90796
   A12        1.90715   0.00020  -0.00144   0.00239   0.00093   1.90809
   A13        1.94107   0.00026  -0.00140   0.00157   0.00017   1.94124
   A14        1.84427   0.00024   0.00297  -0.00036   0.00261   1.84688
   A15        1.87726  -0.00008  -0.00002   0.00061   0.00058   1.87784
   A16        1.98867  -0.00113   0.00691  -0.00929  -0.00238   1.98628
   A17        1.94503   0.00029  -0.00219   0.00335   0.00115   1.94619
   A18        1.96938  -0.00009  -0.00114   0.00014  -0.00102   1.96837
   A19        1.86774  -0.00014   0.00709  -0.00569   0.00139   1.86913
   A20        1.88891  -0.00014  -0.00397   0.00137  -0.00262   1.88629
   A21        1.89929   0.00000   0.00076   0.00002   0.00077   1.90007
   A22        1.89179   0.00007  -0.00024   0.00069   0.00044   1.89223
    D1        3.09601  -0.00027  -0.01081  -0.01726  -0.02808   3.06793
    D2       -1.06259  -0.00004  -0.01308  -0.01440  -0.02747  -1.09007
    D3        1.01934  -0.00019  -0.01469  -0.01476  -0.02944   0.98990
    D4       -1.15668  -0.00034  -0.01434  -0.01708  -0.03143  -1.18811
    D5        0.96791  -0.00011  -0.01661  -0.01422  -0.03082   0.93708
    D6        3.04984  -0.00027  -0.01822  -0.01458  -0.03279   3.01705
    D7        3.07514  -0.00007  -0.00814   0.01299   0.00484   3.07998
    D8       -1.02905  -0.00016  -0.01013   0.01222   0.00208  -1.02696
    D9        1.02237  -0.00009  -0.01311   0.01520   0.00210   1.02446
   D10        0.87442   0.00017  -0.00246   0.01175   0.00930   0.88372
   D11        3.05342   0.00008  -0.00445   0.01099   0.00654   3.05996
   D12       -1.17835   0.00016  -0.00743   0.01397   0.00655  -1.17180
   D13       -1.15281   0.00006  -0.00592   0.01265   0.00672  -1.14609
   D14        1.02619  -0.00003  -0.00791   0.01188   0.00396   1.03015
   D15        3.07760   0.00004  -0.01088   0.01486   0.00397   3.08158
   D16        1.34212  -0.00008   0.00974  -0.00743   0.00230   1.34442
   D17       -0.82009   0.00012   0.01289  -0.00650   0.00639  -0.81371
   D18       -2.85206  -0.00006   0.01192  -0.00782   0.00411  -2.84795
   D19        0.97783  -0.00010  -0.01009   0.00049  -0.00959   0.96824
   D20       -1.15158  -0.00007  -0.00239  -0.00389  -0.00628  -1.15786
   D21        3.05230  -0.00002  -0.00603  -0.00110  -0.00713   3.04517
         Item               Value     Threshold  Converged?
 Maximum Force            0.001128     0.000450     NO 
 RMS     Force            0.000300     0.000300     YES
 Maximum Displacement     0.038719     0.001800     NO 
 RMS     Displacement     0.010735     0.001200     NO 
 Predicted change in Energy=-2.844039D-05
 GradGradGradGradGradGradGradGradGradGradGradGradGradGradGradGradGradGrad

                          Input orientation:                          
 ---------------------------------------------------------------------
 Center     Atomic      Atomic             Coordinates (Angstroms)
 Number     Number       Type             X           Y           Z
 ---------------------------------------------------------------------
      1          7           0        0.222475   -1.327027   -2.419504
      2          6           0       -0.220958   -0.354681   -1.418352
      3          6           0        0.744602   -0.383526   -0.230935
      4          8           0        0.444190    0.583215    0.760696
      5          6           0       -0.646972    0.232341    1.587350
      6          1           0       -0.446615   -1.370290   -3.183548
      7          1           0        1.099747   -1.015553   -2.832492
      8          1           0       -0.294067    0.686226   -1.777837
      9          1           0       -1.223488   -0.648746   -1.086805
     10          1           0        0.767176   -1.398301    0.195588
     11          1           0        1.757407   -0.148291   -0.580783
     12          1           0       -0.493476   -0.748722    2.063890
     13          1           0       -1.601567    0.201235    1.042058
     14          1           0       -0.718755    0.995820    2.365674
 ---------------------------------------------------------------------
                    Distance matrix (angstroms):
                    1          2          3          4          5
     1  N    0.000000
     2  C    1.464376   0.000000
     3  C    2.439805   1.530718   0.000000
     4  O    3.716430   2.463802   1.417099   0.000000
     5  C    4.386622   3.091978   2.371061   1.413189   0.000000
     6  H    1.016521   2.048976   3.333260   4.490743   5.036868
     7  H    1.018421   2.044702   2.700682   3.987081   4.913580
     8  H    2.175256   1.103658   2.148513   2.645710   3.413948
     9  H    2.080135   1.096113   2.162460   2.777073   2.873985
    10  H    2.672169   2.161100   1.100999   2.085683   2.568231
    11  H    2.669519   2.158250   1.097043   2.014747   3.259865
    12  H    4.576882   3.515045   2.632950   2.086047   1.101425
    13  H    4.200610   2.875541   2.732575   2.100046   1.099802
    14  H    5.401802   4.048519   3.284264   2.024509   1.092630
                    6          7          8          9         10
     6  H    0.000000
     7  H    1.624905   0.000000
     8  H    2.495707   2.439480   0.000000
     9  H    2.349572   2.929060   1.767343   0.000000
    10  H    3.590631   3.070239   3.060375   2.483768   0.000000
    11  H    3.622896   2.500970   2.517518   3.064677   1.773649
    12  H    5.284330   5.155979   4.105814   3.235705   2.345581
    13  H    4.653960   4.877479   3.145883   2.323245   2.980935
    14  H    6.038742   5.862892   4.176708   3.857326   3.556554
                   11         12         13         14
    11  H    0.000000
    12  H    3.524385   0.000000
    13  H    3.746796   1.781692   0.000000
    14  H    4.015218   1.784727   1.778393   0.000000
 Stoichiometry    C3H9NO
 Framework group  C1[X(C3H9NO)]
 Deg. of freedom    36
 Full point group                 C1      NOp   1
 Largest Abelian subgroup         C1      NOp   1
 Largest concise Abelian subgroup C1      NOp   1
                         Standard orientation:                         
 ---------------------------------------------------------------------
 Center     Atomic      Atomic             Coordinates (Angstroms)
 Number     Number       Type             X           Y           Z
 ---------------------------------------------------------------------
      1          7           0        2.306541   -0.126270    0.256972
      2          6           0        0.985734   -0.384363   -0.320308
      3          6           0       -0.003035    0.658571    0.206686
      4          8           0       -1.297415    0.540908   -0.358030
      5          6           0       -2.062028   -0.516990    0.183562
      6          1           0        2.959256   -0.851485   -0.028233
      7          1           0        2.676959    0.746344   -0.115207
      8          1           0        0.946594   -0.369953   -1.423177
      9          1           0        0.671274   -1.385333   -0.003071
     10          1           0       -0.040926    0.601958    1.305575
     11          1           0        0.350221    1.661918   -0.061656
     12          1           0       -2.143985   -0.436401    1.278973
     13          1           0       -1.648161   -1.507454   -0.055730
     14          1           0       -3.061730   -0.446271   -0.251680
 ---------------------------------------------------------------------
 Rotational constants (GHZ):          14.5639861           2.4170045           2.2684413
 Standard basis: 6-31G(d,p) (6D, 7F)
 There are   120 symmetry adapted cartesian basis functions of A   symmetry.
 There are   120 symmetry adapted basis functions of A   symmetry.
   120 basis functions,   203 primitive gaussians,   120 cartesian basis functions
    21 alpha electrons       21 beta electrons
       nuclear repulsion energy       191.1058916140 Hartrees.
 NAtoms=   14 NActive=   14 NUniq=   14 SFac= 1.00D+00 NAtFMM=   60 NAOKFM=F Big=F
 Integral buffers will be    131072 words long.
 Raffenetti 2 integral format.
 Two-electron integral symmetry is turned on.
 Nuclear repulsion after empirical dispersion term =      191.0910911543 Hartrees.
 One-electron integrals computed using PRISM.
 NBasis=   120 RedAO= T EigKep=  3.99D-03  NBF=   120
 NBsUse=   120 1.00D-06 EigRej= -1.00D+00 NBFU=   120
 Initial guess from the checkpoint file:  "N1_conf-5.chk"
 B after Tr=     0.000000   -0.000000    0.000000
         Rot=    0.999998   -0.002224    0.000009   -0.000122 Ang=  -0.26 deg.
 ExpMin= 1.61D-01 ExpMax= 5.48D+03 ExpMxC= 8.25D+02 IAcc=3 IRadAn=         5 AccDes= 0.00D+00
 Harris functional with IExCor=  402 and IRadAn=       5 diagonalized for initial guess.
 HarFok:  IExCor=  402 AccDes= 0.00D+00 IRadAn=         5 IDoV= 1 UseB2=F ITyADJ=14
 ICtDFT=  3500011 ScaDFX=  1.000000  1.000000  1.000000  1.000000
 FoFCou: FMM=F IPFlag=           0 FMFlag=      100000 FMFlg1=           0
         NFxFlg=           0 DoJE=T BraDBF=F KetDBF=T FulRan=T
         wScrn=  0.000000 ICntrl=       500 IOpCl=  0 I1Cent=   200000004 NGrid=           0
         NMat0=    1 NMatS0=      1 NMatT0=    0 NMatD0=    1 NMtDS0=    0 NMtDT0=    0
 Petite list used in FoFCou.
 Requested convergence on RMS density matrix=1.00D-08 within 128 cycles.
 Requested convergence on MAX density matrix=1.00D-06.
 Requested convergence on             energy=1.00D-06.
 No special actions if energy rises.
 Integral accuracy reduced to 1.0D-05 until final iterations.
 Initial convergence to 1.0D-05 achieved.  Increase integral accuracy.
 SCF Done:  E(RB3LYP) =  -249.711473817     A.U. after    9 cycles
            NFock=  9  Conv=0.34D-08     -V/T= 2.0093
 Calling FoFJK, ICntrl=      2127 FMM=F ISym2X=0 I1Cent= 0 IOpClX= 0 NMat=1 NMatS=1 NMatT=0.
 ***** Axes restored to original set *****
 -------------------------------------------------------------------
 Center     Atomic                   Forces (Hartrees/Bohr)
 Number     Number              X              Y              Z
 -------------------------------------------------------------------
      1        7           0.000400330   -0.000081891   -0.000517984
      2        6          -0.000075059    0.000396132    0.000087242
      3        6          -0.000242393   -0.000198818    0.000366461
      4        8          -0.000017018    0.000221934    0.000071372
      5        6           0.000026733   -0.000371991   -0.000338443
      6        1          -0.000042876   -0.000197139    0.000211354
      7        1          -0.000297186   -0.000000274    0.000009061
      8        1           0.000060213   -0.000190568    0.000203040
      9        1           0.000209103    0.000132487   -0.000078896
     10        1           0.000092056    0.000108018   -0.000155905
     11        1          -0.000219910   -0.000041116    0.000082594
     12        1          -0.000004898    0.000153388    0.000045486
     13        1           0.000010537    0.000099536    0.000094516
     14        1           0.000100369   -0.000029700   -0.000079897
 -------------------------------------------------------------------
 Cartesian Forces:  Max     0.000517984 RMS     0.000197120

 GradGradGradGradGradGradGradGradGradGradGradGradGradGradGradGradGradGrad
 Berny optimization.
 Using GEDIIS/GDIIS optimizer.
 FormGI is forming the generalized inverse of G from B-inverse, IUseBI=4.
 Internal  Forces:  Max     0.000407285 RMS     0.000131967
 Search for a local minimum.
 Step number   4 out of a maximum of   66
 All quantities printed in internal units (Hartrees-Bohrs-Radians)
 Mixed Optimization -- En-DIIS/RFO-DIIS
 Swapping is turned off.
 Update second derivatives using D2CorX and points    1    2    3    4
 DE= -3.81D-05 DEPred=-2.84D-05 R= 1.34D+00
 TightC=F SS=  1.41D+00  RLast= 7.78D-02 DXNew= 8.4853D-01 2.3345D-01
 Trust test= 1.34D+00 RLast= 7.78D-02 DXMaxT set to 5.05D-01
 ITU=  1  1  1  0
     Eigenvalues ---    0.00237   0.00337   0.01382   0.01388   0.04472
     Eigenvalues ---    0.04550   0.04922   0.05608   0.05847   0.09114
     Eigenvalues ---    0.10402   0.10685   0.11637   0.12970   0.14027
     Eigenvalues ---    0.15941   0.16000   0.16000   0.16128   0.16842
     Eigenvalues ---    0.21996   0.22897   0.28356   0.29887   0.34542
     Eigenvalues ---    0.34580   0.34617   0.34720   0.34754   0.34938
     Eigenvalues ---    0.35108   0.38045   0.41986   0.45676   0.45923
     Eigenvalues ---    0.47260
 En-DIIS/RFO-DIIS/Sim-DIIS IScMMF=       -3 using points:     4    3    2
 RFO step:  Lambda=-2.89204205D-05.
 DidBck=F Rises=F RFO-DIIS coefs:    1.80258   -0.58513   -0.21746
 Iteration  1 RMS(Cart)=  0.01016471 RMS(Int)=  0.00014556
 Iteration  2 RMS(Cart)=  0.00014527 RMS(Int)=  0.00000565
 Iteration  3 RMS(Cart)=  0.00000002 RMS(Int)=  0.00000565
 Variable       Old X    -DE/DX   Delta X   Delta X   Delta X     New X
                                 (Linear)    (Quad)   (Total)
    R1        2.76727   0.00041  -0.00026   0.00155   0.00128   2.76855
    R2        1.92095  -0.00012   0.00088  -0.00067   0.00021   1.92116
    R3        1.92454  -0.00026   0.00089  -0.00102  -0.00012   1.92441
    R4        2.89264  -0.00009   0.00256  -0.00181   0.00075   2.89338
    R5        2.08561  -0.00025   0.00022  -0.00079  -0.00057   2.08504
    R6        2.07135  -0.00025   0.00052  -0.00105  -0.00053   2.07082
    R7        2.67793  -0.00012  -0.00061   0.00003  -0.00058   2.67735
    R8        2.08059  -0.00016   0.00011  -0.00045  -0.00034   2.08025
    R9        2.07311  -0.00024   0.00009  -0.00073  -0.00065   2.07246
   R10        2.67054  -0.00023  -0.00067  -0.00034  -0.00102   2.66952
   R11        2.08139  -0.00012   0.00049  -0.00048   0.00001   2.08140
   R12        2.07832  -0.00006   0.00107  -0.00060   0.00047   2.07879
   R13        2.06477  -0.00008  -0.00034  -0.00004  -0.00037   2.06440
    A1        1.92070   0.00004  -0.00041   0.00074   0.00033   1.92103
    A2        1.91241  -0.00000   0.00019   0.00004   0.00022   1.91263
    A3        1.84960   0.00003  -0.00334   0.00246  -0.00088   1.84872
    A4        1.90373   0.00021  -0.00260   0.00240  -0.00019   1.90354
    A5        2.00823   0.00001  -0.00568   0.00483  -0.00084   2.00739
    A6        1.88138  -0.00004   0.00208  -0.00179   0.00030   1.88168
    A7        1.88833  -0.00007   0.00422  -0.00225   0.00195   1.89028
    A8        1.91478  -0.00015   0.00249  -0.00311  -0.00063   1.91415
    A9        1.86603   0.00002  -0.00013  -0.00049  -0.00064   1.86539
   A10        1.97822  -0.00005   0.00002   0.00030   0.00032   1.97854
   A11        1.90796  -0.00000  -0.00322   0.00160  -0.00163   1.90634
   A12        1.90809   0.00000   0.00015  -0.00080  -0.00066   1.90742
   A13        1.94124   0.00011  -0.00045   0.00202   0.00157   1.94281
   A14        1.84688  -0.00002   0.00334  -0.00264   0.00069   1.84757
   A15        1.87784  -0.00004   0.00046  -0.00073  -0.00028   1.87757
   A16        1.98628  -0.00025   0.00099  -0.00139  -0.00040   1.98588
   A17        1.94619   0.00010   0.00001   0.00077   0.00076   1.94695
   A18        1.96837   0.00013  -0.00129   0.00196   0.00066   1.96903
   A19        1.86913  -0.00024   0.00409  -0.00422  -0.00014   1.86899
   A20        1.88629   0.00007  -0.00377   0.00290  -0.00088   1.88541
   A21        1.90007  -0.00005   0.00094  -0.00109  -0.00015   1.89991
   A22        1.89223  -0.00002   0.00025  -0.00054  -0.00029   1.89194
    D1        3.06793  -0.00021  -0.02707  -0.00556  -0.03264   3.03529
    D2       -1.09007  -0.00013  -0.02754  -0.00330  -0.03083  -1.12090
    D3        0.98990  -0.00012  -0.02979  -0.00216  -0.03195   0.95795
    D4       -1.18811  -0.00015  -0.03124  -0.00214  -0.03339  -1.22150
    D5        0.93708  -0.00007  -0.03171   0.00013  -0.03158   0.90551
    D6        3.01705  -0.00007  -0.03396   0.00126  -0.03270   2.98435
    D7        3.07998  -0.00002   0.00047  -0.00144  -0.00097   3.07901
    D8       -1.02696   0.00009  -0.00258   0.00265   0.00006  -1.02690
    D9        1.02446   0.00005  -0.00382   0.00223  -0.00159   1.02287
   D10        0.88372  -0.00013   0.00643  -0.00753  -0.00109   0.88263
   D11        3.05996  -0.00002   0.00338  -0.00345  -0.00006   3.05990
   D12       -1.17180  -0.00006   0.00214  -0.00387  -0.00172  -1.17351
   D13       -1.14609  -0.00003   0.00291  -0.00399  -0.00109  -1.14718
   D14        1.03015   0.00008  -0.00014   0.00009  -0.00005   1.03009
   D15        3.08158   0.00004  -0.00138  -0.00033  -0.00171   3.07987
   D16        1.34442   0.00002   0.00593  -0.00206   0.00386   1.34828
   D17       -0.81371  -0.00002   0.01054  -0.00598   0.00456  -0.80915
   D18       -2.84795  -0.00003   0.00830  -0.00462   0.00368  -2.84427
   D19        0.96824   0.00011  -0.01193   0.00467  -0.00725   0.96099
   D20       -1.15786  -0.00015  -0.00605  -0.00109  -0.00714  -1.16501
   D21        3.04517  -0.00004  -0.00826   0.00117  -0.00709   3.03808
         Item               Value     Threshold  Converged?
 Maximum Force            0.000407     0.000450     YES
 RMS     Force            0.000132     0.000300     YES
 Maximum Displacement     0.039529     0.001800     NO 
 RMS     Displacement     0.010163     0.001200     NO 
 Predicted change in Energy=-1.427603D-05
 GradGradGradGradGradGradGradGradGradGradGradGradGradGradGradGradGradGrad

                          Input orientation:                          
 ---------------------------------------------------------------------
 Center     Atomic      Atomic             Coordinates (Angstroms)
 Number     Number       Type             X           Y           Z
 ---------------------------------------------------------------------
      1          7           0        0.229842   -1.325974   -2.419402
      2          6           0       -0.216571   -0.352967   -1.419222
      3          6           0        0.744934   -0.383255   -0.228047
      4          8           0        0.443160    0.583955    0.762277
      5          6           0       -0.647992    0.232684    1.587854
      6          1           0       -0.451579   -1.391208   -3.171035
      7          1           0        1.092310   -0.999910   -2.851697
      8          1           0       -0.288730    0.687251   -1.779967
      9          1           0       -1.220082   -0.646191   -1.090846
     10          1           0        0.763755   -1.398586    0.196864
     11          1           0        1.758953   -0.150592   -0.575013
     12          1           0       -0.498019   -0.751150    2.059787
     13          1           0       -1.603708    0.207084    1.043740
     14          1           0       -0.716573    0.992559    2.369707
 ---------------------------------------------------------------------
                    Distance matrix (angstroms):
                    1          2          3          4          5
     1  N    0.000000
     2  C    1.465055   0.000000
     3  C    2.440508   1.531113   0.000000
     4  O    3.717044   2.464144   1.416793   0.000000
     5  C    4.388407   3.093804   2.370047   1.412651   0.000000
     6  H    1.016633   2.049883   3.332985   4.491410   5.032160
     7  H    1.018355   2.045407   2.717440   3.998854   4.925197
     8  H    2.175057   1.103358   2.150093   2.647515   3.417297
     9  H    2.080732   1.095832   2.162139   2.777354   2.876655
    10  H    2.671177   2.160114   1.100819   2.086371   2.566891
    11  H    2.668609   2.157855   1.096701   2.014749   3.258571
    12  H    4.574204   3.513014   2.629537   2.086111   1.101428
    13  H    4.207794   2.881665   2.735335   2.100219   1.100049
    14  H    5.404337   4.051719   3.282863   2.023801   1.092431
                    6          7          8          9         10
     6  H    0.000000
     7  H    1.624403   0.000000
     8  H    2.506309   2.429485   0.000000
     9  H    2.339409   2.927947   1.766458   0.000000
    10  H    3.580480   3.092025   3.060442   2.481916   0.000000
    11  H    3.628348   2.519732   2.519306   3.063716   1.773049
    12  H    5.270041   5.168531   4.105668   3.234019   2.341310
    13  H    4.652555   4.888741   3.151674   2.330602   2.983330
    14  H    6.037581   5.874100   4.182828   3.861923   3.553898
                   11         12         13         14
    11  H    0.000000
    12  H    3.520904   0.000000
    13  H    3.749105   1.781323   0.000000
    14  H    4.013278   1.784471   1.778248   0.000000
 Stoichiometry    C3H9NO
[...]
 ---------------------------------------------------------------------
 Center     Atomic      Atomic             Coordinates (Angstroms)
 Number     Number       Type             X           Y           Z
 ---------------------------------------------------------------------
      1          7           0        2.308441   -0.122078    0.252246
      2          6           0        0.984520   -0.382197   -0.318756
      3          6           0       -0.004412    0.658934    0.211500
      4          8           0       -1.298343    0.543264   -0.354770
      5          6           0       -2.060985   -0.519310    0.179481
      6          1           0        2.948248   -0.872012    0.005451
      7          1           0        2.696893    0.725848   -0.155318
      8          1           0        0.940081   -0.369420   -1.420886
      9          1           0        0.673037   -1.382847    0.000794
     10          1           0       -0.041946    0.599510    1.309961
     11          1           0        0.348687    1.662784   -0.053367
     12          1           0       -2.138824   -0.449966    1.275743
     13          1           0       -1.650717   -1.507922   -0.072911
     14          1           0       -3.062542   -0.442106   -0.250382
 ---------------------------------------------------------------------
 Rotational constants (GHZ):          14.5716142           2.4165888           2.2669775
 Standard basis: def2TZVP (5D, 7F)
 There are   234 symmetry adapted cartesian basis functions of A   symmetry.
 There are   209 symmetry adapted basis functions of A   symmetry.
   209 basis functions,   327 primitive gaussians,   234 cartesian basis functions
    21 alpha electrons       21 beta electrons
       nuclear repulsion energy       191.0943473527 Hartrees.
 NAtoms=   14 NActive=   14 NUniq=   14 SFac= 1.00D+00 NAtFMM=   60 NAOKFM=F Big=F
 Integral buffers will be    131072 words long.
 Raffenetti 2 integral format.
 Two-electron integral symmetry is turned on.
 One-electron integrals computed using PRISM.
   1 Symmetry operations used in ECPInt.
 ECPInt:  NShTT=    4186 NPrTT=   12072 LenC2=    4133 LenP2D=    9962.
 LDataN:  DoStor=T MaxTD1= 6 Len=  172
 NBasis=   209 RedAO= T EigKep=  2.74D-04  NBF=   209
 NBsUse=   209 1.00D-06 EigRej= -1.00D+00 NBFU=   209
 Initial guess from the checkpoint file:  "N1_conf-5.chk"
 B after Tr=    -0.000000    0.000000    0.000000
         Rot=    1.000000   -0.000000    0.000000    0.000000 Ang=   0.00 deg.
 Requested convergence on RMS density matrix=1.00D-08 within 128 cycles.
 Requested convergence on MAX density matrix=1.00D-06.
 Requested convergence on             energy=1.00D-06.
 No special actions if energy rises.
 SCF Done:  E(RM062X) =  -249.667819859     A.U. after    1 cycles
            NFock=  1  Conv=0.16D-08     -V/T= 2.0052
 DoSCS=F DFT=T ScalE2(SS,OS)=  1.000000  1.000000
 Range of M.O.s used for correlation:     1   209
 NBasis=   209 NAE=    21 NBE=    21 NFC=     0 NFV=     0
 NROrb=    209 NOA=    21 NOB=    21 NVA=   188 NVB=   188

 **** Warning!!: The largest alpha MO coefficient is  0.13973124D+02

          Differentiating once with respect to magnetic field using GIAOs.
          Electric field/nuclear overlap derivatives assumed to be zero.
 FoFCou: FMM=F IPFlag=           0 FMFlag=      100000 FMFlg1=           0
         NFxFlg=           0 DoJE=F BraDBF=F KetDBF=T FulRan=T
         wScrn=  0.000000 ICntrl=      6100 IOpCl=  0 I1Cent=           7 NGrid=          14
         NMat0=    1 NMatS0=      1 NMatT0=    0 NMatD0=    1 NMtDS0=    0 NMtDT0=    0
 Symmetry not used in FoFCou.
   1 Symmetry operations used in ECPInt.
 ECPInt:  NShTT=    4186 NPrTT=   12072 LenC2=    4187 LenP2D=   12072.
 LDataN:  DoStor=T MaxTD1= 7 Len=  274
 FoFJK:  IHMeth= 1 ICntrl=    6127 DoSepK=F KAlg= 0 I1Cent=           0 FoldK=F
 IRaf=         1 NMat=       1 IRICut=       1 DoRegI=T DoRafI=F ISym2E= 0 IDoP0=0 IntGTp=1.
          There are     3 degrees of freedom in the 1st order CPHF.  IDoFFX=0 NUNeed=     3.
      3 vectors produced by pass  0 Test12= 1.32D-13 3.33D-08 XBig12= 3.10D+00 3.46D-01.
 AX will form     3 AO Fock derivatives at one time.
      3 vectors produced by pass  1 Test12= 1.32D-13 3.33D-08 XBig12= 1.20D-02 1.95D-02.
      3 vectors produced by pass  2 Test12= 1.32D-13 3.33D-08 XBig12= 8.07D-05 3.73D-03.
      3 vectors produced by pass  3 Test12= 1.32D-13 3.33D-08 XBig12= 1.11D-06 4.52D-04.
      3 vectors produced by pass  4 Test12= 1.32D-13 3.33D-08 XBig12= 1.03D-08 2.42D-05.
      3 vectors produced by pass  5 Test12= 1.32D-13 3.33D-08 XBig12= 8.51D-11 1.74D-06.
      3 vectors produced by pass  6 Test12= 1.32D-13 3.33D-08 XBig12= 7.53D-13 1.41D-07.
 InvSVY:  IOpt=1 It=  1 EMax= 4.44D-16
 Solved reduced A of dimension    21 with     3 vectors.
 Calculating GIAO nuclear magnetic shielding tensors.
 SCF GIAO Magnetic shielding tensor (ppm):
      1  N    Isotropic =   238.2211   Anisotropy =    33.2089
   XX=   245.7739   YX=    -6.4811   ZX=     6.6813
   XY=     0.8174   YY=   259.3864   ZY=     0.4749
   XZ=    17.4619   YZ=    -4.1148   ZZ=   209.5030
   Eigenvalues:   205.8367   248.4662   260.3603
      2  C    Isotropic =   142.1548   Anisotropy =    38.4712
   XX=   160.6643   YX=     1.5528   ZX=    10.1577
   XY=    -4.8554   YY=   119.6713   ZY=     8.8225
   XZ=    13.9515   YZ=    12.6054   ZZ=   146.1289
   Eigenvalues:   115.1382   143.5241   167.8023
      3  C    Isotropic =   107.7126   Anisotropy =    82.0879
   XX=   153.8230   YX=    15.6571   ZX=    26.9628
   XY=    -3.8595   YY=    77.6284   ZY=     7.9269
   XZ=    19.6793   YZ=     9.7528   ZZ=    91.6864
   Eigenvalues:    72.9538    87.7461   162.4379
      4  O    Isotropic =   316.4872   Anisotropy =    57.7193
   XX=   324.9322   YX=   -18.8722   ZX=    20.9508
   XY=   -18.6894   YY=   292.3224   ZY=    -0.0463
   XZ=    19.8000   YZ=   -17.1289   ZZ=   332.2069
   Eigenvalues:   283.7456   310.7492   354.9667
      5  C    Isotropic =   126.9664   Anisotropy =    86.2800
   XX=   126.8415   YX=    39.7438   ZX=   -17.7938
   XY=    43.6546   YY=   135.9339   ZY=   -20.9791
   XZ=   -15.1957   YZ=   -22.4918   ZZ=   118.1237
   Eigenvalues:    89.1938   107.2189   184.4864
      6  H    Isotropic =    31.3761   Anisotropy =    14.8531
   XX=    35.9474   YX=    -7.4471   ZX=    -0.8323
   XY=    -5.0359   YY=    33.7245   ZY=     2.0285
   XZ=     0.0620   YZ=     1.1348   ZZ=    24.4566
   Eigenvalues:    24.1418    28.7084    41.2782
      7  H    Isotropic =    32.0071   Anisotropy =    13.3774
   XX=    33.8490   YX=     5.8791   ZX=    -1.4146
   XY=     4.0850   YY=    35.7645   ZY=    -4.5008
   XZ=    -1.3815   YZ=    -3.2353   ZZ=    26.4079
   Eigenvalues:    24.9952    30.1008    40.9254
      8  H    Isotropic =    29.2009   Anisotropy =     6.7723
   XX=    29.8491   YX=    -0.1891   ZX=     1.6988
   XY=     0.5486   YY=    24.5219   ZY=     1.3607
   XZ=     0.6042   YZ=     0.8101   ZZ=    33.2316
   Eigenvalues:    24.3884    29.4985    33.7157
      9  H    Isotropic =    28.8706   Anisotropy =     5.8157
   XX=    31.3933   YX=     1.7644   ZX=    -0.3364
   XY=     1.4273   YY=    30.8479   ZY=    -0.4926
   XZ=     0.3189   YZ=    -0.2982   ZZ=    24.3707
   Eigenvalues:    24.3455    29.5186    32.7478
     10  H    Isotropic =    28.6511   Anisotropy =     3.9768
   XX=    29.7863   YX=    -1.0031   ZX=     2.3530
   XY=     0.6460   YY=    26.1410   ZY=     2.2399
   XZ=    -0.3126   YZ=     1.4829   ZZ=    30.0260
   Eigenvalues:    25.3241    29.3269    31.3023
     11  H    Isotropic =    28.3950   Anisotropy =     5.3512
   XX=    30.8077   YX=     2.2719   ZX=     0.2872
   XY=     0.5160   YY=    30.1217   ZY=    -0.3338
   XZ=     1.6474   YZ=     0.0870   ZZ=    24.2555
   Eigenvalues:    24.0977    29.1248    31.9625
     12  H    Isotropic =    29.0065   Anisotropy =     8.1575
   XX=    28.4699   YX=     1.7022   ZX=    -4.8552
   XY=     1.4822   YY=    27.6840   ZY=    -3.1923
   XZ=    -2.5479   YZ=    -0.5443   ZZ=    30.8657
   Eigenvalues:    25.7469    26.8278    34.4449
     13  H    Isotropic =    28.5236   Anisotropy =     8.0602
   XX=    28.0027   YX=     3.8394   ZX=    -1.1510
   XY=     1.0730   YY=    32.8593   ZY=     0.5201
   XZ=    -0.5677   YZ=    -0.5226   ZZ=    24.7088
   Eigenvalues:    24.4487    27.2251    33.8971
     14  H    Isotropic =    28.3938   Anisotropy =     8.8473
   XX=    32.9650   YX=     1.9916   ZX=     1.1610
   XY=     4.2981   YY=    26.7362   ZY=    -0.0691
   XZ=     0.0450   YZ=    -0.9140   ZZ=    25.4802
   Eigenvalues:    24.7592    26.1302    34.2920
 End of Minotr F.D. properties file   721 does not exist.
 End of Minotr F.D. properties file   722 does not exist.
 End of Minotr F.D. properties file   788 does not exist.

 **********************************************************************

            Population analysis using the SCF Density.

 **********************************************************************

 Orbital symmetries:
       Occupied  (A) (A) (A) (A) (A) (A) (A) (A) (A) (A) (A) (A)
                 (A) (A) (A) (A) (A) (A) (A) (A) (A)
       Virtual   (A) (A) (A) (A) (A) (A) (A) (A) (A) (A) (A) (A)
                 (A) (A) (A) (A) (A) (A) (A) (A) (A) (A) (A) (A)
                 (A) (A) (A) (A) (A) (A) (A) (A) (A) (A) (A) (A)
                 (A) (A) (A) (A) (A) (A) (A) (A) (A) (A) (A) (A)
                 (A) (A) (A) (A) (A) (A) (A) (A) (A) (A) (A) (A)
                 (A) (A) (A) (A) (A) (A) (A) (A) (A) (A) (A) (A)
                 (A) (A) (A) (A) (A) (A) (A) (A) (A) (A) (A) (A)
                 (A) (A) (A) (A) (A) (A) (A) (A) (A) (A) (A) (A)
                 (A) (A) (A) (A) (A) (A) (A) (A) (A) (A) (A) (A)
                 (A) (A) (A) (A) (A) (A) (A) (A) (A) (A) (A) (A)
                 (A) (A) (A) (A) (A) (A) (A) (A) (A) (A) (A) (A)
                 (A) (A) (A) (A) (A) (A) (A) (A) (A) (A) (A) (A)
                 (A) (A) (A) (A) (A) (A) (A) (A) (A) (A) (A) (A)
                 (A) (A) (A) (A) (A) (A) (A) (A) (A) (A) (A) (A)
                 (A) (A) (A) (A) (A) (A) (A) (A) (A) (A) (A) (A)
                 (A) (A) (A) (A) (A) (A) (A) (A)
 The electronic state is 1-A.
 Alpha  occ. eigenvalues --  -19.62482 -14.73175 -10.57735 -10.57585 -10.55849
 Alpha  occ. eigenvalues --   -1.15330  -0.99083  -0.83120  -0.76271  -0.68085
 Alpha  occ. eigenvalues --   -0.57832  -0.56463  -0.54265  -0.51960  -0.49645
 Alpha  occ. eigenvalues --   -0.46342  -0.44398  -0.42058  -0.37969  -0.33131
 Alpha  occ. eigenvalues --   -0.31350
 Alpha virt. eigenvalues --    0.06014   0.08197   0.09796   0.12101   0.12719
 Alpha virt. eigenvalues --    0.14209   0.15075   0.15892   0.16475   0.18762
 Alpha virt. eigenvalues --    0.21372   0.24075   0.24647   0.26278   0.26719
 Alpha virt. eigenvalues --    0.28506   0.31596   0.32963   0.36120   0.37268
 Alpha virt. eigenvalues --    0.39223   0.40071   0.42729   0.43930   0.45241
 Alpha virt. eigenvalues --    0.46853   0.47511   0.48394   0.50174   0.50562
 Alpha virt. eigenvalues --    0.53337   0.53890   0.55643   0.56105   0.57790
 Alpha virt. eigenvalues --    0.58971   0.62560   0.63872   0.69718   0.70776
 Alpha virt. eigenvalues --    0.71414   0.75184   0.79788   0.83005   0.86315
 Alpha virt. eigenvalues --    0.91276   0.92743   0.96602   0.97708   1.02860
 Alpha virt. eigenvalues --    1.04993   1.05846   1.07644   1.13707   1.16002
 Alpha virt. eigenvalues --    1.21243   1.23856   1.27982   1.34062   1.36696
 Alpha virt. eigenvalues --    1.42596   1.45986   1.47502   1.52215   1.56362
 Alpha virt. eigenvalues --    1.57488   1.58104   1.59365   1.61187   1.62080
 Alpha virt. eigenvalues --    1.64001   1.68380   1.74263   1.75540   1.77732
 Alpha virt. eigenvalues --    1.80396   1.84186   1.86367   1.89669   1.92380
 Alpha virt. eigenvalues --    1.93015   1.94624   1.97223   1.99625   2.01630
 Alpha virt. eigenvalues --    2.03544   2.04504   2.07166   2.12729   2.13545
 Alpha virt. eigenvalues --    2.14217   2.24253   2.27567   2.30964   2.34927
 Alpha virt. eigenvalues --    2.35618   2.37612   2.39394   2.43664   2.46346
 Alpha virt. eigenvalues --    2.47463   2.48335   2.51550   2.52983   2.56954
 Alpha virt. eigenvalues --    2.58092   2.60711   2.63149   2.64269   2.65652
 Alpha virt. eigenvalues --    2.69246   2.71077   2.73942   2.75827   2.78440
 Alpha virt. eigenvalues --    2.86810   2.90430   2.94683   2.98207   3.05366
 Alpha virt. eigenvalues --    3.07207   3.09700   3.11565   3.15562   3.18562
 Alpha virt. eigenvalues --    3.20696   3.20912   3.22994   3.26791   3.28332
 Alpha virt. eigenvalues --    3.31520   3.35763   3.38019   3.39337   3.43060
 Alpha virt. eigenvalues --    3.45383   3.49606   3.52074   3.53006   3.58862
 Alpha virt. eigenvalues --    3.61839   3.70176   3.74024   3.79214   3.81599
 Alpha virt. eigenvalues --    3.84200   3.86739   3.92894   4.08500   4.12257
 Alpha virt. eigenvalues --    4.16047   4.17732   4.28061   4.32120   4.33029
 Alpha virt. eigenvalues --    4.39402   4.45222   4.47290   4.50812   4.62567
 Alpha virt. eigenvalues --    4.74081   4.76403   4.80414   4.85310   4.88223
 Alpha virt. eigenvalues --    5.04354   5.07138   5.17181   5.23754   5.38109
 Alpha virt. eigenvalues --    5.41868   5.51593   5.72127   5.76539   5.84608
 Alpha virt. eigenvalues --    5.87055   6.10969   6.14707   6.68014   6.70400
 Alpha virt. eigenvalues --    6.88513   7.16469   7.17981  22.42040  22.49921
 Alpha virt. eigenvalues --   22.59585  32.02432  44.14501
          Condensed to atoms (all electrons):
               1          2          3          4          5          6
     1  N    6.708749   0.213610  -0.047584   0.005903   0.000055   0.364779
     2  C    0.213610   5.222850   0.190844  -0.060172   0.013482  -0.038947
     3  C   -0.047584   0.190844   5.020813   0.247493  -0.091093   0.011009
     4  O    0.005903  -0.060172   0.247493   8.061282   0.243906  -0.000446
     5  C    0.000055   0.013482  -0.091093   0.243906   4.854184  -0.000095
     6  H    0.364779  -0.038947   0.011009  -0.000446  -0.000095   0.480398
     7  H    0.367890  -0.047546  -0.005914   0.000025  -0.000043  -0.035587
     8  H   -0.045905   0.425237  -0.065001   0.012686   0.000359  -0.003697
     9  H   -0.027165   0.386664  -0.017339   0.002058  -0.001469  -0.008984
    10  H    0.022519  -0.109858   0.455905  -0.037848  -0.015859  -0.001009
    11  H   -0.002126  -0.041586   0.405011  -0.034830   0.009565  -0.000563
    12  H    0.000475  -0.013193   0.000379  -0.043010   0.415059  -0.000015
    13  H   -0.001315   0.020642  -0.012484  -0.048273   0.412828   0.000161
    14  H    0.000005   0.000108   0.007697  -0.033945   0.403249  -0.000003
               7          8          9         10         11         12
     1  N    0.367890  -0.045905  -0.027165   0.022519  -0.002126   0.000475
     2  C   -0.047546   0.425237   0.386664  -0.109858  -0.041586  -0.013193
     3  C   -0.005914  -0.065001  -0.017339   0.455905   0.405011   0.000379
     4  O    0.000025   0.012686   0.002058  -0.037848  -0.034830  -0.043010
     5  C   -0.000043   0.000359  -0.001469  -0.015859   0.009565   0.415059
     6  H   -0.035587  -0.003697  -0.008984  -0.001009  -0.000563  -0.000015
     7  H    0.485358  -0.009228   0.009704  -0.000754   0.005584   0.000028
     8  H   -0.009228   0.601552  -0.047737   0.013020  -0.010542   0.000786
     9  H    0.009704  -0.047737   0.586382  -0.006899   0.007608   0.001834
    10  H   -0.000754   0.013020  -0.006899   0.562652  -0.030929   0.012010
    11  H    0.005584  -0.010542   0.007608  -0.030929   0.566663   0.000634
    12  H    0.000028   0.000786   0.001834   0.012010   0.000634   0.586467
    13  H   -0.000070  -0.002007  -0.010399  -0.003596  -0.001282  -0.063276
    14  H    0.000004  -0.000256   0.000452  -0.000349   0.000039  -0.025041
              13         14
     1  N   -0.001315   0.000005
     2  C    0.020642   0.000108
     3  C   -0.012484   0.007697
     4  O   -0.048273  -0.033945
     5  C    0.412828   0.403249
     6  H    0.000161  -0.000003
     7  H   -0.000070   0.000004
     8  H   -0.002007  -0.000256
     9  H   -0.010399   0.000452
    10  H   -0.003596  -0.000349
    11  H   -0.001282   0.000039
    12  H   -0.063276  -0.025041
    13  H    0.612072  -0.027431
    14  H   -0.027431   0.533371
 Mulliken charges:
               1
     1  N   -0.559889
     2  C   -0.162134
     3  C   -0.099736
     4  O   -0.314831
     5  C   -0.244128
     6  H    0.232999
     7  H    0.230549
     8  H    0.130731
     9  H    0.125292
    10  H    0.140996
    11  H    0.126755
    12  H    0.126865
    13  H    0.124430
    14  H    0.142102
 Sum of Mulliken charges =  -0.00000
 Mulliken charges with hydrogens summed into heavy atoms:
               1
     1  N   -0.096341
     2  C    0.093889
     3  C    0.168015
     4  O   -0.314831
     5  C    0.149268
 Electronic spatial extent (au):  <R**2>=            574.1903
 Charge=              0.0000 electrons
 Dipole moment (field-independent basis, Debye):
    X=              0.7623    Y=             -1.0121    Z=             -0.4250  Tot=              1.3365
 Quadrupole moment (field-independent basis, Debye-Ang):
   XX=            -29.3987   YY=            -31.3093   ZZ=            -34.9614
   XY=              2.0169   XZ=             -4.8050   YZ=              0.3136
 Traceless Quadrupole moment (field-independent basis, Debye-Ang):
   XX=              2.4911   YY=              0.5805   ZZ=             -3.0716
   XY=              2.0169   XZ=             -4.8050   YZ=              0.3136
 Octapole moment (field-independent basis, Debye-Ang**2):
  XXX=              5.5669  YYY=              1.2561  ZZZ=             -2.0586  XYY=              5.8734
  XXY=             -4.8672  XXZ=             -8.1967  XZZ=             -3.8873  YZZ=              0.7229
  YYZ=             -0.6978  XYZ=             -1.3315
 Hexadecapole moment (field-independent basis, Debye-Ang**3):
 XXXX=           -496.3894 YYYY=           -105.4759 ZZZZ=            -72.9413 XXXY=             -3.7545
 XXXZ=            -17.5561 YYYX=             -2.6283 YYYZ=             -1.9542 ZZZX=             -5.2950
 ZZZY=             -0.4890 XXYY=           -104.1181 XXZZ=           -118.0395 YYZZ=            -32.0033
 XXYZ=             -0.4491 YYXZ=             -0.7933 ZZXY=             -0.2210
 N-N= 1.910943473527D+02 E-N=-9.648836224314D+02  KE= 2.483713663068D+02
 Unable to Open any file for archive entry.
 1\1\GINC-NOTCH162\SP\RM062X\def2TZVP\C3H9N1O1\U6032257\21-Feb-2022\0\\
 # M062X/def2tzvp int=(grid=ultrafine) nmr=giao guess=read geom=check\\
 N1.xyz\\0,1\N,0,0.2337350762,-1.3218826921,-2.4219753856\C,0,-0.214233
 4497,-0.3553395184,-1.416196919\C,0,0.7480171792,-0.3865768918,-0.2261
 514874\O,0,0.4468722635,0.5810123071,0.7644957073\C,0,-0.6500843085,0.
 2342084382,1.5845708251\H,0,-0.4571636445,-1.3996315219,-3.163107067\H
 ,0,1.0861060466,-0.9853870531,-2.86493954\H,0,-0.2901902796,0.68657941
 8,-1.770406915\H,0,-1.2160878235,-0.6538574225,-1.0881579417\H,0,0.768
 3779874,-1.4014910393,0.1993955388\H,0,1.7618102496,-0.1531512882,-0.5
 729701976\H,0,-0.5067614086,-0.7502956773,2.0566597491\H,0,-1.60338061
 47,0.21578457,1.0366091878\H,0,-0.7173172733,0.9937283712,2.3671744453
 \\Version=ES64L-G16RevC.01\State=1-A\HF=-249.6678199\RMSD=1.594e-09\Di
 pole=-0.374017,0.0063213,-0.3695187\Quadrupole=0.7379761,-4.2361558,3.
 4981797,-0.1155279,-1.3955563,-1.4685487\PG=C01 [X(C3H9N1O1)]\\@
 The archive entry for this job was punched.


 MANHOOD BEGINS BY TRYING TO SHAVE FACE,
 AND ENDS BY TRYING TO SAVE FACE.
 Job cpu time:       0 days  0 hours  4 minutes 31.1 seconds.
 Elapsed time:       0 days  0 hours  0 minutes  8.5 seconds.
 File lengths (MBytes):  RWF=     30 Int=      0 D2E=      0 Chk=      5 Scr=      1
 Normal termination of Gaussian 16 at Mon Feb 21 19:00:44 2022.
