 Entering Gaussian System, Link 0=/uufs/chpc.utah.edu/sys/installdir/gaussian16/C01/AVX2/g16/g16
 Input=N1_conf-1.com
 Output=N1_conf-1.log
 Initial command:
 /uufs/chpc.utah.edu/sys/installdir/gaussian16/C01/AVX2/g16/l1.exe "/scratch/local/u6032257/4038464/notchpeak.peaks/Gau-251973.inp" -scrdir="/scratch/local/u6032257/4038464/notchpeak.peaks/"
 Entering Link 1 = /uufs/chpc.utah.edu/sys/installdir/gaussian16/C01/AVX2/g16/l1.exe PID=    251975.
  
 Copyright (c) 1988-2019, Gaussian, Inc.  All Rights Reserved.
  
 This is part of the Gaussian(R) 16 program.  It is based on
 the Gaussian(R) 09 system (copyright 2009, Gaussian, Inc.),
 the Gaussian(R) 03 system (copyright 2003, Gaussian, Inc.),
 the Gaussian(R) 98 system (copyright 1998, Gaussian, Inc.),
 the Gaussian(R) 94 system (copyright 1995, Gaussian, Inc.),
 the Gaussian 92(TM) system (copyright 1992, Gaussian, Inc.),
 the Gaussian 90(TM) system (copyright 1990, Gaussian, Inc.),
 the Gaussian 88(TM) system (copyright 1988, Gaussian, Inc.),
 the Gaussian 86(TM) system (copyright 1986, Carnegie Mellon
 University), and the Gaussian 82(TM) system (copyright 1983,
 Carnegie Mellon University). Gaussian is a federally registered
 trademark of Gaussian, Inc.
  
 This software contains proprietary and confidential information,
 including trade secrets, belonging to Gaussian, Inc.
  
 This software is provided under written license and may be
 used, copied, transmitted, or stored only in accord with that
 written license.
  
 The following legend is applicable only to US Government
 contracts under FAR:
  
                    RESTRICTED RIGHTS LEGEND
  
 Use, reproduction and disclosure by the US Government is
 subject to restrictions as set forth in subparagraphs (a)
 and (c) of the Commercial Computer Software - Restricted
 Rights clause in FAR 52.227-19.
  
 Gaussian, Inc.
 340 Quinnipiac St., Bldg. 40, Wallingford CT 06492
  
  
 ---------------------------------------------------------------
 Warning -- This program may not be used in any manner that
 competes with the business of Gaussian, Inc. or will provide
 assistance to any competitor of Gaussian, Inc.  The licensee
 of this program is prohibited from giving any competitor of
 Gaussian, Inc. access to this program.  By using this program,
 the user acknowledges that Gaussian, Inc. is engaged in the
 business of creating and licensing software in the field of
 computational chemistry and represents and warrants to the
 licensee that it is not a competitor of Gaussian, Inc. and that
 it will not use this program in any manner prohibited above.
 ---------------------------------------------------------------
  

 Cite this work as:
 Gaussian 16, Revision C.01,
 M. J. Frisch, G. W. Trucks, H. B. Schlegel, G. E. Scuseria, 
 M. A. Robb, J. R. Cheeseman, G. Scalmani, V. Barone, 
 G. A. Petersson, H. Nakatsuji, X. Li, M. Caricato, A. V. Marenich, 
 J. Bloino, B. G. Janesko, R. Gomperts, B. Mennucci, H. P. Hratchian, 
 J. V. Ortiz, A. F. Izmaylov, J. L. Sonnenberg, D. Williams-Young, 
 F. Ding, F. Lipparini, F. Egidi, J. Goings, B. Peng, A. Petrone, 
 T. Henderson, D. Ranasinghe, V. G. Zakrzewski, J. Gao, N. Rega, 
 G. Zheng, W. Liang, M. Hada, M. Ehara, K. Toyota, R. Fukuda, 
 J. Hasegawa, M. Ishida, T. Nakajima, Y. Honda, O. Kitao, H. Nakai, 
 T. Vreven, K. Throssell, J. A. Montgomery, Jr., J. E. Peralta, 
 F. Ogliaro, M. J. Bearpark, J. J. Heyd, E. N. Brothers, K. N. Kudin, 
 V. N. Staroverov, T. A. Keith, R. Kobayashi, J. Normand, 
 K. Raghavachari, A. P. Rendell, J. C. Burant, S. S. Iyengar, 
 J. Tomasi, M. Cossi, J. M. Millam, M. Klene, C. Adamo, R. Cammi, 
 J. W. Ochterski, R. L. Martin, K. Morokuma, O. Farkas, 
 J. B. Foresman, and D. J. Fox, Gaussian, Inc., Wallingford CT, 2019.
 
 ******************************************
 Gaussian 16:  ES64L-G16RevC.01  3-Jul-2019
                21-Feb-2022 
 ******************************************
 %NProcShared=52
 Will use up to   52 processors via shared memory.
 %mem=16GB
 %chk=N1_conf-1.chk
 ----------------------------------------------------------------------
 # B3LYP/6-31G(d,p) empiricaldispersion=GD3BJ int=(grid=ultrafine) opt 
 freq=noraman
 ----------------------------------------------------------------------
 1/18=20,19=15,26=4,38=1/1,3;
 2/9=110,12=2,17=6,18=5,40=1/2;
 3/5=1,6=6,7=101,11=2,25=1,30=1,71=1,74=-5,75=-5,124=41/1,2,3;
 4//1;
 5/5=2,38=5/2;
 6/7=2,8=2,9=2,10=2,28=1/1;
 7//1,2,3,16;
 1/18=20,19=15,26=4/3(2);
 2/9=110/2;
 99//99;
 2/9=110/2;
 3/5=1,6=6,7=101,11=2,25=1,30=1,71=1,74=-5,75=-5,124=41/1,2,3;
 4/5=5,16=3,69=1/1;
 5/5=2,38=5/2;
 7//1,2,3,16;
 1/18=20,19=15,26=4/3(-5);
 2/9=110/2;
 6/7=2,8=2,9=2,10=2,19=2,28=1/1;
 99/9=1/99;
 ------
 N1.xyz
 ------
 Symbolic Z-matrix:
 Charge =  0 Multiplicity = 1
 N                    -0.3399   -1.2276   -2.0885 
 C                     0.7182   -0.3061   -1.6963 
 C                     0.8597   -0.2538   -0.163 
 O                    -0.3669    0.1915    0.4097 
 C                    -0.3271    0.3036    1.825 
 H                    -1.1756   -0.9172   -1.6037 
 H                    -0.1529   -2.1505   -1.7234 
 H                     1.6619   -0.608    -2.1547 
 H                     0.4832    0.69     -2.0773 
 H                     1.121    -1.241     0.2238 
 H                     1.6697    0.4288    0.1009 
 H                     0.4241    1.0264    2.1476 
 H                    -0.1141   -0.6572    2.2964 
 H                    -1.2956    0.6458    2.1903 
 

 GradGradGradGradGradGradGradGradGradGradGradGradGradGradGradGradGradGrad
 Berny optimization.
 Initialization pass.
                           ----------------------------
                           !    Initial Parameters    !
                           ! (Angstroms and Degrees)  !
 --------------------------                            --------------------------
 ! Name  Definition              Value          Derivative Info.                !
 --------------------------------------------------------------------------------
 ! R1    R(1,2)                  1.4569         estimate D2E/DX2                !
 ! R2    R(1,6)                  1.0148         estimate D2E/DX2                !
 ! R3    R(1,7)                  1.01           estimate D2E/DX2                !
 ! R4    R(2,3)                  1.5407         estimate D2E/DX2                !
 ! R5    R(2,8)                  1.0917         estimate D2E/DX2                !
 ! R6    R(2,9)                  1.0921         estimate D2E/DX2                !
 ! R7    R(3,4)                  1.4251         estimate D2E/DX2                !
 ! R8    R(3,10)                 1.092          estimate D2E/DX2                !
 ! R9    R(3,11)                 1.0916         estimate D2E/DX2                !
 ! R10   R(4,5)                  1.4203         estimate D2E/DX2                !
 ! R11   R(5,12)                 1.0912         estimate D2E/DX2                !
 ! R12   R(5,13)                 1.0912         estimate D2E/DX2                !
 ! R13   R(5,14)                 1.0902         estimate D2E/DX2                !
 ! A1    A(2,1,6)              106.023          estimate D2E/DX2                !
 ! A2    A(2,1,7)              110.2549         estimate D2E/DX2                !
 ! A3    A(6,1,7)              105.0281         estimate D2E/DX2                !
 ! A4    A(1,2,3)              110.8597         estimate D2E/DX2                !
 ! A5    A(1,2,8)              109.8679         estimate D2E/DX2                !
 ! A6    A(1,2,9)              109.07           estimate D2E/DX2                !
 ! A7    A(3,2,8)              110.3571         estimate D2E/DX2                !
 ! A8    A(3,2,9)              109.6337         estimate D2E/DX2                !
 ! A9    A(8,2,9)              106.9633         estimate D2E/DX2                !
 ! A10   A(2,3,4)              109.3599         estimate D2E/DX2                !
 ! A11   A(2,3,10)             110.1086         estimate D2E/DX2                !
 ! A12   A(2,3,11)             109.2661         estimate D2E/DX2                !
 ! A13   A(4,3,10)             110.2489         estimate D2E/DX2                !
 ! A14   A(4,3,11)             110.2502         estimate D2E/DX2                !
 ! A15   A(10,3,11)            107.5842         estimate D2E/DX2                !
 ! A16   A(3,4,5)              113.6411         estimate D2E/DX2                !
 ! A17   A(4,5,12)             111.4788         estimate D2E/DX2                !
 ! A18   A(4,5,13)             111.4973         estimate D2E/DX2                !
 ! A19   A(4,5,14)             109.4983         estimate D2E/DX2                !
 ! A20   A(12,5,13)            108.7311         estimate D2E/DX2                !
 ! A21   A(12,5,14)            107.7328         estimate D2E/DX2                !
 ! A22   A(13,5,14)            107.76           estimate D2E/DX2                !
 ! D1    D(6,1,2,3)             55.5185         estimate D2E/DX2                !
 ! D2    D(6,1,2,8)            177.7627         estimate D2E/DX2                !
 ! D3    D(6,1,2,9)            -65.2908         estimate D2E/DX2                !
 ! D4    D(7,1,2,3)            -57.6558         estimate D2E/DX2                !
 ! D5    D(7,1,2,8)             64.5885         estimate D2E/DX2                !
 ! D6    D(7,1,2,9)           -178.465          estimate D2E/DX2                !
 ! D7    D(1,2,3,4)            -60.2605         estimate D2E/DX2                !
 ! D8    D(1,2,3,10)            61.0247         estimate D2E/DX2                !
 ! D9    D(1,2,3,11)           178.9795         estimate D2E/DX2                !
 ! D10   D(8,2,3,4)            177.7808         estimate D2E/DX2                !
 ! D11   D(8,2,3,10)           -60.934          estimate D2E/DX2                !
 ! D12   D(8,2,3,11)            57.0207         estimate D2E/DX2                !
 ! D13   D(9,2,3,4)             60.2145         estimate D2E/DX2                !
 ! D14   D(9,2,3,10)          -178.5003         estimate D2E/DX2                !
 ! D15   D(9,2,3,11)           -60.5455         estimate D2E/DX2                !
 ! D16   D(2,3,4,5)           -178.5983         estimate D2E/DX2                !
 ! D17   D(10,3,4,5)            60.2015         estimate D2E/DX2                !
 ! D18   D(11,3,4,5)           -58.4394         estimate D2E/DX2                !
 ! D19   D(3,4,5,12)            60.9776         estimate D2E/DX2                !
 ! D20   D(3,4,5,13)           -60.7491         estimate D2E/DX2                !
 ! D21   D(3,4,5,14)          -179.9084         estimate D2E/DX2                !
 --------------------------------------------------------------------------------
 Trust Radius=3.00D-01 FncErr=1.00D-07 GrdErr=1.00D-06 EigMax=2.50D+02 EigMin=1.00D-04
 Number of steps in this run=     66 maximum allowed number of steps=    100.
 GradGradGradGradGradGradGradGradGradGradGradGradGradGradGradGradGradGrad

                          Input orientation:                          
 ---------------------------------------------------------------------
 Center     Atomic      Atomic             Coordinates (Angstroms)
 Number     Number       Type             X           Y           Z
 ---------------------------------------------------------------------
      1          7           0       -0.339900   -1.227600   -2.088500
      2          6           0        0.718200   -0.306100   -1.696300
      3          6           0        0.859700   -0.253800   -0.163000
      4          8           0       -0.366900    0.191500    0.409700
      5          6           0       -0.327100    0.303600    1.825000
      6          1           0       -1.175600   -0.917200   -1.603700
      7          1           0       -0.152900   -2.150500   -1.723400
      8          1           0        1.661900   -0.608000   -2.154700
      9          1           0        0.483200    0.690000   -2.077300
     10          1           0        1.121000   -1.241000    0.223800
     11          1           0        1.669700    0.428800    0.100900
     12          1           0        0.424100    1.026400    2.147600
     13          1           0       -0.114100   -0.657200    2.296400
     14          1           0       -1.295600    0.645800    2.190300
 ---------------------------------------------------------------------
                    Distance matrix (angstroms):
                    1          2          3          4          5
     1  N    0.000000
     2  C    1.456900   0.000000
     3  C    2.468780   1.540703   0.000000
     4  O    2.873252   2.420802   1.425070   0.000000
     5  C    4.202406   3.723431   2.381456   1.420290   0.000000
     6  H    1.014778   1.992109   2.580341   2.436594   3.737150
     7  H    1.009956   2.039941   2.656629   3.175039   4.317881
     8  H    2.096542   1.091716   2.176201   3.366211   4.541492
     9  H    2.086818   1.092063   2.167269   2.675134   4.004227
    10  H    2.735167   2.173262   1.091996   2.073755   2.654548
    11  H    3.402297   2.162258   1.091644   2.073501   2.641099
    12  H    4.858884   4.078924   2.677225   2.083995   1.091243
    13  H    4.427605   4.093611   2.675755   2.084187   1.091203
    14  H    4.767716   4.479639   3.315512   2.058982   1.090201
                    6          7          8          9         10
     6  H    0.000000
     7  H    1.606634   0.000000
     8  H    2.906994   2.420501   0.000000
     9  H    2.357754   2.932287   1.755029   0.000000
    10  H    2.952791   2.498319   2.520025   3.070930   0.000000
    11  H    3.579540   3.647291   2.482488   2.494106   1.761933
    12  H    4.517618   5.040859   4.765836   4.238683   3.054141
    13  H    4.050329   4.288385   4.792587   4.615297   2.482331
    14  H    4.105095   4.943896   5.403503   4.623688   3.642402
                   11         12         13         14
    11  H    0.000000
    12  H    2.469337   0.000000
    13  H    3.030109   1.773784   0.000000
    14  H    3.633963   1.761831   1.762103   0.000000
 Stoichiometry    C3H9NO
 Framework group  C1[X(C3H9NO)]
 Deg. of freedom    36
 Full point group                 C1      NOp   1
 Largest Abelian subgroup         C1      NOp   1
 Largest concise Abelian subgroup C1      NOp   1
                         Standard orientation:                         
 ---------------------------------------------------------------------
 Center     Atomic      Atomic             Coordinates (Angstroms)
 Number     Number       Type             X           Y           Z
 ---------------------------------------------------------------------
      1          7           0        1.942101   -0.760112    0.097296
      2          6           0        1.407667    0.551334   -0.244826
      3          6           0       -0.036943    0.705877    0.267994
      4          8           0       -0.860104   -0.291321   -0.331029
      5          6           0       -2.224206   -0.211987    0.056470
      6          1           0        1.289921   -1.436878   -0.285356
      7          1           0        1.909421   -0.901101    1.096829
      8          1           0        2.044973    1.332497    0.174065
      9          1           0        1.426744    0.672393   -1.329990
     10          1           0       -0.061192    0.612589    1.355727
     11          1           0       -0.404664    1.701879    0.014131
     12          1           0       -2.666742    0.742773   -0.232333
     13          1           0       -2.342116   -0.341343    1.133544
     14          1           0       -2.789332   -1.002798   -0.437279
 ---------------------------------------------------------------------
 Rotational constants (GHZ):          12.7344176           2.6588993           2.4085112
 Standard basis: 6-31G(d,p) (6D, 7F)
 There are   120 symmetry adapted cartesian basis functions of A   symmetry.
 There are   120 symmetry adapted basis functions of A   symmetry.
   120 basis functions,   203 primitive gaussians,   120 cartesian basis functions
    21 alpha electrons       21 beta electrons
       nuclear repulsion energy       192.7732102656 Hartrees.
 NAtoms=   14 NActive=   14 NUniq=   14 SFac= 1.00D+00 NAtFMM=   60 NAOKFM=F Big=F
 Integral buffers will be    131072 words long.
 Raffenetti 2 integral format.
 Two-electron integral symmetry is turned on.
 Nuclear repulsion after empirical dispersion term =      192.7585818224 Hartrees.
 One-electron integrals computed using PRISM.
 NBasis=   120 RedAO= T EigKep=  4.78D-03  NBF=   120
 NBsUse=   120 1.00D-06 EigRej= -1.00D+00 NBFU=   120
 ExpMin= 1.61D-01 ExpMax= 5.48D+03 ExpMxC= 8.25D+02 IAcc=3 IRadAn=         5 AccDes= 0.00D+00
 Harris functional with IExCor=  402 and IRadAn=       5 diagonalized for initial guess.
 HarFok:  IExCor=  402 AccDes= 0.00D+00 IRadAn=         5 IDoV= 1 UseB2=F ITyADJ=14
 ICtDFT=  3500011 ScaDFX=  1.000000  1.000000  1.000000  1.000000
 FoFCou: FMM=F IPFlag=           0 FMFlag=      100000 FMFlg1=           0
         NFxFlg=           0 DoJE=T BraDBF=F KetDBF=T FulRan=T
         wScrn=  0.000000 ICntrl=       500 IOpCl=  0 I1Cent=   200000004 NGrid=           0
         NMat0=    1 NMatS0=      1 NMatT0=    0 NMatD0=    1 NMtDS0=    0 NMtDT0=    0
 Petite list used in FoFCou.
 Requested convergence on RMS density matrix=1.00D-08 within 128 cycles.
 Requested convergence on MAX density matrix=1.00D-06.
 Requested convergence on             energy=1.00D-06.
 No special actions if energy rises.
 Integral accuracy reduced to 1.0D-05 until final iterations.
 Initial convergence to 1.0D-05 achieved.  Increase integral accuracy.
 SCF Done:  E(RB3LYP) =  -249.713930399     A.U. after   12 cycles
            NFock= 12  Conv=0.94D-08     -V/T= 2.0091

 **********************************************************************

            Population analysis using the SCF Density.

 **********************************************************************

 Orbital symmetries:
       Occupied  (A) (A) (A) (A) (A) (A) (A) (A) (A) (A) (A) (A)
                 (A) (A) (A) (A) (A) (A) (A) (A) (A)
       Virtual   (A) (A) (A) (A) (A) (A) (A) (A) (A) (A) (A) (A)
                 (A) (A) (A) (A) (A) (A) (A) (A) (A) (A) (A) (A)
                 (A) (A) (A) (A) (A) (A) (A) (A) (A) (A) (A) (A)
                 (A) (A) (A) (A) (A) (A) (A) (A) (A) (A) (A) (A)
                 (A) (A) (A) (A) (A) (A) (A) (A) (A) (A) (A) (A)
                 (A) (A) (A) (A) (A) (A) (A) (A) (A) (A) (A) (A)
                 (A) (A) (A) (A) (A) (A) (A) (A) (A) (A) (A) (A)
                 (A) (A) (A) (A) (A) (A) (A) (A) (A) (A) (A) (A)
                 (A) (A) (A)
 The electronic state is 1-A.
 Alpha  occ. eigenvalues --  -19.15012 -14.29999 -10.22883 -10.22673 -10.20395
 Alpha  occ. eigenvalues --   -1.02804  -0.87530  -0.73384  -0.66847  -0.60089
 Alpha  occ. eigenvalues --   -0.50257  -0.47727  -0.46174  -0.45624  -0.42209
 Alpha  occ. eigenvalues --   -0.39018  -0.37330  -0.35718  -0.31854  -0.25744
 Alpha  occ. eigenvalues --   -0.22638
 Alpha virt. eigenvalues --    0.08443   0.11100   0.13026   0.13849   0.14428
 Alpha virt. eigenvalues --    0.16104   0.16910   0.17711   0.18970   0.21323
 Alpha virt. eigenvalues --    0.23601   0.25096   0.26522   0.50836   0.52241
 Alpha virt. eigenvalues --    0.54528   0.55691   0.57822   0.59613   0.62926
 Alpha virt. eigenvalues --    0.65077   0.73158   0.74084   0.78451   0.80270
 Alpha virt. eigenvalues --    0.81324   0.83526   0.87025   0.88032   0.88698
 Alpha virt. eigenvalues --    0.90539   0.92418   0.93617   0.94689   0.96982
 Alpha virt. eigenvalues --    1.03856   1.09198   1.17857   1.27365   1.31154
 Alpha virt. eigenvalues --    1.36014   1.38425   1.40756   1.47003   1.50858
 Alpha virt. eigenvalues --    1.58636   1.69542   1.72653   1.77106   1.85462
 Alpha virt. eigenvalues --    1.88760   1.93224   1.96553   1.97132   1.98843
 Alpha virt. eigenvalues --    2.00661   2.03033   2.03712   2.05556   2.08267
 Alpha virt. eigenvalues --    2.11830   2.15943   2.17172   2.25397   2.27983
 Alpha virt. eigenvalues --    2.30143   2.34969   2.42490   2.46544   2.48055
 Alpha virt. eigenvalues --    2.55971   2.56680   2.61094   2.66113   2.67223
 Alpha virt. eigenvalues --    2.70646   2.71890   2.78948   2.80687   2.85778
 Alpha virt. eigenvalues --    2.87459   2.93513   2.98759   2.99459   3.03830
 Alpha virt. eigenvalues --    3.18707   3.24478   3.30680   3.33292   3.38907
 Alpha virt. eigenvalues --    3.41470   3.45109   3.50212   3.59656   3.92568
 Alpha virt. eigenvalues --    3.99770   4.40687   4.45448   4.60518
          Condensed to atoms (all electrons):
               1          2          3          4          5          6
     1  N    6.707325   0.336003  -0.064173  -0.006758   0.000219   0.349396
     2  C    0.336003   4.818799   0.370228  -0.043600   0.004584  -0.051917
     3  C   -0.064173   0.370228   4.826756   0.246486  -0.034235  -0.009233
     4  O   -0.006758  -0.043600   0.246486   8.203490   0.263367   0.016364
     5  C    0.000219   0.004584  -0.034235   0.263367   4.700320  -0.000501
     6  H    0.349396  -0.051917  -0.009233   0.016364  -0.000501   0.479818
     7  H    0.343626  -0.048230  -0.002685  -0.000385  -0.000036  -0.035707
     8  H   -0.036259   0.376590  -0.041142   0.002602  -0.000165   0.007088
     9  H   -0.039853   0.383745  -0.043622   0.000888  -0.000022  -0.005310
    10  H   -0.006078  -0.035266   0.355228  -0.044224  -0.006303  -0.000089
    11  H    0.006665  -0.032023   0.337933  -0.041284  -0.006750   0.000710
    12  H    0.000000  -0.000131  -0.008280  -0.038058   0.372850   0.000056
    13  H   -0.000048   0.000187  -0.008627  -0.037956   0.370813   0.000033
    14  H    0.000032  -0.000244   0.005373  -0.030590   0.393633  -0.000025
               7          8          9         10         11         12
     1  N    0.343626  -0.036259  -0.039853  -0.006078   0.006665   0.000000
     2  C   -0.048230   0.376590   0.383745  -0.035266  -0.032023  -0.000131
     3  C   -0.002685  -0.041142  -0.043622   0.355228   0.337933  -0.008280
     4  O   -0.000385   0.002602   0.000888  -0.044224  -0.041284  -0.038058
     5  C   -0.000036  -0.000165  -0.000022  -0.006303  -0.006750   0.372850
     6  H   -0.035707   0.007088  -0.005310  -0.000089   0.000710   0.000056
     7  H    0.507247  -0.005396   0.006938   0.005889   0.000066   0.000000
     8  H   -0.005396   0.626185  -0.033069  -0.000759   0.001855   0.000003
     9  H    0.006938  -0.033069   0.610450   0.006365  -0.003507  -0.000050
    10  H    0.005889  -0.000759   0.006365   0.699048  -0.057660  -0.002562
    11  H    0.000066   0.001855  -0.003507  -0.057660   0.709947   0.012741
    12  H    0.000000   0.000003  -0.000050  -0.002562   0.012741   0.657760
    13  H    0.000009   0.000015   0.000039   0.013139  -0.002501  -0.051768
    14  H    0.000001   0.000003   0.000002  -0.000155  -0.000048  -0.037284
              13         14
     1  N   -0.000048   0.000032
     2  C    0.000187  -0.000244
     3  C   -0.008627   0.005373
     4  O   -0.037956  -0.030590
     5  C    0.370813   0.393633
     6  H    0.000033  -0.000025
     7  H    0.000009   0.000001
     8  H    0.000015   0.000003
     9  H    0.000039   0.000002
    10  H    0.013139  -0.000155
    11  H   -0.002501  -0.000048
    12  H   -0.051768  -0.037284
    13  H    0.661945  -0.037480
    14  H   -0.037480   0.591469
 Mulliken charges:
               1
     1  N   -0.590097
     2  C   -0.078727
     3  C    0.069994
     4  O   -0.490342
     5  C   -0.057776
     6  H    0.249316
     7  H    0.228661
     8  H    0.102448
     9  H    0.117006
    10  H    0.073427
    11  H    0.073856
    12  H    0.094722
    13  H    0.092201
    14  H    0.115312
 Sum of Mulliken charges =  -0.00000
 Mulliken charges with hydrogens summed into heavy atoms:
               1
     1  N   -0.112120
     2  C    0.140727
     3  C    0.217276
     4  O   -0.490342
     5  C    0.244459
 Electronic spatial extent (au):  <R**2>=            550.7456
 Charge=             -0.0000 electrons
 Dipole moment (field-independent basis, Debye):
    X=             -1.8886    Y=              0.8707    Z=              1.2511  Tot=              2.4269
 Quadrupole moment (field-independent basis, Debye-Ang):
   XX=            -34.6807   YY=            -31.1312   ZZ=            -31.1707
   XY=              2.1920   XZ=              1.1172   YZ=             -0.8031
 Traceless Quadrupole moment (field-independent basis, Debye-Ang):
   XX=             -2.3531   YY=              1.1963   ZZ=              1.1568
   XY=              2.1920   XZ=              1.1172   YZ=             -0.8031
 Octapole moment (field-independent basis, Debye-Ang**2):
  XXX=            -29.3875  YYY=             -4.7121  ZZZ=              0.6757  XYY=             -0.5708
  XXY=              4.3203  XXZ=              3.1386  XZZ=              2.8628  YZZ=             -2.0752
  YYZ=             -0.3268  XYZ=             -1.4918
 Hexadecapole moment (field-independent basis, Debye-Ang**3):
 XXXX=           -565.4959 YYYY=           -117.2153 ZZZZ=            -63.3798 XXXY=             26.6861
 XXXZ=             14.2004 YYYX=             -0.9528 YYYZ=              0.1254 ZZZX=              3.4169
 ZZZY=             -2.2653 XXYY=           -109.1243 XXZZ=            -94.7652 YYZZ=            -30.5001
 XXYZ=             -2.7423 YYXZ=              3.7440 ZZXY=             -1.5377
 N-N= 1.927585818224D+02 E-N=-9.674215268875D+02  KE= 2.474515077021D+02
 Calling FoFJK, ICntrl=      2127 FMM=F ISym2X=0 I1Cent= 0 IOpClX= 0 NMat=1 NMatS=1 NMatT=0.
 ***** Axes restored to original set *****
 -------------------------------------------------------------------
 Center     Atomic                   Forces (Hartrees/Bohr)
 Number     Number              X              Y              Z
 -------------------------------------------------------------------
      1        7          -0.006350151    0.006794991   -0.011484501
      2        6          -0.006992015   -0.007261139    0.015641783
      3        6           0.001118538    0.011515788   -0.005093663
      4        8          -0.001530452    0.000375785   -0.001197971
      5        6           0.000557758   -0.001093343   -0.007693568
      6        1          -0.004055369   -0.000575323   -0.000055361
      7        1           0.003868408   -0.006294443    0.002202494
      8        1           0.003177302   -0.001273136    0.001402126
      9        1          -0.001390420    0.001900746    0.000134945
     10        1           0.001459010   -0.006904278    0.001893365
     11        1           0.005609106    0.004616398    0.004722069
     12        1           0.005202998    0.002993050    0.001540968
     13        1           0.002611291   -0.005380068    0.002522703
     14        1          -0.003286005    0.000584972   -0.004535388
 -------------------------------------------------------------------
 Cartesian Forces:  Max     0.015641783 RMS     0.005176070

 GradGradGradGradGradGradGradGradGradGradGradGradGradGradGradGradGradGrad
 Berny optimization.
 FormGI is forming the generalized inverse of G from B-inverse, IUseBI=4.
 Internal  Forces:  Max     0.017370341 RMS     0.004742019
 Search for a local minimum.
 Step number   1 out of a maximum of   66
 All quantities printed in internal units (Hartrees-Bohrs-Radians)
 Mixed Optimization -- RFO/linear search
 Second derivative matrix not updated -- first step.
 ITU=  0
     Eigenvalues ---    0.00230   0.00939   0.01360   0.01423   0.04290
     Eigenvalues ---    0.04923   0.05071   0.05413   0.05824   0.09222
     Eigenvalues ---    0.10002   0.10283   0.11241   0.12692   0.13731
     Eigenvalues ---    0.16000   0.16000   0.16000   0.16000   0.16000
     Eigenvalues ---    0.21913   0.21992   0.25000   0.28457   0.34575
     Eigenvalues ---    0.34583   0.34615   0.34623   0.34669   0.34674
     Eigenvalues ---    0.34789   0.37355   0.41706   0.42417   0.45182
     Eigenvalues ---    0.45980
 RFO step:  Lambda=-5.30603934D-03 EMin= 2.30000000D-03
 Linear search not attempted -- first point.
 Iteration  1 RMS(Cart)=  0.04547316 RMS(Int)=  0.00096050
 Iteration  2 RMS(Cart)=  0.00129322 RMS(Int)=  0.00028250
 Iteration  3 RMS(Cart)=  0.00000127 RMS(Int)=  0.00028250
 Iteration  4 RMS(Cart)=  0.00000000 RMS(Int)=  0.00028250
 Variable       Old X    -DE/DX   Delta X   Delta X   Delta X     New X
                                 (Linear)    (Quad)   (Total)
    R1        2.75314   0.00731   0.00000   0.01929   0.01929   2.77244
    R2        1.91765   0.00314   0.00000   0.00686   0.00686   1.92452
    R3        1.90854   0.00727   0.00000   0.01562   0.01562   1.92416
    R4        2.91151  -0.00650   0.00000  -0.02242  -0.02242   2.88909
    R5        2.06304   0.00251   0.00000   0.00714   0.00714   2.07018
    R6        2.06370   0.00199   0.00000   0.00566   0.00566   2.06936
    R7        2.69299  -0.00761   0.00000  -0.01802  -0.01802   2.67497
    R8        2.06357   0.00726   0.00000   0.02068   0.02068   2.08425
    R9        2.06291   0.00819   0.00000   0.02330   0.02330   2.08621
   R10        2.68396  -0.00822   0.00000  -0.01915  -0.01915   2.66481
   R11        2.06215   0.00602   0.00000   0.01710   0.01710   2.07925
   R12        2.06207   0.00634   0.00000   0.01800   0.01800   2.08007
   R13        2.06018   0.00158   0.00000   0.00448   0.00448   2.06466
    A1        1.85045   0.00503   0.00000   0.03444   0.03450   1.88495
    A2        1.92431  -0.00383   0.00000  -0.01956  -0.01950   1.90481
    A3        1.83309   0.00027   0.00000   0.01058   0.01072   1.84380
    A4        1.93487   0.01737   0.00000   0.08177   0.08191   2.01677
    A5        1.91756  -0.00397   0.00000  -0.00455  -0.00427   1.91328
    A6        1.90363  -0.00565   0.00000  -0.02230  -0.02199   1.88164
    A7        1.92609  -0.00672   0.00000  -0.03388  -0.03459   1.89151
    A8        1.91347  -0.00497   0.00000  -0.02509  -0.02528   1.88819
    A9        1.86686   0.00334   0.00000   0.00079  -0.00005   1.86681
   A10        1.90869  -0.00929   0.00000  -0.04438  -0.04452   1.86417
   A11        1.92176   0.00041   0.00000  -0.00814  -0.00870   1.91305
   A12        1.90705   0.00588   0.00000   0.04245   0.04259   1.94964
   A13        1.92421   0.00305   0.00000  -0.00024  -0.00098   1.92322
   A14        1.92423   0.00162   0.00000   0.00818   0.00873   1.93296
   A15        1.87770  -0.00143   0.00000   0.00361   0.00348   1.88118
   A16        1.98341  -0.00665   0.00000  -0.02606  -0.02606   1.95736
   A17        1.94567   0.00079   0.00000   0.00513   0.00508   1.95075
   A18        1.94599   0.00101   0.00000   0.00645   0.00641   1.95240
   A19        1.91111  -0.00769   0.00000  -0.04723  -0.04728   1.86382
   A20        1.89771  -0.00049   0.00000  -0.00166  -0.00170   1.89601
   A21        1.88029   0.00337   0.00000   0.01969   0.01963   1.89992
   A22        1.88077   0.00324   0.00000   0.01888   0.01884   1.89961
    D1        0.96898   0.00053   0.00000  -0.00873  -0.00907   0.95991
    D2        3.10254   0.00096   0.00000   0.00004   0.00029   3.10284
    D3       -1.13954  -0.00056   0.00000  -0.01457  -0.01461  -1.15415
    D4       -1.00628  -0.00063   0.00000  -0.02991  -0.03017  -1.03646
    D5        1.12728  -0.00020   0.00000  -0.02115  -0.02081   1.10647
    D6       -3.11480  -0.00172   0.00000  -0.03576  -0.03571   3.13267
    D7       -1.05174   0.00118   0.00000   0.03812   0.03767  -1.01408
    D8        1.06508  -0.00074   0.00000   0.00417   0.00421   1.06929
    D9        3.12378   0.00129   0.00000   0.02923   0.02931  -3.13010
   D10        3.10286  -0.00095   0.00000   0.01174   0.01183   3.11469
   D11       -1.06350  -0.00287   0.00000  -0.02221  -0.02164  -1.08514
   D12        0.99520  -0.00084   0.00000   0.00285   0.00346   0.99866
   D13        1.05094   0.00198   0.00000   0.04615   0.04550   1.09644
   D14       -3.11542   0.00006   0.00000   0.01221   0.01204  -3.10338
   D15       -1.05672   0.00209   0.00000   0.03726   0.03714  -1.01958
   D16       -3.11713  -0.00234   0.00000  -0.04165  -0.04155   3.12450
   D17        1.05071   0.00121   0.00000  -0.00282  -0.00298   1.04774
   D18       -1.01996   0.00006   0.00000  -0.01220  -0.01214  -1.03210
   D19        1.06426   0.00033   0.00000   0.00365   0.00363   1.06789
   D20       -1.06027  -0.00031   0.00000  -0.00239  -0.00238  -1.06265
   D21       -3.13999   0.00002   0.00000   0.00073   0.00074  -3.13925
         Item               Value     Threshold  Converged?
 Maximum Force            0.017370     0.000450     NO 
 RMS     Force            0.004742     0.000300     NO 
 Maximum Displacement     0.117571     0.001800     NO 
 RMS     Displacement     0.045281     0.001200     NO 
 Predicted change in Energy=-2.729730D-03
 GradGradGradGradGradGradGradGradGradGradGradGradGradGradGradGradGradGrad

                          Input orientation:                          
 ---------------------------------------------------------------------
 Center     Atomic      Atomic             Coordinates (Angstroms)
 Number     Number       Type             X           Y           Z
 ---------------------------------------------------------------------
      1          7           0       -0.369350   -1.220320   -2.107475
      2          6           0        0.697846   -0.321160   -1.654687
      3          6           0        0.885429   -0.230507   -0.140109
      4          8           0       -0.350537    0.198281    0.400506
      5          6           0       -0.309359    0.299451    1.806428
      6          1           0       -1.233772   -0.939044   -1.648328
      7          1           0       -0.175577   -2.162764   -1.774267
      8          1           0        1.650028   -0.625238   -2.103013
      9          1           0        0.473100    0.682020   -2.031869
     10          1           0        1.152055   -1.223157    0.259931
     11          1           0        1.694601    0.470280    0.129880
     12          1           0        0.438129    1.034295    2.140961
     13          1           0       -0.087522   -0.668743    2.280758
     14          1           0       -1.299371    0.631306    2.128084
 ---------------------------------------------------------------------
                    Distance matrix (angstroms):
                    1          2          3          4          5
     1  N    0.000000
     2  C    1.467111   0.000000
     3  C    2.534705   1.528840   0.000000
     4  O    2.881449   2.364899   1.415534   0.000000
     5  C    4.199040   3.657723   2.344649   1.410159   0.000000
     6  H    1.018410   2.028047   2.695879   2.504263   3.784673
     7  H    1.018222   2.041733   2.744053   3.214776   4.347618
     8  H    2.105238   1.095495   2.143225   3.308784   4.469672
     9  H    2.081906   1.095056   2.140439   2.613203   3.935877
    10  H    2.814124   2.164640   1.102939   2.073169   2.616432
    11  H    3.481921   2.191934   1.103973   2.080820   2.618368
    12  H    4.876938   4.038769   2.646334   2.085689   1.100294
    13  H    4.431733   4.028070   2.645615   2.087165   1.100727
    14  H    4.715232   4.382399   3.265084   2.017999   1.092572
                    6          7          8          9         10
     6  H    0.000000
     7  H    1.622692   0.000000
     8  H    2.936242   2.409335   0.000000
     9  H    2.385029   2.929153   1.760439   0.000000
    10  H    3.068280   2.604503   2.487768   3.056637   0.000000
    11  H    3.704536   3.749168   2.487560   2.491999   1.782975
    12  H    4.587814   5.091840   4.715301   4.187820   3.023913
    13  H    4.101789   4.322393   4.715763   4.553857   2.434680
    14  H    4.090427   4.929309   5.308487   4.522105   3.597014
                   11         12         13         14
    11  H    0.000000
    12  H    2.437474   0.000000
    13  H    3.016556   1.787789   0.000000
    14  H    3.603140   1.783668   1.783820   0.000000
 Stoichiometry    C3H9NO
 Framework group  C1[X(C3H9NO)]
 Deg. of freedom    36
 Full point group                 C1      NOp   1
 Largest Abelian subgroup         C1      NOp   1
 Largest concise Abelian subgroup C1      NOp   1
                         Standard orientation:                         
 ---------------------------------------------------------------------
 Center     Atomic      Atomic             Coordinates (Angstroms)
 Number     Number       Type             X           Y           Z
 ---------------------------------------------------------------------
      1          7           0        1.972731   -0.742230    0.097781
      2          6           0        1.361005    0.548677   -0.236529
      3          6           0       -0.077168    0.741334    0.245024
      4          8           0       -0.843374   -0.303076   -0.325829
      5          6           0       -2.196666   -0.245164    0.066337
      6          1           0        1.366446   -1.479251   -0.257713
      7          1           0        1.979439   -0.856406    1.109559
      8          1           0        1.972875    1.361799    0.169126
      9          1           0        1.373284    0.652862   -1.326549
     10          1           0       -0.110316    0.680008    1.345758
     11          1           0       -0.477991    1.726758   -0.049996
     12          1           0       -2.675182    0.691756   -0.255921
     13          1           0       -2.311982   -0.342045    1.156712
     14          1           0       -2.701725   -1.084353   -0.417802
 ---------------------------------------------------------------------
 Rotational constants (GHZ):          12.5226916           2.6929812           2.4239296
 Standard basis: 6-31G(d,p) (6D, 7F)
 There are   120 symmetry adapted cartesian basis functions of A   symmetry.
 There are   120 symmetry adapted basis functions of A   symmetry.
   120 basis functions,   203 primitive gaussians,   120 cartesian basis functions
    21 alpha electrons       21 beta electrons
       nuclear repulsion energy       193.0042408831 Hartrees.
 NAtoms=   14 NActive=   14 NUniq=   14 SFac= 1.00D+00 NAtFMM=   60 NAOKFM=F Big=F
 Integral buffers will be    131072 words long.
 Raffenetti 2 integral format.
 Two-electron integral symmetry is turned on.
 Nuclear repulsion after empirical dispersion term =      192.9896172198 Hartrees.
 One-electron integrals computed using PRISM.
 NBasis=   120 RedAO= T EigKep=  4.65D-03  NBF=   120
 NBsUse=   120 1.00D-06 EigRej= -1.00D+00 NBFU=   120
 Initial guess from the checkpoint file:  "N1_conf-1.chk"
 B after Tr=     0.000000    0.000000   -0.000000
         Rot=    0.999896    0.011239   -0.000367   -0.009074 Ang=   1.66 deg.
 ExpMin= 1.61D-01 ExpMax= 5.48D+03 ExpMxC= 8.25D+02 IAcc=3 IRadAn=         5 AccDes= 0.00D+00
 Harris functional with IExCor=  402 and IRadAn=       5 diagonalized for initial guess.
 HarFok:  IExCor=  402 AccDes= 0.00D+00 IRadAn=         5 IDoV= 1 UseB2=F ITyADJ=14
 ICtDFT=  3500011 ScaDFX=  1.000000  1.000000  1.000000  1.000000
 FoFCou: FMM=F IPFlag=           0 FMFlag=      100000 FMFlg1=           0
         NFxFlg=           0 DoJE=T BraDBF=F KetDBF=T FulRan=T
         wScrn=  0.000000 ICntrl=       500 IOpCl=  0 I1Cent=   200000004 NGrid=           0
         NMat0=    1 NMatS0=      1 NMatT0=    0 NMatD0=    1 NMtDS0=    0 NMtDT0=    0
 Petite list used in FoFCou.
 Requested convergence on RMS density matrix=1.00D-08 within 128 cycles.
 Requested convergence on MAX density matrix=1.00D-06.
 Requested convergence on             energy=1.00D-06.
 No special actions if energy rises.
 Integral accuracy reduced to 1.0D-05 until final iterations.
 Initial convergence to 1.0D-05 achieved.  Increase integral accuracy.
 SCF Done:  E(RB3LYP) =  -249.715975529     A.U. after   10 cycles
            NFock= 10  Conv=0.96D-08     -V/T= 2.0093
 Calling FoFJK, ICntrl=      2127 FMM=F ISym2X=0 I1Cent= 0 IOpClX= 0 NMat=1 NMatS=1 NMatT=0.
 ***** Axes restored to original set *****
 -------------------------------------------------------------------
 Center     Atomic                   Forces (Hartrees/Bohr)
 Number     Number              X              Y              Z
 -------------------------------------------------------------------
      1        7           0.003170216    0.001968541    0.001482241
      2        6           0.000348316    0.000551747   -0.000120460
      3        6          -0.004532311   -0.001598159   -0.004951701
      4        8           0.002288551    0.000392392    0.003009690
      5        6          -0.004276004    0.001032758   -0.000337494
      6        1           0.000829165    0.000132602    0.000495167
      7        1           0.000000085   -0.000747141   -0.000030440
      8        1          -0.000250079   -0.001030073   -0.001455375
      9        1           0.000059771    0.000524974   -0.000426838
     10        1           0.000964936   -0.000657254    0.001586629
     11        1          -0.000085615   -0.000350463   -0.001155683
     12        1           0.000607486   -0.000204194    0.000381746
     13        1           0.000663314   -0.000107413    0.000198398
     14        1           0.000212169    0.000091685    0.001324121
 -------------------------------------------------------------------
 Cartesian Forces:  Max     0.004951701 RMS     0.001629382

 GradGradGradGradGradGradGradGradGradGradGradGradGradGradGradGradGradGrad
 Berny optimization.
 Using GEDIIS/GDIIS optimizer.
 FormGI is forming the generalized inverse of G from B-inverse, IUseBI=4.
 Internal  Forces:  Max     0.004586348 RMS     0.001424167
 Search for a local minimum.
 Step number   2 out of a maximum of   66
 All quantities printed in internal units (Hartrees-Bohrs-Radians)
 Mixed Optimization -- RFO/linear search
 Update second derivatives using D2CorX and points    1    2
 DE= -2.05D-03 DEPred=-2.73D-03 R= 7.49D-01
 TightC=F SS=  1.41D+00  RLast= 1.82D-01 DXNew= 5.0454D-01 5.4738D-01
 Trust test= 7.49D-01 RLast= 1.82D-01 DXMaxT set to 5.05D-01
 ITU=  1  0
 Use linear search instead of GDIIS.
     Eigenvalues ---    0.00232   0.00935   0.01356   0.01423   0.03862
     Eigenvalues ---    0.04819   0.05317   0.05437   0.05878   0.09884
     Eigenvalues ---    0.10001   0.10530   0.11036   0.13188   0.13715
     Eigenvalues ---    0.15979   0.16000   0.16000   0.16000   0.16443
     Eigenvalues ---    0.21355   0.23338   0.27404   0.28207   0.33504
     Eigenvalues ---    0.34577   0.34610   0.34649   0.34672   0.34729
     Eigenvalues ---    0.34789   0.38625   0.42076   0.43399   0.45231
     Eigenvalues ---    0.45707
 RFO step:  Lambda=-2.41552677D-04 EMin= 2.32005396D-03
 Quartic linear search produced a step of -0.18506.
 Iteration  1 RMS(Cart)=  0.02255290 RMS(Int)=  0.00025022
 Iteration  2 RMS(Cart)=  0.00024750 RMS(Int)=  0.00003189
 Iteration  3 RMS(Cart)=  0.00000005 RMS(Int)=  0.00003189
 Variable       Old X    -DE/DX   Delta X   Delta X   Delta X     New X
                                 (Linear)    (Quad)   (Total)
    R1        2.77244  -0.00434  -0.00357  -0.00497  -0.00854   2.76390
    R2        1.92452  -0.00044  -0.00127   0.00080  -0.00047   1.92404
    R3        1.92416   0.00068  -0.00289   0.00484   0.00195   1.92611
    R4        2.88909  -0.00054   0.00415  -0.00678  -0.00263   2.88646
    R5        2.07018   0.00066  -0.00132   0.00323   0.00191   2.07209
    R6        2.06936   0.00062  -0.00105   0.00277   0.00172   2.07108
    R7        2.67497   0.00255   0.00333   0.00079   0.00413   2.67910
    R8        2.08425   0.00140  -0.00383   0.00812   0.00429   2.08855
    R9        2.08621  -0.00057  -0.00431   0.00410  -0.00022   2.08599
   R10        2.66481   0.00154   0.00354  -0.00150   0.00204   2.66686
   R11        2.07925   0.00039  -0.00317   0.00491   0.00175   2.08100
   R12        2.08007   0.00031  -0.00333   0.00493   0.00160   2.08167
   R13        2.06466   0.00023  -0.00083   0.00157   0.00074   2.06540
    A1        1.88495  -0.00135  -0.00638   0.00044  -0.00595   1.87900
    A2        1.90481   0.00056   0.00361  -0.00246   0.00114   1.90595
    A3        1.84380   0.00014  -0.00198   0.00149  -0.00053   1.84328
    A4        2.01677  -0.00258  -0.01516   0.00865  -0.00653   2.01024
    A5        1.91328  -0.00071   0.00079  -0.01122  -0.01046   1.90283
    A6        1.88164   0.00112   0.00407  -0.00043   0.00359   1.88523
    A7        1.89151   0.00219   0.00640   0.00317   0.00966   1.90116
    A8        1.88819   0.00052   0.00468  -0.00190   0.00280   1.89099
    A9        1.86681  -0.00042   0.00001   0.00141   0.00154   1.86835
   A10        1.86417   0.00432   0.00824   0.00771   0.01592   1.88009
   A11        1.91305   0.00057   0.00161   0.00641   0.00804   1.92109
   A12        1.94964  -0.00254  -0.00788  -0.00568  -0.01355   1.93609
   A13        1.92322  -0.00150   0.00018   0.00051   0.00066   1.92388
   A14        1.93296  -0.00100  -0.00161  -0.00294  -0.00459   1.92836
   A15        1.88118   0.00012  -0.00064  -0.00577  -0.00638   1.87480
   A16        1.95736   0.00459   0.00482   0.00885   0.01367   1.97103
   A17        1.95075  -0.00017  -0.00094  -0.00053  -0.00148   1.94927
   A18        1.95240  -0.00044  -0.00119  -0.00161  -0.00280   1.94960
   A19        1.86382   0.00233   0.00875   0.00233   0.01108   1.87490
   A20        1.89601  -0.00089   0.00031  -0.00775  -0.00745   1.88856
   A21        1.89992  -0.00045  -0.00363   0.00389   0.00025   1.90018
   A22        1.89961  -0.00034  -0.00349   0.00425   0.00076   1.90037
    D1        0.95991  -0.00054   0.00168  -0.02079  -0.01907   0.94084
    D2        3.10284  -0.00008  -0.00005  -0.01921  -0.01928   3.08356
    D3       -1.15415  -0.00034   0.00270  -0.02375  -0.02104  -1.17519
    D4       -1.03646  -0.00028   0.00558  -0.02151  -0.01590  -1.05235
    D5        1.10647   0.00018   0.00385  -0.01992  -0.01611   1.09036
    D6        3.13267  -0.00008   0.00661  -0.02447  -0.01787   3.11480
    D7       -1.01408  -0.00080  -0.00697  -0.02816  -0.03512  -1.04919
    D8        1.06929   0.00022  -0.00078  -0.01958  -0.02033   1.04896
    D9       -3.13010  -0.00086  -0.00542  -0.02616  -0.03160   3.12149
   D10        3.11469   0.00024  -0.00219  -0.02205  -0.02429   3.09039
   D11       -1.08514   0.00126   0.00400  -0.01348  -0.00951  -1.09464
   D12        0.99866   0.00018  -0.00064  -0.02006  -0.02078   0.97789
   D13        1.09644  -0.00068  -0.00842  -0.02436  -0.03273   1.06371
   D14       -3.10338   0.00034  -0.00223  -0.01579  -0.01795  -3.12133
   D15       -1.01958  -0.00074  -0.00687  -0.02237  -0.02922  -1.04880
   D16        3.12450   0.00090   0.00769  -0.01252  -0.00483   3.11967
   D17        1.04774  -0.00150   0.00055  -0.02501  -0.02445   1.02329
   D18       -1.03210  -0.00005   0.00225  -0.01631  -0.01408  -1.04617
   D19        1.06789  -0.00081  -0.00067  -0.00600  -0.00667   1.06122
   D20       -1.06265   0.00079   0.00044   0.00560   0.00603  -1.05662
   D21       -3.13925  -0.00000  -0.00014  -0.00012  -0.00026  -3.13951
         Item               Value     Threshold  Converged?
 Maximum Force            0.004586     0.000450     NO 
 RMS     Force            0.001424     0.000300     NO 
 Maximum Displacement     0.059511     0.001800     NO 
 RMS     Displacement     0.022573     0.001200     NO 
 Predicted change in Energy=-2.311353D-04
 GradGradGradGradGradGradGradGradGradGradGradGradGradGradGradGradGradGrad

                          Input orientation:                          
 ---------------------------------------------------------------------
 Center     Atomic      Atomic             Coordinates (Angstroms)
 Number     Number       Type             X           Y           Z
 ---------------------------------------------------------------------
      1          7           0       -0.357768   -1.225857   -2.114267
      2          6           0        0.694168   -0.316475   -1.660804
      3          6           0        0.873621   -0.234178   -0.146166
      4          8           0       -0.349355    0.219411    0.409268
      5          6           0       -0.314094    0.309029    1.817218
      6          1           0       -1.218576   -0.964656   -1.637368
      7          1           0       -0.144085   -2.170542   -1.796788
      8          1           0        1.645846   -0.615496   -2.116013
      9          1           0        0.459898    0.686484   -2.035419
     10          1           0        1.131997   -1.229138    0.259773
     11          1           0        1.695981    0.453668    0.116692
     12          1           0        0.454364    1.019115    2.160628
     13          1           0       -0.111896   -0.668672    2.282710
     14          1           0       -1.294399    0.662010    2.147338
 ---------------------------------------------------------------------
                    Distance matrix (angstroms):
                    1          2          3          4          5
     1  N    0.000000
     2  C    1.462592   0.000000
     3  C    2.524513   1.527450   0.000000
     4  O    2.908110   2.379352   1.417717   0.000000
     5  C    4.220706   3.674845   2.358097   1.411240   0.000000
     6  H    1.018159   2.019723   2.671061   2.519182   3.791375
     7  H    1.019256   2.039295   2.740398   3.258941   4.386139
     8  H    2.094520   1.096503   2.149891   3.324898   4.490704
     9  H    2.081308   1.095967   2.141975   2.617163   3.947701
    10  H    2.802763   2.171005   1.105210   2.077270   2.623504
    11  H    3.466391   2.180880   1.103858   2.079394   2.636876
    12  H    4.896344   4.055200   2.658537   2.086325   1.101217
    13  H    4.438955   4.040431   2.656966   2.086831   1.101575
    14  H    4.754219   4.406107   3.280797   2.027286   1.092965
                    6          7          8          9         10
     6  H    0.000000
     7  H    1.622992   0.000000
     8  H    2.925051   2.392472   0.000000
     9  H    2.387882   2.929903   1.762986   0.000000
    10  H    3.032209   2.596935   2.506982   3.064185   0.000000
    11  H    3.685514   3.732790   2.476004   2.492726   1.780557
    12  H    4.599875   5.117928   4.730882   4.209214   3.021105
    13  H    4.084037   4.347293   4.737220   4.561757   2.440014
    14  H    4.120169   4.990260   5.334157   4.535814   3.609258
                   11         12         13         14
    11  H    0.000000
    12  H    2.457442   0.000000
    13  H    3.036396   1.784427   0.000000
    14  H    3.620677   1.784901   1.785317   0.000000
 Stoichiometry    C3H9NO
 Framework group  C1[X(C3H9NO)]
 Deg. of freedom    36
 Full point group                 C1      NOp   1
 Largest Abelian subgroup         C1      NOp   1
 Largest concise Abelian subgroup C1      NOp   1
                         Standard orientation:                         
 ---------------------------------------------------------------------
 Center     Atomic      Atomic             Coordinates (Angstroms)
 Number     Number       Type             X           Y           Z
 ---------------------------------------------------------------------
      1          7           0        1.982150   -0.739338    0.095649
      2          6           0        1.367138    0.544354   -0.240611
      3          6           0       -0.067158    0.726628    0.252009
      4          8           0       -0.858476   -0.291484   -0.337216
      5          6           0       -2.209120   -0.242444    0.068930
      6          1           0        1.362996   -1.475363   -0.238362
      7          1           0        2.009353   -0.842759    1.109279
      8          1           0        1.987155    1.354121    0.162098
      9          1           0        1.372863    0.647487   -1.331700
     10          1           0       -0.102539    0.648600    1.353894
     11          1           0       -0.454248    1.723620   -0.021249
     12          1           0       -2.684591    0.709875   -0.213375
     13          1           0       -2.311736   -0.368703    1.158423
     14          1           0       -2.731657   -1.060865   -0.432783
 ---------------------------------------------------------------------
 Rotational constants (GHZ):          12.6558555           2.6599434           2.4065054
 Standard basis: 6-31G(d,p) (6D, 7F)
 There are   120 symmetry adapted cartesian basis functions of A   symmetry.
 There are   120 symmetry adapted basis functions of A   symmetry.
   120 basis functions,   203 primitive gaussians,   120 cartesian basis functions
    21 alpha electrons       21 beta electrons
       nuclear repulsion energy       192.7022215793 Hartrees.
 NAtoms=   14 NActive=   14 NUniq=   14 SFac= 1.00D+00 NAtFMM=   60 NAOKFM=F Big=F
 Integral buffers will be    131072 words long.
 Raffenetti 2 integral format.
 Two-electron integral symmetry is turned on.
 Nuclear repulsion after empirical dispersion term =      192.6876300295 Hartrees.
 One-electron integrals computed using PRISM.
 NBasis=   120 RedAO= T EigKep=  4.67D-03  NBF=   120
 NBsUse=   120 1.00D-06 EigRej= -1.00D+00 NBFU=   120
 Initial guess from the checkpoint file:  "N1_conf-1.chk"
 B after Tr=    -0.000000   -0.000000    0.000000
         Rot=    0.999991   -0.003893   -0.000964    0.001114 Ang=  -0.48 deg.
 ExpMin= 1.61D-01 ExpMax= 5.48D+03 ExpMxC= 8.25D+02 IAcc=3 IRadAn=         5 AccDes= 0.00D+00
 Harris functional with IExCor=  402 and IRadAn=       5 diagonalized for initial guess.
 HarFok:  IExCor=  402 AccDes= 0.00D+00 IRadAn=         5 IDoV= 1 UseB2=F ITyADJ=14
 ICtDFT=  3500011 ScaDFX=  1.000000  1.000000  1.000000  1.000000
 FoFCou: FMM=F IPFlag=           0 FMFlag=      100000 FMFlg1=           0
         NFxFlg=           0 DoJE=T BraDBF=F KetDBF=T FulRan=T
         wScrn=  0.000000 ICntrl=       500 IOpCl=  0 I1Cent=   200000004 NGrid=           0
         NMat0=    1 NMatS0=      1 NMatT0=    0 NMatD0=    1 NMtDS0=    0 NMtDT0=    0
 Petite list used in FoFCou.
 Requested convergence on RMS density matrix=1.00D-08 within 128 cycles.
 Requested convergence on MAX density matrix=1.00D-06.
 Requested convergence on             energy=1.00D-06.
 No special actions if energy rises.
 Integral accuracy reduced to 1.0D-05 until final iterations.
 Initial convergence to 1.0D-05 achieved.  Increase integral accuracy.
 SCF Done:  E(RB3LYP) =  -249.716207861     A.U. after   10 cycles
            NFock= 10  Conv=0.16D-08     -V/T= 2.0094
 Calling FoFJK, ICntrl=      2127 FMM=F ISym2X=0 I1Cent= 0 IOpClX= 0 NMat=1 NMatS=1 NMatT=0.
 ***** Axes restored to original set *****
 -------------------------------------------------------------------
 Center     Atomic                   Forces (Hartrees/Bohr)
 Number     Number              X              Y              Z
 -------------------------------------------------------------------
      1        7           0.000130865    0.000210384    0.000692625
      2        6           0.000101739   -0.000190659    0.000259628
      3        6          -0.000910856    0.000163694   -0.000594155
      4        8           0.000408288   -0.000121827    0.000189401
      5        6          -0.000373613   -0.000226633   -0.000703719
      6        1          -0.000120346   -0.000216499    0.000094983
      7        1          -0.000095030    0.000162928   -0.000258818
      8        1           0.000028100    0.000080157    0.000189127
      9        1           0.000272397    0.000126611   -0.000009347
     10        1           0.000094052    0.000194889    0.000248699
     11        1           0.000086348   -0.000115714   -0.000268295
     12        1          -0.000007100   -0.000125859    0.000132872
     13        1           0.000083144    0.000145942    0.000122593
     14        1           0.000302011   -0.000087415   -0.000095593
 -------------------------------------------------------------------
 Cartesian Forces:  Max     0.000910856 RMS     0.000287054

 GradGradGradGradGradGradGradGradGradGradGradGradGradGradGradGradGradGrad
 Berny optimization.
 Using GEDIIS/GDIIS optimizer.
 FormGI is forming the generalized inverse of G from B-inverse, IUseBI=4.
 Internal  Forces:  Max     0.001007191 RMS     0.000247014
 Search for a local minimum.
 Step number   3 out of a maximum of   66
 All quantities printed in internal units (Hartrees-Bohrs-Radians)
 Mixed Optimization -- En-DIIS/RFO-DIIS
 Update second derivatives using D2CorX and points    1    2    3
 DE= -2.32D-04 DEPred=-2.31D-04 R= 1.01D+00
 TightC=F SS=  1.41D+00  RLast= 1.01D-01 DXNew= 8.4853D-01 3.0440D-01
 Trust test= 1.01D+00 RLast= 1.01D-01 DXMaxT set to 5.05D-01
 ITU=  1  1  0
 Use linear search instead of GDIIS.
     Eigenvalues ---    0.00248   0.00874   0.01306   0.01423   0.03911
     Eigenvalues ---    0.04848   0.05306   0.05448   0.05821   0.09859
     Eigenvalues ---    0.10125   0.10461   0.11119   0.13138   0.13454
     Eigenvalues ---    0.15963   0.16000   0.16000   0.16014   0.16499
     Eigenvalues ---    0.21921   0.23281   0.26000   0.28796   0.33767
     Eigenvalues ---    0.34577   0.34610   0.34649   0.34672   0.34687
     Eigenvalues ---    0.34884   0.37964   0.42098   0.44710   0.45328
     Eigenvalues ---    0.46381
 RFO step:  Lambda=-4.20376207D-05 EMin= 2.47899604D-03
 Quartic linear search produced a step of  0.00900.
 Iteration  1 RMS(Cart)=  0.01522760 RMS(Int)=  0.00007681
 Iteration  2 RMS(Cart)=  0.00012490 RMS(Int)=  0.00000109
 Iteration  3 RMS(Cart)=  0.00000001 RMS(Int)=  0.00000109
 Variable       Old X    -DE/DX   Delta X   Delta X   Delta X     New X
                                 (Linear)    (Quad)   (Total)
    R1        2.76390  -0.00020  -0.00008  -0.00136  -0.00143   2.76246
    R2        1.92404   0.00009  -0.00000   0.00018   0.00018   1.92422
    R3        1.92611  -0.00025   0.00002  -0.00028  -0.00026   1.92585
    R4        2.88646  -0.00101  -0.00002  -0.00397  -0.00399   2.88247
    R5        2.07209  -0.00008   0.00002   0.00001   0.00003   2.07212
    R6        2.07108   0.00006   0.00002   0.00038   0.00040   2.07148
    R7        2.67910  -0.00063   0.00004  -0.00117  -0.00114   2.67796
    R8        2.08855  -0.00006   0.00004   0.00036   0.00040   2.08894
    R9        2.08599  -0.00007  -0.00000  -0.00013  -0.00013   2.08586
   R10        2.66686  -0.00056   0.00002  -0.00121  -0.00119   2.66566
   R11        2.08100  -0.00004   0.00002   0.00013   0.00015   2.08114
   R12        2.08167  -0.00006   0.00001   0.00006   0.00008   2.08175
   R13        2.06540  -0.00033   0.00001  -0.00086  -0.00085   2.06455
    A1        1.87900   0.00026  -0.00005   0.00145   0.00139   1.88039
    A2        1.90595   0.00020   0.00001   0.00154   0.00155   1.90750
    A3        1.84328  -0.00015  -0.00000  -0.00042  -0.00042   1.84285
    A4        2.01024  -0.00058  -0.00006  -0.00295  -0.00300   2.00724
    A5        1.90283   0.00033  -0.00009   0.00164   0.00155   1.90438
    A6        1.88523   0.00029   0.00003   0.00187   0.00190   1.88714
    A7        1.90116   0.00008   0.00009   0.00092   0.00101   1.90217
    A8        1.89099   0.00003   0.00003  -0.00084  -0.00082   1.89018
    A9        1.86835  -0.00012   0.00001  -0.00053  -0.00052   1.86783
   A10        1.88009  -0.00019   0.00014   0.00079   0.00094   1.88103
   A11        1.92109   0.00030   0.00007   0.00241   0.00248   1.92357
   A12        1.93609  -0.00020  -0.00012  -0.00255  -0.00267   1.93342
   A13        1.92388  -0.00014   0.00001  -0.00159  -0.00159   1.92230
   A14        1.92836   0.00034  -0.00004   0.00274   0.00270   1.93107
   A15        1.87480  -0.00010  -0.00006  -0.00180  -0.00185   1.87295
   A16        1.97103  -0.00008   0.00012   0.00098   0.00110   1.97213
   A17        1.94927   0.00015  -0.00001   0.00077   0.00076   1.95003
   A18        1.94960   0.00020  -0.00003   0.00099   0.00097   1.95057
   A19        1.87490  -0.00003   0.00010   0.00084   0.00094   1.87583
   A20        1.88856  -0.00025  -0.00007  -0.00250  -0.00257   1.88599
   A21        1.90018  -0.00005   0.00000  -0.00020  -0.00020   1.89998
   A22        1.90037  -0.00003   0.00001   0.00010   0.00011   1.90048
    D1        0.94084  -0.00010  -0.00017  -0.01270  -0.01287   0.92797
    D2        3.08356  -0.00015  -0.00017  -0.01231  -0.01248   3.07107
    D3       -1.17519   0.00004  -0.00019  -0.01106  -0.01124  -1.18643
    D4       -1.05235  -0.00016  -0.00014  -0.01375  -0.01389  -1.06624
    D5        1.09036  -0.00021  -0.00014  -0.01336  -0.01350   1.07686
    D6        3.11480  -0.00002  -0.00016  -0.01210  -0.01226   3.10254
    D7       -1.04919   0.00018  -0.00032   0.02405   0.02373  -1.02546
    D8        1.04896   0.00007  -0.00018   0.02400   0.02382   1.07277
    D9        3.12149   0.00001  -0.00028   0.02171   0.02142  -3.14028
   D10        3.09039   0.00010  -0.00022   0.02326   0.02304   3.11344
   D11       -1.09464  -0.00002  -0.00009   0.02322   0.02314  -1.07151
   D12        0.97789  -0.00008  -0.00019   0.02092   0.02074   0.99863
   D13        1.06371   0.00018  -0.00029   0.02386   0.02357   1.08728
   D14       -3.12133   0.00007  -0.00016   0.02382   0.02366  -3.09767
   D15       -1.04880   0.00001  -0.00026   0.02152   0.02126  -1.02753
   D16        3.11967  -0.00007  -0.00004  -0.01390  -0.01395   3.10573
   D17        1.02329  -0.00024  -0.00022  -0.01639  -0.01661   1.00668
   D18       -1.04617  -0.00023  -0.00013  -0.01488  -0.01500  -1.06118
   D19        1.06122  -0.00003  -0.00006  -0.00127  -0.00133   1.05989
   D20       -1.05662   0.00004   0.00005   0.00071   0.00076  -1.05586
   D21       -3.13951  -0.00002  -0.00000  -0.00053  -0.00053  -3.14004
         Item               Value     Threshold  Converged?
 Maximum Force            0.001007     0.000450     NO 
 RMS     Force            0.000247     0.000300     YES
 Maximum Displacement     0.036164     0.001800     NO 
 RMS     Displacement     0.015211     0.001200     NO 
 Predicted change in Energy=-2.118204D-05
 GradGradGradGradGradGradGradGradGradGradGradGradGradGradGradGradGradGrad

                          Input orientation:                          
 ---------------------------------------------------------------------
 Center     Atomic      Atomic             Coordinates (Angstroms)
 Number     Number       Type             X           Y           Z
 ---------------------------------------------------------------------
      1          7           0       -0.365495   -1.219778   -2.102786
      2          6           0        0.698481   -0.319584   -1.661693
      3          6           0        0.878089   -0.225575   -0.149886
      4          8           0       -0.348011    0.218719    0.404637
      5          6           0       -0.318399    0.300859    1.812540
      6          1           0       -1.219992   -0.950803   -1.618710
      7          1           0       -0.158195   -2.166294   -1.786978
      8          1           0        1.646085   -0.634634   -2.114616
      9          1           0        0.477427    0.683302   -2.045049
     10          1           0        1.147363   -1.214191    0.264946
     11          1           0        1.695451    0.471159    0.104735
     12          1           0        0.446048    1.011712    2.163479
     13          1           0       -0.112404   -0.677787    2.274467
     14          1           0       -1.300747    0.647595    2.141714
 ---------------------------------------------------------------------
                    Distance matrix (angstroms):
                    1          2          3          4          5
     1  N    0.000000
     2  C    1.461833   0.000000
     3  C    2.519674   1.525338   0.000000
     4  O    2.890804   2.377948   1.417115   0.000000
     5  C    4.200516   3.672777   2.357930   1.410608   0.000000
     6  H    1.018255   2.020105   2.661831   2.494407   3.762048
     7  H    1.019118   2.039591   2.742325   3.244610   4.366811
     8  H    2.094991   1.096517   2.148793   3.324345   4.489644
     9  H    2.082202   1.096179   2.139680   2.626433   3.957347
    10  H    2.809790   2.171118   1.105421   2.075787   2.615126
    11  H    3.461201   2.177037   1.103788   2.080722   2.645977
    12  H    4.882536   4.058079   2.658796   2.086358   1.101294
    13  H    4.417935   4.034749   2.657642   2.086983   1.101616
    14  H    4.730492   4.404345   3.280424   2.027086   1.092514
                    6          7          8          9         10
     6  H    0.000000
     7  H    1.622697   0.000000
     8  H    2.925796   2.389301   0.000000
     9  H    2.394430   2.931010   1.762827   0.000000
    10  H    3.036759   2.611776   2.499385   3.063556   0.000000
    11  H    3.673152   3.737745   2.480067   2.479951   1.779459
    12  H    4.575162   5.105971   4.738422   4.221439   3.008474
    13  H    4.056861   4.325863   4.728446   4.567131   2.431650
    14  H    4.086831   4.965684   5.333318   4.548864   3.603019
                   11         12         13         14
    11  H    0.000000
    12  H    2.468123   0.000000
    13  H    3.048959   1.782861   0.000000
    14  H    3.627342   1.784473   1.785054   0.000000
 Stoichiometry    C3H9NO
 Framework group  C1[X(C3H9NO)]
 Deg. of freedom    36
 Full point group                 C1      NOp   1
 Largest Abelian subgroup         C1      NOp   1
 Largest concise Abelian subgroup C1      NOp   1
                         Standard orientation:                         
 ---------------------------------------------------------------------
 Center     Atomic      Atomic             Coordinates (Angstroms)
 Number     Number       Type             X           Y           Z
 ---------------------------------------------------------------------
      1          7           0        1.966794   -0.749107    0.093744
      2          6           0        1.370888    0.545061   -0.233335
      3          6           0       -0.064772    0.733538    0.246264
      4          8           0       -0.853965   -0.287718   -0.338907
      5          6           0       -2.203202   -0.244215    0.070339
      6          1           0        1.337892   -1.474741   -0.245048
      7          1           0        1.993854   -0.861043    1.106334
      8          1           0        1.994679    1.343687    0.185507
      9          1           0        1.387975    0.662712   -1.323048
     10          1           0       -0.111178    0.665882    1.348637
     11          1           0       -0.444892    1.730074   -0.037943
     12          1           0       -2.683932    0.706047   -0.210286
     13          1           0       -2.303585   -0.368907    1.160263
     14          1           0       -2.724137   -1.064519   -0.428975
 ---------------------------------------------------------------------
 Rotational constants (GHZ):          12.5660795           2.6797791           2.4172832
 Standard basis: 6-31G(d,p) (6D, 7F)
 There are   120 symmetry adapted cartesian basis functions of A   symmetry.
 There are   120 symmetry adapted basis functions of A   symmetry.
   120 basis functions,   203 primitive gaussians,   120 cartesian basis functions
    21 alpha electrons       21 beta electrons
       nuclear repulsion energy       192.8996739702 Hartrees.
 NAtoms=   14 NActive=   14 NUniq=   14 SFac= 1.00D+00 NAtFMM=   60 NAOKFM=F Big=F
 Integral buffers will be    131072 words long.
 Raffenetti 2 integral format.
 Two-electron integral symmetry is turned on.
 Nuclear repulsion after empirical dispersion term =      192.8850651448 Hartrees.
 One-electron integrals computed using PRISM.
 NBasis=   120 RedAO= T EigKep=  4.64D-03  NBF=   120
 NBsUse=   120 1.00D-06 EigRej= -1.00D+00 NBFU=   120
 Initial guess from the checkpoint file:  "N1_conf-1.chk"
 B after Tr=    -0.000000    0.000000   -0.000000
         Rot=    0.999999   -0.000887    0.000505    0.001224 Ang=  -0.18 deg.
 ExpMin= 1.61D-01 ExpMax= 5.48D+03 ExpMxC= 8.25D+02 IAcc=3 IRadAn=         5 AccDes= 0.00D+00
 Harris functional with IExCor=  402 and IRadAn=       5 diagonalized for initial guess.
 HarFok:  IExCor=  402 AccDes= 0.00D+00 IRadAn=         5 IDoV= 1 UseB2=F ITyADJ=14
 ICtDFT=  3500011 ScaDFX=  1.000000  1.000000  1.000000  1.000000
 FoFCou: FMM=F IPFlag=           0 FMFlag=      100000 FMFlg1=           0
         NFxFlg=           0 DoJE=T BraDBF=F KetDBF=T FulRan=T
         wScrn=  0.000000 ICntrl=       500 IOpCl=  0 I1Cent=   200000004 NGrid=           0
         NMat0=    1 NMatS0=      1 NMatT0=    0 NMatD0=    1 NMtDS0=    0 NMtDT0=    0
 Petite list used in FoFCou.
 Requested convergence on RMS density matrix=1.00D-08 within 128 cycles.
 Requested convergence on MAX density matrix=1.00D-06.
 Requested convergence on             energy=1.00D-06.
 No special actions if energy rises.
 Integral accuracy reduced to 1.0D-05 until final iterations.
 Initial convergence to 1.0D-05 achieved.  Increase integral accuracy.
 SCF Done:  E(RB3LYP) =  -249.716227547     A.U. after    9 cycles
            NFock=  9  Conv=0.34D-08     -V/T= 2.0093
 Calling FoFJK, ICntrl=      2127 FMM=F ISym2X=0 I1Cent= 0 IOpClX= 0 NMat=1 NMatS=1 NMatT=0.
 ***** Axes restored to original set *****
 -------------------------------------------------------------------
 Center     Atomic                   Forces (Hartrees/Bohr)
 Number     Number              X              Y              Z
 -------------------------------------------------------------------
      1        7          -0.000214497   -0.000184185   -0.000039355
      2        6          -0.000320982   -0.000002554   -0.000183063
      3        6           0.000089396   -0.000277342    0.000567942
      4        8           0.000169685    0.000228756   -0.000004022
      5        6           0.000219515   -0.000140085   -0.000235342
      6        1           0.000106252   -0.000071304    0.000048826
      7        1           0.000050274    0.000160711   -0.000165510
      8        1          -0.000037708    0.000107293    0.000185659
      9        1           0.000065105   -0.000039742   -0.000183669
     10        1          -0.000032511    0.000161209   -0.000004771
     11        1          -0.000014187    0.000054057    0.000103780
     12        1          -0.000079458   -0.000006702    0.000027457
     13        1          -0.000025565    0.000015618   -0.000032423
     14        1           0.000024682   -0.000005731   -0.000085508
 -------------------------------------------------------------------
 Cartesian Forces:  Max     0.000567942 RMS     0.000158059

 GradGradGradGradGradGradGradGradGradGradGradGradGradGradGradGradGradGrad
 Berny optimization.
 Using GEDIIS/GDIIS optimizer.
 FormGI is forming the generalized inverse of G from B-inverse, IUseBI=4.
 Internal  Forces:  Max     0.000376796 RMS     0.000128913
 Search for a local minimum.
 Step number   4 out of a maximum of   66
 All quantities printed in internal units (Hartrees-Bohrs-Radians)
 Mixed Optimization -- En-DIIS/RFO-DIIS
 Swapping is turned off.
 Update second derivatives using D2CorX and points    1    2    3    4
 DE= -1.97D-05 DEPred=-2.12D-05 R= 9.29D-01
 TightC=F SS=  1.41D+00  RLast= 8.00D-02 DXNew= 8.4853D-01 2.4010D-01
 Trust test= 9.29D-01 RLast= 8.00D-02 DXMaxT set to 5.05D-01
 ITU=  1  1  1  0
     Eigenvalues ---    0.00341   0.00573   0.01229   0.01425   0.03967
     Eigenvalues ---    0.04833   0.05376   0.05445   0.05866   0.09944
     Eigenvalues ---    0.10161   0.10450   0.11096   0.13250   0.13822
     Eigenvalues ---    0.15880   0.15995   0.16000   0.16203   0.16446
     Eigenvalues ---    0.22165   0.23300   0.27748   0.29925   0.34007
     Eigenvalues ---    0.34557   0.34601   0.34649   0.34672   0.34823
     Eigenvalues ---    0.34866   0.37781   0.42104   0.44742   0.45255
     Eigenvalues ---    0.46688
 En-DIIS/RFO-DIIS/Sim-DIIS IScMMF=       -3 using points:     4    3
 RFO step:  Lambda=-1.39530110D-05.
 DidBck=F Rises=F RFO-DIIS coefs:    0.91393    0.08607
 Iteration  1 RMS(Cart)=  0.00897726 RMS(Int)=  0.00005575
 Iteration  2 RMS(Cart)=  0.00006047 RMS(Int)=  0.00000020
 Iteration  3 RMS(Cart)=  0.00000000 RMS(Int)=  0.00000020
 Variable       Old X    -DE/DX   Delta X   Delta X   Delta X     New X
                                 (Linear)    (Quad)   (Total)
    R1        2.76246   0.00015   0.00012  -0.00042  -0.00030   2.76217
    R2        1.92422  -0.00008  -0.00002  -0.00008  -0.00010   1.92412
    R3        1.92585  -0.00019   0.00002  -0.00036  -0.00034   1.92551
    R4        2.88247   0.00038   0.00034  -0.00064  -0.00029   2.88218
    R5        2.07212  -0.00014  -0.00000  -0.00028  -0.00028   2.07184
    R6        2.07148   0.00001  -0.00003   0.00030   0.00026   2.07174
    R7        2.67796  -0.00037   0.00010  -0.00128  -0.00118   2.67678
    R8        2.08894  -0.00015  -0.00003  -0.00001  -0.00005   2.08890
    R9        2.08586   0.00005   0.00001   0.00018   0.00019   2.08605
   R10        2.66566  -0.00033   0.00010  -0.00128  -0.00117   2.66449
   R11        2.08114  -0.00005  -0.00001   0.00007   0.00005   2.08120
   R12        2.08175  -0.00003  -0.00001   0.00009   0.00008   2.08183
   R13        2.06455  -0.00005   0.00007  -0.00045  -0.00038   2.06417
    A1        1.88039  -0.00003  -0.00012   0.00038   0.00026   1.88065
    A2        1.90750  -0.00003  -0.00013   0.00040   0.00027   1.90776
    A3        1.84285   0.00003   0.00004   0.00003   0.00007   1.84292
    A4        2.00724   0.00021   0.00026   0.00003   0.00029   2.00753
    A5        1.90438   0.00000  -0.00013   0.00015   0.00002   1.90439
    A6        1.88714  -0.00009  -0.00016   0.00111   0.00095   1.88808
    A7        1.90217  -0.00018  -0.00009  -0.00100  -0.00109   1.90108
    A8        1.89018   0.00006   0.00007   0.00072   0.00079   1.89097
    A9        1.86783  -0.00002   0.00004  -0.00108  -0.00104   1.86679
   A10        1.88103  -0.00023  -0.00008  -0.00041  -0.00049   1.88054
   A11        1.92357   0.00006  -0.00021   0.00190   0.00169   1.92526
   A12        1.93342   0.00018   0.00023  -0.00038  -0.00015   1.93327
   A13        1.92230   0.00011   0.00014   0.00004   0.00018   1.92248
   A14        1.93107  -0.00006  -0.00023  -0.00019  -0.00043   1.93064
   A15        1.87295  -0.00006   0.00016  -0.00093  -0.00077   1.87218
   A16        1.97213  -0.00025  -0.00009  -0.00014  -0.00024   1.97189
   A17        1.95003   0.00011  -0.00007   0.00101   0.00094   1.95097
   A18        1.95057  -0.00001  -0.00008   0.00032   0.00024   1.95080
   A19        1.87583  -0.00014  -0.00008  -0.00042  -0.00050   1.87533
   A20        1.88599   0.00003   0.00022  -0.00097  -0.00074   1.88524
   A21        1.89998  -0.00001   0.00002  -0.00015  -0.00013   1.89985
   A22        1.90048   0.00003  -0.00001   0.00020   0.00019   1.90067
    D1        0.92797   0.00001   0.00111  -0.01223  -0.01112   0.91685
    D2        3.07107  -0.00008   0.00107  -0.01341  -0.01234   3.05874
    D3       -1.18643  -0.00015   0.00097  -0.01401  -0.01304  -1.19947
    D4       -1.06624   0.00000   0.00120  -0.01267  -0.01147  -1.07772
    D5        1.07686  -0.00008   0.00116  -0.01385  -0.01268   1.06417
    D6        3.10254  -0.00015   0.00106  -0.01445  -0.01339   3.08915
    D7       -1.02546  -0.00011  -0.00204  -0.00930  -0.01135  -1.03681
    D8        1.07277  -0.00008  -0.00205  -0.00839  -0.01044   1.06234
    D9       -3.14028   0.00001  -0.00184  -0.00858  -0.01042   3.13249
   D10        3.11344  -0.00012  -0.00198  -0.00874  -0.01073   3.10271
   D11       -1.07151  -0.00009  -0.00199  -0.00783  -0.00982  -1.08133
   D12        0.99863  -0.00001  -0.00178  -0.00802  -0.00980   0.98883
   D13        1.08728  -0.00003  -0.00203  -0.00731  -0.00934   1.07794
   D14       -3.09767  -0.00001  -0.00204  -0.00640  -0.00843  -3.10610
   D15       -1.02753   0.00008  -0.00183  -0.00658  -0.00841  -1.03595
   D16        3.10573  -0.00010   0.00120  -0.01156  -0.01036   3.09537
   D17        1.00668  -0.00009   0.00143  -0.01364  -0.01221   0.99447
   D18       -1.06118  -0.00005   0.00129  -0.01240  -0.01111  -1.07228
   D19        1.05989   0.00006   0.00011   0.00056   0.00068   1.06057
   D20       -1.05586  -0.00004  -0.00007   0.00087   0.00080  -1.05506
   D21       -3.14004   0.00002   0.00005   0.00070   0.00075  -3.13929
         Item               Value     Threshold  Converged?
 Maximum Force            0.000377     0.000450     YES
 RMS     Force            0.000129     0.000300     YES
 Maximum Displacement     0.023452     0.001800     NO 
 RMS     Displacement     0.008977     0.001200     NO 
 Predicted change in Energy=-6.992076D-06
 GradGradGradGradGradGradGradGradGradGradGradGradGradGradGradGradGradGrad

                          Input orientation:                          
 ---------------------------------------------------------------------
 Center     Atomic      Atomic             Coordinates (Angstroms)
 Number     Number       Type             X           Y           Z
 ---------------------------------------------------------------------
      1          7           0       -0.365296   -1.221964   -2.101351
      2          6           0        0.695783   -0.317986   -1.661541
      3          6           0        0.877252   -0.223192   -0.150163
      4          8           0       -0.344774    0.230947    0.403788
      5          6           0       -0.318161    0.302240    1.811719
      6          1           0       -1.217772   -0.963214   -1.608331
      7          1           0       -0.148897   -2.169513   -1.795479
      8          1           0        1.644084   -0.630172   -2.114632
      9          1           0        0.472409    0.684202   -2.045773
     10          1           0        1.140368   -1.212267    0.267453
     11          1           0        1.699520    0.468541    0.102729
     12          1           0        0.452748    1.001904    2.170996
     13          1           0       -0.123970   -0.681912    2.267115
     14          1           0       -1.297593    0.657086    2.140271
 ---------------------------------------------------------------------
                    Distance matrix (angstroms):
                    1          2          3          4          5
     1  N    0.000000
     2  C    1.461677   0.000000
     3  C    2.519645   1.525183   0.000000
     4  O    2.896048   2.376903   1.416492   0.000000
     5  C    4.199707   3.671008   2.356708   1.409987   0.000000
     6  H    1.018202   2.020110   2.657633   2.497353   3.755985
     7  H    1.018938   2.039504   2.747401   3.261495   4.376082
     8  H    2.094756   1.096370   2.147744   3.322577   4.487319
     9  H    2.082861   1.096317   2.140234   2.621751   3.956153
    10  H    2.806840   2.172191   1.105397   2.075356   2.608792
    11  H    3.461105   2.176870   1.103891   2.079958   2.649405
    12  H    4.885462   4.060729   2.658729   2.086490   1.101322
    13  H    4.408332   4.029736   2.656332   2.086637   1.101658
    14  H    4.731952   4.402055   3.278860   2.026039   1.092313
                    6          7          8          9         10
     6  H    0.000000
     7  H    1.622553   0.000000
     8  H    2.925317   2.384578   0.000000
     9  H    2.400426   2.931272   1.762141   0.000000
    10  H    3.023478   2.614232   2.503377   3.064928   0.000000
    11  H    3.672635   3.738873   2.475264   2.483621   1.779017
    12  H    4.575549   5.113979   4.738097   4.228767   2.999808
    13  H    4.036659   4.326459   4.725293   4.563216   2.424556
    14  H    4.084576   4.979888   5.330544   4.544954   3.597997
                   11         12         13         14
    11  H    0.000000
    12  H    2.473186   0.000000
    13  H    3.055033   1.782435   0.000000
    14  H    3.629024   1.784247   1.785048   0.000000
 Stoichiometry    C3H9NO
 Framework group  C1[X(C3H9NO)]
 Deg. of freedom    36
[...]
      1          7           0        1.964979   -0.752077    0.092192
      2          6           0        1.371042    0.543937   -0.231531
      3          6           0       -0.065140    0.733935    0.247866
      4          8           0       -0.856392   -0.277658   -0.350183
      5          6           0       -2.200601   -0.248403    0.074787
      6          1           0        1.327345   -1.475783   -0.233965
      7          1           0        2.008151   -0.859206    1.104427
      8          1           0        1.994841    1.340477    0.190657
      9          1           0        1.390213    0.666262   -1.320752
     10          1           0       -0.113732    0.654523    1.349044
     11          1           0       -0.441682    1.734752   -0.026371
     12          1           0       -2.689557    0.704374   -0.181913
     13          1           0       -2.288107   -0.395035    1.163062
     14          1           0       -2.723001   -1.061374   -0.434797
 ---------------------------------------------------------------------
 Rotational constants (GHZ):          12.5320735           2.6807130           2.4193605
 Standard basis: def2TZVP (5D, 7F)
 There are   234 symmetry adapted cartesian basis functions of A   symmetry.
 There are   209 symmetry adapted basis functions of A   symmetry.
   209 basis functions,   327 primitive gaussians,   234 cartesian basis functions
    21 alpha electrons       21 beta electrons
       nuclear repulsion energy       192.9083185559 Hartrees.
 NAtoms=   14 NActive=   14 NUniq=   14 SFac= 1.00D+00 NAtFMM=   60 NAOKFM=F Big=F
 Integral buffers will be    131072 words long.
 Raffenetti 2 integral format.
 Two-electron integral symmetry is turned on.
 One-electron integrals computed using PRISM.
   1 Symmetry operations used in ECPInt.
 ECPInt:  NShTT=    4186 NPrTT=   12072 LenC2=    4145 LenP2D=   10018.
 LDataN:  DoStor=T MaxTD1= 6 Len=  172
 NBasis=   209 RedAO= T EigKep=  3.82D-04  NBF=   209
 NBsUse=   209 1.00D-06 EigRej= -1.00D+00 NBFU=   209
 Initial guess from the checkpoint file:  "N1_conf-1.chk"
 B after Tr=     0.000000    0.000000    0.000000
         Rot=    1.000000    0.000000    0.000000    0.000000 Ang=   0.00 deg.
 Requested convergence on RMS density matrix=1.00D-08 within 128 cycles.
 Requested convergence on MAX density matrix=1.00D-06.
 Requested convergence on             energy=1.00D-06.
 No special actions if energy rises.
 SCF Done:  E(RM062X) =  -249.671914126     A.U. after    1 cycles
            NFock=  1  Conv=0.19D-08     -V/T= 2.0052
 DoSCS=F DFT=T ScalE2(SS,OS)=  1.000000  1.000000
 Range of M.O.s used for correlation:     1   209
 NBasis=   209 NAE=    21 NBE=    21 NFC=     0 NFV=     0
 NROrb=    209 NOA=    21 NOB=    21 NVA=   188 NVB=   188

 **** Warning!!: The largest alpha MO coefficient is  0.10836578D+02

          Differentiating once with respect to magnetic field using GIAOs.
          Electric field/nuclear overlap derivatives assumed to be zero.
 FoFCou: FMM=F IPFlag=           0 FMFlag=      100000 FMFlg1=           0
         NFxFlg=           0 DoJE=F BraDBF=F KetDBF=T FulRan=T
         wScrn=  0.000000 ICntrl=      6100 IOpCl=  0 I1Cent=           7 NGrid=          14
         NMat0=    1 NMatS0=      1 NMatT0=    0 NMatD0=    1 NMtDS0=    0 NMtDT0=    0
 Symmetry not used in FoFCou.
   1 Symmetry operations used in ECPInt.
 ECPInt:  NShTT=    4186 NPrTT=   12072 LenC2=    4187 LenP2D=   12072.
 LDataN:  DoStor=T MaxTD1= 7 Len=  274
 FoFJK:  IHMeth= 1 ICntrl=    6127 DoSepK=F KAlg= 0 I1Cent=           0 FoldK=F
 IRaf=         1 NMat=       1 IRICut=       1 DoRegI=T DoRafI=F ISym2E= 0 IDoP0=0 IntGTp=1.
          There are     3 degrees of freedom in the 1st order CPHF.  IDoFFX=0 NUNeed=     3.
      3 vectors produced by pass  0 Test12= 1.32D-13 3.33D-08 XBig12= 2.97D+00 3.59D-01.
 AX will form     3 AO Fock derivatives at one time.
      3 vectors produced by pass  1 Test12= 1.32D-13 3.33D-08 XBig12= 1.14D-02 2.19D-02.
      3 vectors produced by pass  2 Test12= 1.32D-13 3.33D-08 XBig12= 8.81D-05 2.63D-03.
      3 vectors produced by pass  3 Test12= 1.32D-13 3.33D-08 XBig12= 1.09D-06 1.99D-04.
      3 vectors produced by pass  4 Test12= 1.32D-13 3.33D-08 XBig12= 1.08D-08 2.04D-05.
      3 vectors produced by pass  5 Test12= 1.32D-13 3.33D-08 XBig12= 9.41D-11 1.72D-06.
      3 vectors produced by pass  6 Test12= 1.32D-13 3.33D-08 XBig12= 7.23D-13 1.47D-07.
 InvSVY:  IOpt=1 It=  1 EMax= 4.44D-16
 Solved reduced A of dimension    21 with     3 vectors.
 Calculating GIAO nuclear magnetic shielding tensors.
 SCF GIAO Magnetic shielding tensor (ppm):
      1  N    Isotropic =   234.2248   Anisotropy =    46.9219
   XX=   212.0057   YX=    -8.7547   ZX=     7.4173
   XY=   -14.8071   YY=   233.3246   ZY=    -7.8862
   XZ=    12.6931   YZ=   -14.9308   ZZ=   257.3440
   Eigenvalues:   206.3098   230.8585   265.5060
      2  C    Isotropic =   138.7185   Anisotropy =    25.5749
   XX=   145.5401   YX=    -5.2916   ZX=    -4.8612
   XY=   -13.2107   YY=   147.1917   ZY=    -8.5359
   XZ=    -4.0789   YZ=    -4.5931   ZZ=   123.4235
   Eigenvalues:   119.8607   140.5263   155.7684
      3  C    Isotropic =   103.8286   Anisotropy =    56.6532
   XX=   121.5772   YX=    14.5103   ZX=     8.4436
   XY=    30.2812   YY=   101.3705   ZY=    20.0830
   XZ=    12.9559   YZ=     9.5821   ZZ=    88.5381
   Eigenvalues:    78.3394    91.5489   141.5974
      4  O    Isotropic =   314.4519   Anisotropy =    47.4664
   XX=   311.5362   YX=     4.4704   ZX=    -6.6091
   XY=    11.4885   YY=   302.6518   ZY=    20.0982
   XZ=     5.9792   YZ=    33.1186   ZZ=   329.1676
   Eigenvalues:   284.3853   312.8742   346.0962
      5  C    Isotropic =   125.1009   Anisotropy =    90.2945
   XX=   179.7240   YX=     5.8437   ZX=   -20.1844
   XY=     2.7647   YY=    93.7695   ZY=    -1.0455
   XZ=   -21.9916   YZ=    -2.4959   ZZ=   101.8093
   Eigenvalues:    93.3963    96.6092   185.2973
      6  H    Isotropic =    30.6756   Anisotropy =    11.5763
   XX=    30.6885   YX=     2.0037   ZX=     3.9093
   XY=     3.3444   YY=    35.6291   ZY=     3.6963
   XZ=     2.8919   YZ=     3.0056   ZZ=    25.7093
   Eigenvalues:    23.6746    29.9592    38.3932
      7  H    Isotropic =    32.3200   Anisotropy =    13.8072
   XX=    27.4700   YX=    -1.3977   ZX=     3.2237
   XY=    -1.4926   YY=    29.7919   ZY=    -4.1781
   XZ=     3.4908   YZ=    -2.0221   ZZ=    39.6982
   Eigenvalues:    26.4527    28.9826    41.5248
      8  H    Isotropic =    29.3821   Anisotropy =     7.9627
   XX=    30.4925   YX=     2.0101   ZX=     0.8118
   XY=     3.2640   YY=    32.8911   ZY=     0.5925
   XZ=     1.0610   YZ=     0.5885   ZZ=    24.7626
   Eigenvalues:    24.6095    28.8462    34.6905
      9  H    Isotropic =    29.1282   Anisotropy =     7.7298
   XX=    27.7538   YX=    -1.4253   ZX=    -1.6158
   XY=    -1.1320   YY=    28.0015   ZY=    -4.4915
   XZ=    -1.6692   YZ=    -3.5001   ZZ=    31.6293
   Eigenvalues:    24.2956    28.8076    34.2814
     10  H    Isotropic =    28.9709   Anisotropy =     6.1968
   XX=    28.6117   YX=     1.5832   ZX=     1.7556
   XY=     0.2126   YY=    27.4323   ZY=     3.9769
   XZ=     0.3209   YZ=     2.2244   ZZ=    30.8686
   Eigenvalues:    25.5837    28.2269    33.1021
     11  H    Isotropic =    28.5752   Anisotropy =     5.1565
   XX=    28.2199   YX=     0.5118   ZX=     0.5207
   XY=    -1.3494   YY=    31.9598   ZY=     0.3595
   XZ=     0.2849   YZ=     0.1497   ZZ=    25.5459
   Eigenvalues:    25.4713    28.2413    32.0129
     12  H    Isotropic =    28.6959   Anisotropy =     8.6007
   XX=    32.9363   YX=    -4.6616   ZX=     0.3240
   XY=    -1.8981   YY=    27.1367   ZY=    -1.0923
   XZ=    -0.1374   YZ=    -0.2355   ZZ=    26.0147
   Eigenvalues:    25.2374    26.4205    34.4297
     13  H    Isotropic =    28.7845   Anisotropy =     8.3943
   XX=    30.4820   YX=     0.4117   ZX=    -5.3927
   XY=     0.7020   YY=    25.9154   ZY=    -1.4383
   XZ=    -2.4603   YZ=    -1.4109   ZZ=    29.9562
   Eigenvalues:    25.2709    26.7019    34.3807
     14  H    Isotropic =    28.2367   Anisotropy =     9.1253
   XX=    32.5830   YX=     4.4907   ZX=     1.4838
   XY=     2.3575   YY=    26.9292   ZY=     1.3464
   XZ=    -0.1581   YZ=     0.8138   ZZ=    25.1979
   Eigenvalues:    24.4947    25.8952    34.3202
 End of Minotr F.D. properties file   721 does not exist.
 End of Minotr F.D. properties file   722 does not exist.
 End of Minotr F.D. properties file   788 does not exist.

 **********************************************************************

            Population analysis using the SCF Density.

 **********************************************************************

 Orbital symmetries:
       Occupied  (A) (A) (A) (A) (A) (A) (A) (A) (A) (A) (A) (A)
                 (A) (A) (A) (A) (A) (A) (A) (A) (A)
       Virtual   (A) (A) (A) (A) (A) (A) (A) (A) (A) (A) (A) (A)
                 (A) (A) (A) (A) (A) (A) (A) (A) (A) (A) (A) (A)
                 (A) (A) (A) (A) (A) (A) (A) (A) (A) (A) (A) (A)
                 (A) (A) (A) (A) (A) (A) (A) (A) (A) (A) (A) (A)
                 (A) (A) (A) (A) (A) (A) (A) (A) (A) (A) (A) (A)
                 (A) (A) (A) (A) (A) (A) (A) (A) (A) (A) (A) (A)
                 (A) (A) (A) (A) (A) (A) (A) (A) (A) (A) (A) (A)
                 (A) (A) (A) (A) (A) (A) (A) (A) (A) (A) (A) (A)
                 (A) (A) (A) (A) (A) (A) (A) (A) (A) (A) (A) (A)
                 (A) (A) (A) (A) (A) (A) (A) (A) (A) (A) (A) (A)
                 (A) (A) (A) (A) (A) (A) (A) (A) (A) (A) (A) (A)
                 (A) (A) (A) (A) (A) (A) (A) (A) (A) (A) (A) (A)
                 (A) (A) (A) (A) (A) (A) (A) (A) (A) (A) (A) (A)
                 (A) (A) (A) (A) (A) (A) (A) (A) (A) (A) (A) (A)
                 (A) (A) (A) (A) (A) (A) (A) (A) (A) (A) (A) (A)
                 (A) (A) (A) (A) (A) (A) (A) (A)
 The electronic state is 1-A.
 Alpha  occ. eigenvalues --  -19.63226 -14.72036 -10.58274 -10.58150 -10.55672
 Alpha  occ. eigenvalues --   -1.16225  -0.98309  -0.83603  -0.75921  -0.68753
 Alpha  occ. eigenvalues --   -0.58064  -0.56138  -0.54291  -0.53380  -0.48991
 Alpha  occ. eigenvalues --   -0.46100  -0.43322  -0.42041  -0.39734  -0.33802
 Alpha  occ. eigenvalues --   -0.30745
 Alpha virt. eigenvalues --    0.06420   0.08875   0.09996   0.11391   0.12904
 Alpha virt. eigenvalues --    0.14039   0.14657   0.15600   0.17303   0.17503
 Alpha virt. eigenvalues --    0.19504   0.22300   0.23848   0.24652   0.25569
 Alpha virt. eigenvalues --    0.30971   0.34140   0.34766   0.35320   0.37078
 Alpha virt. eigenvalues --    0.37391   0.39293   0.40245   0.43102   0.44526
 Alpha virt. eigenvalues --    0.45620   0.47924   0.48293   0.50304   0.50944
 Alpha virt. eigenvalues --    0.51768   0.53512   0.55008   0.55597   0.58194
 Alpha virt. eigenvalues --    0.59152   0.61608   0.64954   0.67244   0.69755
 Alpha virt. eigenvalues --    0.73278   0.76785   0.80772   0.83496   0.85189
 Alpha virt. eigenvalues --    0.88962   0.90444   0.95480   0.97138   1.02194
 Alpha virt. eigenvalues --    1.04314   1.08576   1.12311   1.15675   1.18201
 Alpha virt. eigenvalues --    1.21146   1.23454   1.27536   1.31337   1.35993
 Alpha virt. eigenvalues --    1.44019   1.44094   1.46856   1.51695   1.55522
 Alpha virt. eigenvalues --    1.56087   1.58051   1.59927   1.61609   1.63656
 Alpha virt. eigenvalues --    1.66891   1.67696   1.69510   1.74679   1.76344
 Alpha virt. eigenvalues --    1.77198   1.81887   1.83797   1.89359   1.94292
 Alpha virt. eigenvalues --    1.94784   1.98378   1.99724   2.01632   2.03693
 Alpha virt. eigenvalues --    2.05768   2.06672   2.08086   2.10115   2.10602
 Alpha virt. eigenvalues --    2.20327   2.26441   2.30242   2.31526   2.32753
 Alpha virt. eigenvalues --    2.35277   2.38111   2.39003   2.44047   2.47002
 Alpha virt. eigenvalues --    2.48235   2.49769   2.51671   2.52369   2.56059
 Alpha virt. eigenvalues --    2.56796   2.60011   2.63503   2.65257   2.66288
 Alpha virt. eigenvalues --    2.69218   2.69304   2.72420   2.80933   2.83229
 Alpha virt. eigenvalues --    2.85924   2.89896   2.91357   2.97410   3.03254
 Alpha virt. eigenvalues --    3.08062   3.10901   3.12132   3.14337   3.17524
 Alpha virt. eigenvalues --    3.18708   3.20640   3.21430   3.23043   3.28004
 Alpha virt. eigenvalues --    3.29989   3.31288   3.38229   3.39438   3.39960
 Alpha virt. eigenvalues --    3.44787   3.46766   3.53296   3.57442   3.60559
 Alpha virt. eigenvalues --    3.63947   3.76261   3.78093   3.80163   3.81486
 Alpha virt. eigenvalues --    3.84639   3.90211   3.94832   4.01911   4.14527
 Alpha virt. eigenvalues --    4.17361   4.23327   4.26474   4.31044   4.32564
 Alpha virt. eigenvalues --    4.35900   4.41231   4.47296   4.49970   4.67613
 Alpha virt. eigenvalues --    4.71911   4.79615   4.81765   4.85846   4.91820
 Alpha virt. eigenvalues --    5.06500   5.08421   5.15345   5.26341   5.39916
 Alpha virt. eigenvalues --    5.45395   5.49800   5.70193   5.75936   5.82484
 Alpha virt. eigenvalues --    5.84264   6.11228   6.16902   6.68213   6.69972
 Alpha virt. eigenvalues --    6.83617   7.15676   7.23221  22.39098  22.51880
 Alpha virt. eigenvalues --   22.57824  32.03810  44.16179
          Condensed to atoms (all electrons):
               1          2          3          4          5          6
     1  N    6.634181   0.263798  -0.045464  -0.007319  -0.000167   0.382339
     2  C    0.263798   4.975647   0.342445  -0.054438   0.005290  -0.064871
     3  C   -0.045464   0.342445   4.963346   0.222664  -0.066740  -0.002301
     4  O   -0.007319  -0.054438   0.222664   8.107358   0.246184   0.012971
     5  C   -0.000167   0.005290  -0.066740   0.246184   4.837974  -0.000334
     6  H    0.382339  -0.064871  -0.002301   0.012971  -0.000334   0.466464
     7  H    0.369291  -0.061035   0.003467  -0.000511  -0.000109  -0.036928
     8  H   -0.030674   0.408629  -0.054359   0.005202  -0.000456   0.009328
     9  H   -0.037730   0.413375  -0.058430   0.001287  -0.000616  -0.004962
    10  H   -0.007993  -0.022290   0.401502  -0.052959  -0.009745  -0.000752
    11  H    0.011683  -0.052869   0.416845  -0.043915  -0.004680   0.000703
    12  H    0.000086  -0.001366  -0.010456  -0.043305   0.420635   0.000156
    13  H   -0.000384   0.001492  -0.013461  -0.044517   0.419574  -0.000107
    14  H    0.000195  -0.000328   0.011075  -0.033897   0.397999  -0.000124
               7          8          9         10         11         12
     1  N    0.369291  -0.030674  -0.037730  -0.007993   0.011683   0.000086
     2  C   -0.061035   0.408629   0.413375  -0.022290  -0.052869  -0.001366
     3  C    0.003467  -0.054359  -0.058430   0.401502   0.416845  -0.010456
     4  O   -0.000511   0.005202   0.001287  -0.052959  -0.043915  -0.043305
     5  C   -0.000109  -0.000456  -0.000616  -0.009745  -0.004680   0.420635
     6  H   -0.036928   0.009328  -0.004962  -0.000752   0.000703   0.000156
     7  H    0.503434  -0.008381   0.009513   0.003536   0.000467   0.000023
     8  H   -0.008381   0.560950  -0.020485  -0.001475   0.000876   0.000001
     9  H    0.009513  -0.020485   0.552608   0.009295  -0.004063  -0.000193
    10  H    0.003536  -0.001475   0.009295   0.613205  -0.057533  -0.005889
    11  H    0.000467   0.000876  -0.004063  -0.057533   0.608911   0.012724
    12  H    0.000023   0.000001  -0.000193  -0.005889   0.012724   0.585152
    13  H   -0.000076   0.000074   0.000159   0.014488  -0.005243  -0.060263
    14  H    0.000011   0.000002   0.000018  -0.000077  -0.000089  -0.025030
              13         14
     1  N   -0.000384   0.000195
     2  C    0.001492  -0.000328
     3  C   -0.013461   0.011075
     4  O   -0.044517  -0.033897
     5  C    0.419574   0.397999
     6  H   -0.000107  -0.000124
     7  H   -0.000076   0.000011
     8  H    0.000074   0.000002
     9  H    0.000159   0.000018
    10  H    0.014488  -0.000077
    11  H   -0.005243  -0.000089
    12  H   -0.060263  -0.025030
    13  H    0.587345  -0.025876
    14  H   -0.025876   0.535153
 Mulliken charges:
               1
     1  N   -0.531841
     2  C   -0.153480
     3  C   -0.110133
     4  O   -0.314807
     5  C   -0.244809
     6  H    0.238418
     7  H    0.217298
     8  H    0.130768
     9  H    0.140224
    10  H    0.116688
    11  H    0.116184
    12  H    0.127724
    13  H    0.126795
    14  H    0.140969
 Sum of Mulliken charges =  -0.00000
 Mulliken charges with hydrogens summed into heavy atoms:
               1
     1  N   -0.076125
     2  C    0.117512
     3  C    0.122740
     4  O   -0.314807
     5  C    0.150679
 Electronic spatial extent (au):  <R**2>=            550.5769
 Charge=             -0.0000 electrons
 Dipole moment (field-independent basis, Debye):
    X=             -1.8194    Y=              0.8966    Z=              1.3830  Tot=              2.4550
 Quadrupole moment (field-independent basis, Debye-Ang):
   XX=            -35.6153   YY=            -31.3933   ZZ=            -31.8492
   XY=              2.0547   XZ=              1.4944   YZ=             -0.7949
 Traceless Quadrupole moment (field-independent basis, Debye-Ang):
   XX=             -2.6627   YY=              1.5593   ZZ=              1.1034
   XY=              2.0547   XZ=              1.4944   YZ=             -0.7949
 Octapole moment (field-independent basis, Debye-Ang**2):
  XXX=            -28.6812  YYY=             -4.3547  ZZZ=              1.1014  XYY=             -0.8221
  XXY=              4.2002  XXZ=              4.3264  XZZ=              2.9928  YZZ=             -1.9537
  YYZ=             -0.6399  XYZ=             -1.5556
 Hexadecapole moment (field-independent basis, Debye-Ang**3):
 XXXX=           -583.9350 YYYY=           -122.4961 ZZZZ=            -66.4831 XXXY=             26.4535
 XXXZ=             18.3687 YYYX=             -0.9774 YYYZ=              0.5019 ZZZX=              3.9936
 ZZZY=             -2.4257 XXYY=           -111.0442 XXZZ=            -96.4339 YYZZ=            -32.6129
 XXYZ=             -3.1776 YYXZ=              4.6768 ZZXY=             -1.1170
 N-N= 1.929083185559D+02 E-N=-9.684726033989D+02  KE= 2.483777190476D+02
 Unable to Open any file for archive entry.
 1\1\GINC-NOTCH225\SP\RM062X\def2TZVP\C3H9N1O1\U6032257\21-Feb-2022\0\\
 # M062X/def2tzvp int=(grid=ultrafine) nmr=giao guess=read geom=check\\
 N1.xyz\\0,1\N,0,-0.3676799404,-1.2216541481,-2.0985145713\C,0,0.696067
 1597,-0.3187505821,-1.6621463761\C,0,0.8793420455,-0.2196823439,-0.150
 4803215\O,0,-0.3427949799,0.2356629337,0.4027874628\C,0,-0.3190341322,
 0.3008627819,1.8111694587\H,0,-1.2176110349,-0.9631748059,-1.601009444
 7\H,0,-0.1495229725,-2.1698265157,-1.7962947233\H,0,1.6433057927,-0.63
 42557264,-2.1149584583\H,0,0.4746237813,0.682694318,-2.0491935565\H,0,
 1.142075574,-1.2082315654,0.2678534658\H,0,1.7015648819,0.4726468566,0
 .1010219493\H,0,0.4518672481,0.9981227747,2.1748946369\H,0,-0.12777534
 23,-0.6856721059,2.2624659581\H,0,-1.298728081,0.6559581285,2.13920452
 01\\Version=ES64L-G16RevC.01\State=1-A\HF=-249.6719141\RMSD=1.900e-09\
 Dipole=0.4301533,-0.1373391,0.8538047\Quadrupole=1.1091347,1.2233669,-
 2.3325016,0.006139,-1.5707392,-0.5782184\PG=C01 [X(C3H9N1O1)]\\@
 The archive entry for this job was punched.


 IT IS A PROFOUNDLY ERRONEOUS TRUISM ... THAT WE SHOULD CULTIVATE
 THE HABIT OF THINKING OF WHAT WE ARE DOING.
 THE PRECISE OPPOSITE IS THE CASE.
 CIVILIZATION ADVANCES BY EXTENDING THE NUMBER OF IMPORTANT OPERATIONS
 WHICH WE CAN PERFORM WITHOUT THINKING ABOUT THEM.

                                    -- ALFRED NORTH WHITEHEAD
 Job cpu time:       0 days  0 hours  5 minutes 23.1 seconds.
 Elapsed time:       0 days  0 hours  0 minutes  7.7 seconds.
 File lengths (MBytes):  RWF=     30 Int=      0 D2E=      0 Chk=      5 Scr=      1
 Normal termination of Gaussian 16 at Mon Feb 21 19:00:00 2022.
