 Entering Gaussian System, Link 0=/uufs/chpc.utah.edu/sys/installdir/gaussian16/C01/AVX2/g16/g16
 Input=N1_conf-2.com
 Output=N1_conf-2.log
 Initial command:
 /uufs/chpc.utah.edu/sys/installdir/gaussian16/C01/AVX2/g16/l1.exe "/scratch/local/u6032257/4038465/notchpeak.peaks/Gau-243892.inp" -scrdir="/scratch/local/u6032257/4038465/notchpeak.peaks/"
 Entering Link 1 = /uufs/chpc.utah.edu/sys/installdir/gaussian16/C01/AVX2/g16/l1.exe PID=    243895.
  
 Copyright (c) 1988-2019, Gaussian, Inc.  All Rights Reserved.
  
 This is part of the Gaussian(R) 16 program.  It is based on
 the Gaussian(R) 09 system (copyright 2009, Gaussian, Inc.),
 the Gaussian(R) 03 system (copyright 2003, Gaussian, Inc.),
 the Gaussian(R) 98 system (copyright 1998, Gaussian, Inc.),
 the Gaussian(R) 94 system (copyright 1995, Gaussian, Inc.),
 the Gaussian 92(TM) system (copyright 1992, Gaussian, Inc.),
 the Gaussian 90(TM) system (copyright 1990, Gaussian, Inc.),
 the Gaussian 88(TM) system (copyright 1988, Gaussian, Inc.),
 the Gaussian 86(TM) system (copyright 1986, Carnegie Mellon
 University), and the Gaussian 82(TM) system (copyright 1983,
 Carnegie Mellon University). Gaussian is a federally registered
 trademark of Gaussian, Inc.
  
 This software contains proprietary and confidential information,
 including trade secrets, belonging to Gaussian, Inc.
  
 This software is provided under written license and may be
 used, copied, transmitted, or stored only in accord with that
 written license.
  
 The following legend is applicable only to US Government
 contracts under FAR:
  
                    RESTRICTED RIGHTS LEGEND
  
 Use, reproduction and disclosure by the US Government is
 subject to restrictions as set forth in subparagraphs (a)
 and (c) of the Commercial Computer Software - Restricted
 Rights clause in FAR 52.227-19.
  
 Gaussian, Inc.
 340 Quinnipiac St., Bldg. 40, Wallingford CT 06492
  
  
 ---------------------------------------------------------------
 Warning -- This program may not be used in any manner that
 competes with the business of Gaussian, Inc. or will provide
 assistance to any competitor of Gaussian, Inc.  The licensee
 of this program is prohibited from giving any competitor of
 Gaussian, Inc. access to this program.  By using this program,
 the user acknowledges that Gaussian, Inc. is engaged in the
 business of creating and licensing software in the field of
 computational chemistry and represents and warrants to the
 licensee that it is not a competitor of Gaussian, Inc. and that
 it will not use this program in any manner prohibited above.
 ---------------------------------------------------------------
  

 Cite this work as:
 Gaussian 16, Revision C.01,
 M. J. Frisch, G. W. Trucks, H. B. Schlegel, G. E. Scuseria, 
 M. A. Robb, J. R. Cheeseman, G. Scalmani, V. Barone, 
 G. A. Petersson, H. Nakatsuji, X. Li, M. Caricato, A. V. Marenich, 
 J. Bloino, B. G. Janesko, R. Gomperts, B. Mennucci, H. P. Hratchian, 
 J. V. Ortiz, A. F. Izmaylov, J. L. Sonnenberg, D. Williams-Young, 
 F. Ding, F. Lipparini, F. Egidi, J. Goings, B. Peng, A. Petrone, 
 T. Henderson, D. Ranasinghe, V. G. Zakrzewski, J. Gao, N. Rega, 
 G. Zheng, W. Liang, M. Hada, M. Ehara, K. Toyota, R. Fukuda, 
 J. Hasegawa, M. Ishida, T. Nakajima, Y. Honda, O. Kitao, H. Nakai, 
 T. Vreven, K. Throssell, J. A. Montgomery, Jr., J. E. Peralta, 
 F. Ogliaro, M. J. Bearpark, J. J. Heyd, E. N. Brothers, K. N. Kudin, 
 V. N. Staroverov, T. A. Keith, R. Kobayashi, J. Normand, 
 K. Raghavachari, A. P. Rendell, J. C. Burant, S. S. Iyengar, 
 J. Tomasi, M. Cossi, J. M. Millam, M. Klene, C. Adamo, R. Cammi, 
 J. W. Ochterski, R. L. Martin, K. Morokuma, O. Farkas, 
 J. B. Foresman, and D. J. Fox, Gaussian, Inc., Wallingford CT, 2019.
 
 ******************************************
 Gaussian 16:  ES64L-G16RevC.01  3-Jul-2019
                21-Feb-2022 
 ******************************************
 %NProcShared=52
 Will use up to   52 processors via shared memory.
 %mem=16GB
 %chk=N1_conf-2.chk
 ----------------------------------------------------------------------
 # B3LYP/6-31G(d,p) empiricaldispersion=GD3BJ int=(grid=ultrafine) opt 
 freq=noraman
 ----------------------------------------------------------------------
 1/18=20,19=15,26=4,38=1/1,3;
 2/9=110,12=2,17=6,18=5,40=1/2;
 3/5=1,6=6,7=101,11=2,25=1,30=1,71=1,74=-5,75=-5,124=41/1,2,3;
 4//1;
 5/5=2,38=5/2;
 6/7=2,8=2,9=2,10=2,28=1/1;
 7//1,2,3,16;
 1/18=20,19=15,26=4/3(2);
 2/9=110/2;
 99//99;
 2/9=110/2;
 3/5=1,6=6,7=101,11=2,25=1,30=1,71=1,74=-5,75=-5,124=41/1,2,3;
 4/5=5,16=3,69=1/1;
 5/5=2,38=5/2;
 7//1,2,3,16;
 1/18=20,19=15,26=4/3(-5);
 2/9=110/2;
 6/7=2,8=2,9=2,10=2,19=2,28=1/1;
 99/9=1/99;
 ------
 N1.xyz
 ------
 Symbolic Z-matrix:
 Charge =  0 Multiplicity = 1
 N                    -0.4422   -1.0565   -1.9937 
 C                     0.5292   -0.0597   -1.5647 
 C                     1.0573   -0.3919   -0.151 
 O                     0.0139   -0.5045    0.818 
 C                    -0.6141    0.7202    1.1784 
 H                    -0.0038   -1.9658   -2.0452 
 H                    -1.1223   -1.1431   -1.2461 
 H                     0.0627    0.9267   -1.5759 
 H                     1.3562   -0.0202   -2.2765 
 H                     1.5769   -1.3507   -0.1783 
 H                     1.7987    0.343     0.1678 
 H                     0.1084    1.4442    1.5583 
 H                    -1.1503    1.166     0.3401 
 H                    -1.3413    0.5333    1.9687 
 

 GradGradGradGradGradGradGradGradGradGradGradGradGradGradGradGradGradGrad
 Berny optimization.
 Initialization pass.
                           ----------------------------
                           !    Initial Parameters    !
                           ! (Angstroms and Degrees)  !
 --------------------------                            --------------------------
 ! Name  Definition              Value          Derivative Info.                !
 --------------------------------------------------------------------------------
 ! R1    R(1,2)                  1.4565         estimate D2E/DX2                !
 ! R2    R(1,6)                  1.0108         estimate D2E/DX2                !
 ! R3    R(1,7)                  1.0144         estimate D2E/DX2                !
 ! R4    R(2,3)                  1.5452         estimate D2E/DX2                !
 ! R5    R(2,8)                  1.0912         estimate D2E/DX2                !
 ! R6    R(2,9)                  1.0919         estimate D2E/DX2                !
 ! R7    R(3,4)                  1.4284         estimate D2E/DX2                !
 ! R8    R(3,10)                 1.0909         estimate D2E/DX2                !
 ! R9    R(3,11)                 1.0915         estimate D2E/DX2                !
 ! R10   R(4,5)                  1.4227         estimate D2E/DX2                !
 ! R11   R(5,12)                 1.0911         estimate D2E/DX2                !
 ! R12   R(5,13)                 1.0904         estimate D2E/DX2                !
 ! R13   R(5,14)                 1.0901         estimate D2E/DX2                !
 ! A1    A(2,1,6)              109.9633         estimate D2E/DX2                !
 ! A2    A(2,1,7)              106.7692         estimate D2E/DX2                !
 ! A3    A(6,1,7)              104.5691         estimate D2E/DX2                !
 ! A4    A(1,2,3)              110.5044         estimate D2E/DX2                !
 ! A5    A(1,2,8)              109.2998         estimate D2E/DX2                !
 ! A6    A(1,2,9)              109.7496         estimate D2E/DX2                !
 ! A7    A(3,2,8)              110.4768         estimate D2E/DX2                !
 ! A8    A(3,2,9)              110.2026         estimate D2E/DX2                !
 ! A9    A(8,2,9)              106.5237         estimate D2E/DX2                !
 ! A10   A(2,3,4)              112.826          estimate D2E/DX2                !
 ! A11   A(2,3,10)             109.1983         estimate D2E/DX2                !
 ! A12   A(2,3,11)             110.769          estimate D2E/DX2                !
 ! A13   A(4,3,10)             107.1949         estimate D2E/DX2                !
 ! A14   A(4,3,11)             110.5549         estimate D2E/DX2                !
 ! A15   A(10,3,11)            105.9945         estimate D2E/DX2                !
 ! A16   A(3,4,5)              115.2406         estimate D2E/DX2                !
 ! A17   A(4,5,12)             111.537          estimate D2E/DX2                !
 ! A18   A(4,5,13)             111.9774         estimate D2E/DX2                !
 ! A19   A(4,5,14)             109.3003         estimate D2E/DX2                !
 ! A20   A(12,5,13)            108.7847         estimate D2E/DX2                !
 ! A21   A(12,5,14)            107.6424         estimate D2E/DX2                !
 ! A22   A(13,5,14)            107.4225         estimate D2E/DX2                !
 ! D1    D(6,1,2,3)            -61.9041         estimate D2E/DX2                !
 ! D2    D(6,1,2,8)            176.3137         estimate D2E/DX2                !
 ! D3    D(6,1,2,9)             59.8321         estimate D2E/DX2                !
 ! D4    D(7,1,2,3)             50.9865         estimate D2E/DX2                !
 ! D5    D(7,1,2,8)            -70.7956         estimate D2E/DX2                !
 ! D6    D(7,1,2,9)            172.7228         estimate D2E/DX2                !
 ! D7    D(1,2,3,4)            -56.442          estimate D2E/DX2                !
 ! D8    D(1,2,3,10)            62.6483         estimate D2E/DX2                !
 ! D9    D(1,2,3,11)           179.0144         estimate D2E/DX2                !
 ! D10   D(8,2,3,4)             64.6436         estimate D2E/DX2                !
 ! D11   D(8,2,3,10)          -176.2662         estimate D2E/DX2                !
 ! D12   D(8,2,3,11)           -59.9001         estimate D2E/DX2                !
 ! D13   D(9,2,3,4)           -177.9106         estimate D2E/DX2                !
 ! D14   D(9,2,3,10)           -58.8204         estimate D2E/DX2                !
 ! D15   D(9,2,3,11)            57.5457         estimate D2E/DX2                !
 ! D16   D(2,3,4,5)            -71.1336         estimate D2E/DX2                !
 ! D17   D(10,3,4,5)           168.62           estimate D2E/DX2                !
 ! D18   D(11,3,4,5)            53.5271         estimate D2E/DX2                !
 ! D19   D(3,4,5,12)           -57.1541         estimate D2E/DX2                !
 ! D20   D(3,4,5,13)            65.026          estimate D2E/DX2                !
 ! D21   D(3,4,5,14)          -176.0641         estimate D2E/DX2                !
 --------------------------------------------------------------------------------
 Trust Radius=3.00D-01 FncErr=1.00D-07 GrdErr=1.00D-06 EigMax=2.50D+02 EigMin=1.00D-04
 Number of steps in this run=     66 maximum allowed number of steps=    100.
 GradGradGradGradGradGradGradGradGradGradGradGradGradGradGradGradGradGrad

                          Input orientation:                          
 ---------------------------------------------------------------------
 Center     Atomic      Atomic             Coordinates (Angstroms)
 Number     Number       Type             X           Y           Z
 ---------------------------------------------------------------------
      1          7           0       -0.442200   -1.056500   -1.993700
      2          6           0        0.529200   -0.059700   -1.564700
      3          6           0        1.057300   -0.391900   -0.151000
      4          8           0        0.013900   -0.504500    0.818000
      5          6           0       -0.614100    0.720200    1.178400
      6          1           0       -0.003800   -1.965800   -2.045200
      7          1           0       -1.122300   -1.143100   -1.246100
      8          1           0        0.062700    0.926700   -1.575900
      9          1           0        1.356200   -0.020200   -2.276500
     10          1           0        1.576900   -1.350700   -0.178300
     11          1           0        1.798700    0.343000    0.167800
     12          1           0        0.108400    1.444200    1.558300
     13          1           0       -1.150300    1.166000    0.340100
     14          1           0       -1.341300    0.533300    1.968700
 ---------------------------------------------------------------------
                    Distance matrix (angstroms):
                    1          2          3          4          5
     1  N    0.000000
     2  C    1.456458   0.000000
     3  C    2.466929   1.545249   0.000000
     4  O    2.901446   2.478032   1.428399   0.000000
     5  C    3.639839   3.072454   2.407831   1.422731   0.000000
     6  H    1.010779   2.036710   2.681620   3.214596   4.240125
     7  H    1.014367   2.000678   2.552293   2.441161   3.099735
     8  H    2.088675   1.091207   2.181347   2.789529   2.843742
     9  H    2.094788   1.091856   2.178360   3.407675   4.045566
    10  H    2.731116   2.164824   1.090884   2.037557   3.306016
    11  H    3.413549   2.185258   1.091506   2.080031   2.642952
    12  H    4.378740   3.491693   2.682048   2.086721   1.091103
    13  H    3.299626   2.819809   2.746221   2.091488   1.090410
    14  H    4.363079   4.041699   3.332027   2.058569   1.090103
                    6          7          8          9         10
     6  H    0.000000
     7  H    1.602011   0.000000
     8  H    2.931078   2.407710   0.000000
     9  H    2.385049   2.909569   1.749458   0.000000
    10  H    2.522355   2.910150   3.071260   2.494270   0.000000
    11  H    3.671094   3.569292   2.528812   2.510443   1.742871
    12  H    4.962449   4.009165   3.176965   4.290357   3.603295
    13  H    4.100279   2.801563   2.280283   3.812638   3.747017
    14  H    4.913838   3.632247   3.832776   5.060098   4.083498
                   11         12         13         14
    11  H    0.000000
    12  H    2.450152   0.000000
    13  H    3.066532   1.773621   0.000000
    14  H    3.624783   1.760624   1.757592   0.000000
 Stoichiometry    C3H9NO
 Framework group  C1[X(C3H9NO)]
 Deg. of freedom    36
 Full point group                 C1      NOp   1
 Largest Abelian subgroup         C1      NOp   1
 Largest concise Abelian subgroup C1      NOp   1
                         Standard orientation:                         
 ---------------------------------------------------------------------
 Center     Atomic      Atomic             Coordinates (Angstroms)
 Number     Number       Type             X           Y           Z
 ---------------------------------------------------------------------
      1          7           0       -1.756252   -0.778486   -0.197476
      2          6           0       -1.133322    0.249595    0.624885
      3          6           0       -0.020341    0.974029   -0.165218
      4          8           0        0.975292    0.080445   -0.665765
      5          6           0        1.834732   -0.482912    0.318183
      6          1           0       -2.191158   -0.356682   -1.006556
      7          1           0       -1.005005   -1.344302   -0.577505
      8          1           0       -0.724664   -0.208652    1.526960
      9          1           0       -1.888500    0.965694    0.955122
     10          1           0       -0.461807    1.479420   -1.025285
     11          1           0        0.437808    1.757317    0.441366
     12          1           0        2.347909    0.290415    0.891875
     13          1           0        1.294782   -1.131947    1.008258
     14          1           0        2.595645   -1.089697   -0.172885
 ---------------------------------------------------------------------
 Rotational constants (GHZ):           9.0733273           3.1532302           2.9197428
 Standard basis: 6-31G(d,p) (6D, 7F)
 There are   120 symmetry adapted cartesian basis functions of A   symmetry.
 There are   120 symmetry adapted basis functions of A   symmetry.
   120 basis functions,   203 primitive gaussians,   120 cartesian basis functions
    21 alpha electrons       21 beta electrons
       nuclear repulsion energy       195.5889911434 Hartrees.
 NAtoms=   14 NActive=   14 NUniq=   14 SFac= 1.00D+00 NAtFMM=   60 NAOKFM=F Big=F
 Integral buffers will be    131072 words long.
 Raffenetti 2 integral format.
 Two-electron integral symmetry is turned on.
 Nuclear repulsion after empirical dispersion term =      195.5734420161 Hartrees.
 One-electron integrals computed using PRISM.
 NBasis=   120 RedAO= T EigKep=  5.23D-03  NBF=   120
 NBsUse=   120 1.00D-06 EigRej= -1.00D+00 NBFU=   120
 ExpMin= 1.61D-01 ExpMax= 5.48D+03 ExpMxC= 8.25D+02 IAcc=3 IRadAn=         5 AccDes= 0.00D+00
 Harris functional with IExCor=  402 and IRadAn=       5 diagonalized for initial guess.
 HarFok:  IExCor=  402 AccDes= 0.00D+00 IRadAn=         5 IDoV= 1 UseB2=F ITyADJ=14
 ICtDFT=  3500011 ScaDFX=  1.000000  1.000000  1.000000  1.000000
 FoFCou: FMM=F IPFlag=           0 FMFlag=      100000 FMFlg1=           0
         NFxFlg=           0 DoJE=T BraDBF=F KetDBF=T FulRan=T
         wScrn=  0.000000 ICntrl=       500 IOpCl=  0 I1Cent=   200000004 NGrid=           0
         NMat0=    1 NMatS0=      1 NMatT0=    0 NMatD0=    1 NMtDS0=    0 NMtDT0=    0
 Petite list used in FoFCou.
 Requested convergence on RMS density matrix=1.00D-08 within 128 cycles.
 Requested convergence on MAX density matrix=1.00D-06.
 Requested convergence on             energy=1.00D-06.
 No special actions if energy rises.
 Integral accuracy reduced to 1.0D-05 until final iterations.
 Initial convergence to 1.0D-05 achieved.  Increase integral accuracy.
 SCF Done:  E(RB3LYP) =  -249.712687917     A.U. after   13 cycles
            NFock= 13  Conv=0.23D-08     -V/T= 2.0092

 **********************************************************************

            Population analysis using the SCF Density.

 **********************************************************************

 Orbital symmetries:
       Occupied  (A) (A) (A) (A) (A) (A) (A) (A) (A) (A) (A) (A)
                 (A) (A) (A) (A) (A) (A) (A) (A) (A)
       Virtual   (A) (A) (A) (A) (A) (A) (A) (A) (A) (A) (A) (A)
                 (A) (A) (A) (A) (A) (A) (A) (A) (A) (A) (A) (A)
                 (A) (A) (A) (A) (A) (A) (A) (A) (A) (A) (A) (A)
                 (A) (A) (A) (A) (A) (A) (A) (A) (A) (A) (A) (A)
                 (A) (A) (A) (A) (A) (A) (A) (A) (A) (A) (A) (A)
                 (A) (A) (A) (A) (A) (A) (A) (A) (A) (A) (A) (A)
                 (A) (A) (A) (A) (A) (A) (A) (A) (A) (A) (A) (A)
                 (A) (A) (A) (A) (A) (A) (A) (A) (A) (A) (A) (A)
                 (A) (A) (A)
 The electronic state is 1-A.
 Alpha  occ. eigenvalues --  -19.15046 -14.30264 -10.22834 -10.22745 -10.20463
 Alpha  occ. eigenvalues --   -1.02634  -0.87694  -0.73297  -0.67635  -0.59772
 Alpha  occ. eigenvalues --   -0.50311  -0.47763  -0.46562  -0.45117  -0.41422
 Alpha  occ. eigenvalues --   -0.40359  -0.38375  -0.35335  -0.30972  -0.26457
 Alpha  occ. eigenvalues --   -0.22526
 Alpha virt. eigenvalues --    0.07920   0.11558   0.12054   0.12998   0.14685
 Alpha virt. eigenvalues --    0.15780   0.16986   0.18259   0.20580   0.21139
 Alpha virt. eigenvalues --    0.22506   0.24695   0.27718   0.50913   0.51913
 Alpha virt. eigenvalues --    0.53688   0.55870   0.57117   0.59353   0.64192
 Alpha virt. eigenvalues --    0.65850   0.72852   0.75852   0.76968   0.80051
 Alpha virt. eigenvalues --    0.82977   0.83203   0.85230   0.87253   0.89628
 Alpha virt. eigenvalues --    0.92622   0.93342   0.93591   0.96643   0.97357
 Alpha virt. eigenvalues --    0.99867   1.12079   1.16009   1.24843   1.31064
 Alpha virt. eigenvalues --    1.34087   1.35203   1.43060   1.48899   1.58041
 Alpha virt. eigenvalues --    1.62887   1.65261   1.68303   1.74579   1.83400
 Alpha virt. eigenvalues --    1.88222   1.93462   1.94020   1.96099   1.98936
 Alpha virt. eigenvalues --    2.00954   2.03610   2.05375   2.09643   2.11201
 Alpha virt. eigenvalues --    2.11670   2.16924   2.19004   2.25225   2.26775
 Alpha virt. eigenvalues --    2.29690   2.35324   2.41641   2.43973   2.47844
 Alpha virt. eigenvalues --    2.48158   2.56026   2.59751   2.66185   2.67092
 Alpha virt. eigenvalues --    2.69852   2.71645   2.78815   2.81697   2.86204
 Alpha virt. eigenvalues --    2.88687   2.94067   2.95736   2.98887   3.03805
 Alpha virt. eigenvalues --    3.18164   3.26698   3.31475   3.33657   3.38891
 Alpha virt. eigenvalues --    3.43557   3.44417   3.51235   3.59546   3.93259
 Alpha virt. eigenvalues --    3.99016   4.41514   4.46006   4.62049
          Condensed to atoms (all electrons):
               1          2          3          4          5          6
     1  N    6.709115   0.334677  -0.066602  -0.008613  -0.000200   0.344641
     2  C    0.334677   4.890484   0.349039  -0.049406  -0.005088  -0.047979
     3  C   -0.066602   0.349039   4.816527   0.266246  -0.041462  -0.001515
     4  O   -0.008613  -0.049406   0.266246   8.180476   0.258845  -0.000248
     5  C   -0.000200  -0.005088  -0.041462   0.258845   4.716989   0.000050
     6  H    0.344641  -0.047979  -0.001515  -0.000248   0.000050   0.503715
     7  H    0.346506  -0.055199  -0.008549   0.019060   0.000283  -0.036022
     8  H   -0.041793   0.387220  -0.045661  -0.003631   0.001929   0.007034
     9  H   -0.034578   0.367783  -0.034747   0.002970   0.000142  -0.006543
    10  H   -0.004009  -0.044350   0.386178  -0.036459   0.005751   0.005272
    11  H    0.006621  -0.046927   0.334154  -0.037639  -0.008878   0.000073
    12  H    0.000055  -0.001627  -0.009001  -0.036637   0.371999   0.000001
    13  H    0.001046   0.004584  -0.004170  -0.040931   0.373080  -0.000034
    14  H   -0.000003  -0.000009   0.004819  -0.030545   0.395196   0.000003
               7          8          9         10         11         12
     1  N    0.346506  -0.041793  -0.034578  -0.004009   0.006621   0.000055
     2  C   -0.055199   0.387220   0.367783  -0.044350  -0.046927  -0.001627
     3  C   -0.008549  -0.045661  -0.034747   0.386178   0.334154  -0.009001
     4  O    0.019060  -0.003631   0.002970  -0.036459  -0.037639  -0.036637
     5  C    0.000283   0.001929   0.000142   0.005751  -0.008878   0.371999
     6  H   -0.036022   0.007034  -0.006543   0.005272   0.000073   0.000001
     7  H    0.487921  -0.004772   0.007420  -0.000321   0.000947   0.000264
     8  H   -0.004772   0.620906  -0.034467   0.005396  -0.001663   0.000116
     9  H    0.007420  -0.034467   0.628976  -0.001671   0.003169   0.000049
    10  H   -0.000321   0.005396  -0.001671   0.626991  -0.040030  -0.000033
    11  H    0.000947  -0.001663   0.003169  -0.040030   0.704279   0.013499
    12  H    0.000264   0.000116   0.000049  -0.000033   0.013499   0.653729
    13  H   -0.001537   0.001873  -0.000389  -0.000273  -0.001705  -0.051876
    14  H   -0.000064  -0.000079   0.000003  -0.000201  -0.000075  -0.035497
              13         14
     1  N    0.001046  -0.000003
     2  C    0.004584  -0.000009
     3  C   -0.004170   0.004819
     4  O   -0.040931  -0.030545
     5  C    0.373080   0.395196
     6  H   -0.000034   0.000003
     7  H   -0.001537  -0.000064
     8  H    0.001873  -0.000079
     9  H   -0.000389   0.000003
    10  H   -0.000273  -0.000201
    11  H   -0.001705  -0.000075
    12  H   -0.051876  -0.035497
    13  H    0.661608  -0.039104
    14  H   -0.039104   0.587918
 Mulliken charges:
               1
     1  N   -0.586864
     2  C   -0.083201
     3  C    0.054743
     4  O   -0.483489
     5  C   -0.068637
     6  H    0.231552
     7  H    0.244063
     8  H    0.107593
     9  H    0.101882
    10  H    0.097758
    11  H    0.074176
    12  H    0.094961
    13  H    0.097826
    14  H    0.117638
 Sum of Mulliken charges =  -0.00000
 Mulliken charges with hydrogens summed into heavy atoms:
               1
     1  N   -0.111250
     2  C    0.126274
     3  C    0.226677
     4  O   -0.483489
     5  C    0.241788
 Electronic spatial extent (au):  <R**2>=            495.4427
 Charge=             -0.0000 electrons
 Dipole moment (field-independent basis, Debye):
    X=              0.8870    Y=              0.9069    Z=              0.4367  Tot=              1.3417
 Quadrupole moment (field-independent basis, Debye-Ang):
   XX=            -33.5778   YY=            -31.8919   ZZ=            -31.9660
   XY=             -4.4628   XZ=              3.8249   YZ=              0.7193
 Traceless Quadrupole moment (field-independent basis, Debye-Ang):
   XX=             -1.0992   YY=              0.5867   ZZ=              0.5125
   XY=             -4.4628   XZ=              3.8249   YZ=              0.7193
 Octapole moment (field-independent basis, Debye-Ang**2):
  XXX=             14.0419  YYY=              0.0424  ZZZ=             -3.5573  XYY=              4.4904
  XXY=              5.4642  XXZ=             -4.1711  XZZ=             -3.7627  YZZ=             -0.9385
  YYZ=             -2.6978  XYZ=             -1.0416
 Hexadecapole moment (field-independent basis, Debye-Ang**3):
 XXXX=           -412.2775 YYYY=           -136.2364 ZZZZ=            -94.7832 XXXY=            -25.6417
 XXXZ=             11.6295 YYYX=             -4.6639 YYYZ=              2.1563 ZZZX=              3.8771
 ZZZY=             -0.0878 XXYY=            -97.3386 XXZZ=            -79.6892 YYZZ=            -36.8296
 XXYZ=              5.3216 YYXZ=              1.5660 ZZXY=              0.6079
 N-N= 1.955734420161D+02 E-N=-9.730123838586D+02  KE= 2.474481216280D+02
 Calling FoFJK, ICntrl=      2127 FMM=F ISym2X=0 I1Cent= 0 IOpClX= 0 NMat=1 NMatS=1 NMatT=0.
 ***** Axes restored to original set *****
 -------------------------------------------------------------------
 Center     Atomic                   Forces (Hartrees/Bohr)
 Number     Number              X              Y              Z
 -------------------------------------------------------------------
      1        7          -0.008867723    0.006347622   -0.008068365
      2        6           0.001551559   -0.011213441    0.011984207
      3        6          -0.001748482    0.012080164   -0.003317467
      4        8          -0.001495356   -0.003122454    0.000382138
      5        6           0.004218095   -0.003958849   -0.003932379
      6        1           0.004804074   -0.004914969   -0.001206735
      7        1          -0.003576092   -0.000798886    0.001852526
      8        1          -0.001879830    0.002285750   -0.000218750
      9        1           0.002967280   -0.000325634   -0.000451091
     10        1          -0.002896393   -0.004880979    0.001742654
     11        1           0.003599175    0.007066747    0.003650060
     12        1           0.004754491    0.004084683    0.000593870
     13        1          -0.001845688    0.003383776   -0.004022178
     14        1           0.000414890   -0.006033529    0.001011511
 -------------------------------------------------------------------
 Cartesian Forces:  Max     0.012080164 RMS     0.004830615

 GradGradGradGradGradGradGradGradGradGradGradGradGradGradGradGradGradGrad
 Berny optimization.
 FormGI is forming the generalized inverse of G from B-inverse, IUseBI=4.
 Internal  Forces:  Max     0.015668731 RMS     0.004246453
 Search for a local minimum.
 Step number   1 out of a maximum of   66
 All quantities printed in internal units (Hartrees-Bohrs-Radians)
 Mixed Optimization -- RFO/linear search
 Second derivative matrix not updated -- first step.
 ITU=  0
     Eigenvalues ---    0.00230   0.00945   0.01316   0.01391   0.04308
     Eigenvalues ---    0.04593   0.04908   0.05386   0.05724   0.09202
     Eigenvalues ---    0.09928   0.10283   0.11710   0.12666   0.14016
     Eigenvalues ---    0.16000   0.16000   0.16000   0.16000   0.16000
     Eigenvalues ---    0.21885   0.21986   0.25000   0.28059   0.34599
     Eigenvalues ---    0.34639   0.34674   0.34685   0.34711   0.34765
     Eigenvalues ---    0.34801   0.37411   0.41220   0.42052   0.45249
     Eigenvalues ---    0.45842
 RFO step:  Lambda=-4.70575889D-03 EMin= 2.30000000D-03
 Linear search not attempted -- first point.
 Iteration  1 RMS(Cart)=  0.04896064 RMS(Int)=  0.00088570
 Iteration  2 RMS(Cart)=  0.00157652 RMS(Int)=  0.00018844
 Iteration  3 RMS(Cart)=  0.00000130 RMS(Int)=  0.00018844
 Iteration  4 RMS(Cart)=  0.00000000 RMS(Int)=  0.00018844
 Variable       Old X    -DE/DX   Delta X   Delta X   Delta X     New X
                                 (Linear)    (Quad)   (Total)
    R1        2.75231   0.00685   0.00000   0.01807   0.01807   2.77038
    R2        1.91009   0.00657   0.00000   0.01418   0.01418   1.92427
    R3        1.91688   0.00383   0.00000   0.00838   0.00838   1.92525
    R4        2.92010  -0.00371   0.00000  -0.01300  -0.01300   2.90710
    R5        2.06208   0.00287   0.00000   0.00817   0.00817   2.07025
    R6        2.06331   0.00253   0.00000   0.00722   0.00722   2.07052
    R7        2.69928  -0.00802   0.00000  -0.01924  -0.01924   2.68005
    R8        2.06147   0.00287   0.00000   0.00815   0.00815   2.06962
    R9        2.06265   0.00827   0.00000   0.02355   0.02355   2.08620
   R10        2.68857  -0.00710   0.00000  -0.01671  -0.01671   2.67186
   R11        2.06189   0.00606   0.00000   0.01725   0.01725   2.07914
   R12        2.06058   0.00539   0.00000   0.01528   0.01528   2.07586
   R13        2.06000   0.00149   0.00000   0.00423   0.00423   2.06422
    A1        1.91922  -0.00320   0.00000  -0.01673  -0.01668   1.90254
    A2        1.86347   0.00290   0.00000   0.02055   0.02059   1.88406
    A3        1.82508   0.00075   0.00000   0.01114   0.01124   1.83631
    A4        1.92867   0.01567   0.00000   0.07534   0.07534   2.00400
    A5        1.90764  -0.00566   0.00000  -0.02396  -0.02399   1.88365
    A6        1.91549  -0.00380   0.00000  -0.00680  -0.00674   1.90875
    A7        1.92818  -0.00382   0.00000  -0.01585  -0.01593   1.91226
    A8        1.92340  -0.00556   0.00000  -0.02633  -0.02681   1.89659
    A9        1.85919   0.00255   0.00000  -0.00590  -0.00649   1.85270
   A10        1.96919  -0.00011   0.00000  -0.00742  -0.00762   1.96156
   A11        1.90587   0.00048   0.00000  -0.00174  -0.00232   1.90355
   A12        1.93328   0.00132   0.00000   0.02113   0.02101   1.95429
   A13        1.87090  -0.00300   0.00000  -0.04317  -0.04346   1.82744
   A14        1.92955  -0.00048   0.00000  -0.00005   0.00000   1.92955
   A15        1.84995   0.00178   0.00000   0.03149   0.03125   1.88121
   A16        2.01133  -0.00934   0.00000  -0.03667  -0.03667   1.97466
   A17        1.94669   0.00002   0.00000   0.00034   0.00022   1.94690
   A18        1.95437   0.00274   0.00000   0.01779   0.01779   1.97216
   A19        1.90765  -0.00870   0.00000  -0.05420  -0.05425   1.85340
   A20        1.89865  -0.00064   0.00000  -0.00148  -0.00154   1.89711
   A21        1.87871   0.00368   0.00000   0.02010   0.01991   1.89862
   A22        1.87488   0.00310   0.00000   0.01848   0.01857   1.89345
    D1       -1.08043  -0.00039   0.00000  -0.02521  -0.02544  -1.10587
    D2        3.07726  -0.00199   0.00000  -0.03821  -0.03806   3.03920
    D3        1.04427   0.00036   0.00000  -0.01344  -0.01327   1.03100
    D4        0.88988   0.00045   0.00000  -0.00952  -0.00981   0.88007
    D5       -1.23562  -0.00115   0.00000  -0.02253  -0.02243  -1.25805
    D6        3.01458   0.00121   0.00000   0.00225   0.00236   3.01694
    D7       -0.98510   0.00177   0.00000   0.04450   0.04433  -0.94077
    D8        1.09342  -0.00174   0.00000  -0.01559  -0.01576   1.07766
    D9        3.12439   0.00147   0.00000   0.03382   0.03379  -3.12501
   D10        1.12824   0.00249   0.00000   0.05376   0.05361   1.18185
   D11       -3.07643  -0.00101   0.00000  -0.00633  -0.00648  -3.08290
   D12       -1.04545   0.00219   0.00000   0.04309   0.04306  -1.00239
   D13       -3.10513  -0.00011   0.00000   0.02076   0.02095  -3.08418
   D14       -1.02661  -0.00362   0.00000  -0.03933  -0.03914  -1.06575
   D15        1.00436  -0.00041   0.00000   0.01008   0.01040   1.01476
   D16       -1.24152  -0.00184   0.00000  -0.07119  -0.07089  -1.31240
   D17        2.94297  -0.00038   0.00000  -0.03573  -0.03607   2.90690
   D18        0.93422  -0.00056   0.00000  -0.04894  -0.04890   0.88532
   D19       -0.99753  -0.00052   0.00000   0.00455   0.00466  -0.99287
   D20        1.13492   0.00064   0.00000   0.01570   0.01582   1.15074
   D21       -3.07290   0.00052   0.00000   0.01433   0.01410  -3.05880
         Item               Value     Threshold  Converged?
 Maximum Force            0.015669     0.000450     NO 
 RMS     Force            0.004246     0.000300     NO 
 Maximum Displacement     0.136636     0.001800     NO 
 RMS     Displacement     0.049260     0.001200     NO 
 Predicted change in Energy=-2.446945D-03
 GradGradGradGradGradGradGradGradGradGradGradGradGradGradGradGradGradGrad

                          Input orientation:                          
 ---------------------------------------------------------------------
 Center     Atomic      Atomic             Coordinates (Angstroms)
 Number     Number       Type             X           Y           Z
 ---------------------------------------------------------------------
      1          7           0       -0.459037   -1.067111   -2.033747
      2          6           0        0.518063   -0.088137   -1.547840
      3          6           0        1.053071   -0.358284   -0.131024
      4          8           0        0.011969   -0.502291    0.821192
      5          6           0       -0.588180    0.727042    1.178470
      6          1           0       -0.009428   -1.978129   -2.102995
      7          1           0       -1.176154   -1.176582   -1.318405
      8          1           0        0.048801    0.901268   -1.580315
      9          1           0        1.365788   -0.046311   -2.240745
     10          1           0        1.572776   -1.322282   -0.122646
     11          1           0        1.771172    0.414777    0.193715
     12          1           0        0.153231    1.440603    1.567893
     13          1           0       -1.127850    1.199043    0.346202
     14          1           0       -1.304920    0.497393    1.970146
 ---------------------------------------------------------------------
                    Distance matrix (angstroms):
                    1          2          3          4          5
     1  N    0.000000
     2  C    1.466022   0.000000
     3  C    2.531652   1.538370   0.000000
     4  O    2.948143   2.457635   1.418220   0.000000
     5  C    3.681575   3.053041   2.363559   1.413890   0.000000
     6  H    1.018282   2.039244   2.764322   3.275581   4.291959
     7  H    1.018800   2.026752   2.654982   2.538539   3.194351
     8  H    2.082790   1.095529   2.166904   2.781829   2.836722
     9  H    2.101158   1.095674   2.155468   3.378787   4.013364
    10  H    2.801015   2.160257   1.095196   1.999833   3.249978
    11  H    3.483017   2.203683   1.103968   2.080753   2.575615
    12  H    4.431175   3.489691   2.632874   2.086230   1.100232
    13  H    3.353643   2.820153   2.722027   2.102223   1.098499
    14  H    4.381135   4.005289   3.272189   2.013370   1.092340
                    6          7          8          9         10
     6  H    0.000000
     7  H    1.618428   0.000000
     8  H    2.927031   2.426225   0.000000
     9  H    2.375314   2.930817   1.751721   0.000000
    10  H    2.618260   3.001280   3.064551   2.481388   0.000000
    11  H    3.764493   3.675004   2.520004   2.510683   1.776743
    12  H    5.018925   4.116750   3.195779   4.264613   3.536461
    13  H    4.164596   2.901180   2.276982   3.802819   3.724282
    14  H    4.939330   3.692335   3.821184   5.015964   3.996514
                   11         12         13         14
    11  H    0.000000
    12  H    2.357630   0.000000
    13  H    3.007101   1.786631   0.000000
    14  H    3.553150   1.782599   1.777881   0.000000
 Stoichiometry    C3H9NO
 Framework group  C1[X(C3H9NO)]
 Deg. of freedom    36
 Full point group                 C1      NOp   1
 Largest Abelian subgroup         C1      NOp   1
 Largest concise Abelian subgroup C1      NOp   1
                         Standard orientation:                         
 ---------------------------------------------------------------------
 Center     Atomic      Atomic             Coordinates (Angstroms)
 Number     Number       Type             X           Y           Z
 ---------------------------------------------------------------------
      1          7           0       -1.816817   -0.755187   -0.158792
      2          6           0       -1.115247    0.292435    0.589210
      3          6           0        0.037157    0.968715   -0.173149
      4          8           0        0.977400    0.031949   -0.672909
      5          6           0        1.822921   -0.495624    0.330009
      6          1           0       -2.263239   -0.338516   -0.973649
      7          1           0       -1.117994   -1.394346   -0.534394
      8          1           0       -0.731996   -0.152667    1.513973
      9          1           0       -1.832279    1.062114    0.895742
     10          1           0       -0.364533    1.462018   -1.064637
     11          1           0        0.542471    1.736530    0.438294
     12          1           0        2.363696    0.300777    0.862756
     13          1           0        1.285175   -1.109068    1.065681
     14          1           0        2.548237   -1.129271   -0.185369
 ---------------------------------------------------------------------
 Rotational constants (GHZ):           9.1708853           3.1196338           2.8825459
 Standard basis: 6-31G(d,p) (6D, 7F)
 There are   120 symmetry adapted cartesian basis functions of A   symmetry.
 There are   120 symmetry adapted basis functions of A   symmetry.
   120 basis functions,   203 primitive gaussians,   120 cartesian basis functions
    21 alpha electrons       21 beta electrons
       nuclear repulsion energy       195.2987013720 Hartrees.
 NAtoms=   14 NActive=   14 NUniq=   14 SFac= 1.00D+00 NAtFMM=   60 NAOKFM=F Big=F
 Integral buffers will be    131072 words long.
 Raffenetti 2 integral format.
 Two-electron integral symmetry is turned on.
 Nuclear repulsion after empirical dispersion term =      195.2832244936 Hartrees.
 One-electron integrals computed using PRISM.
 NBasis=   120 RedAO= T EigKep=  5.05D-03  NBF=   120
 NBsUse=   120 1.00D-06 EigRej= -1.00D+00 NBFU=   120
 Initial guess from the checkpoint file:  "N1_conf-2.chk"
 B after Tr=     0.000000   -0.000000    0.000000
         Rot=    0.999782    0.016245   -0.001873    0.012994 Ang=   2.39 deg.
 ExpMin= 1.61D-01 ExpMax= 5.48D+03 ExpMxC= 8.25D+02 IAcc=3 IRadAn=         5 AccDes= 0.00D+00
 Harris functional with IExCor=  402 and IRadAn=       5 diagonalized for initial guess.
 HarFok:  IExCor=  402 AccDes= 0.00D+00 IRadAn=         5 IDoV= 1 UseB2=F ITyADJ=14
 ICtDFT=  3500011 ScaDFX=  1.000000  1.000000  1.000000  1.000000
 FoFCou: FMM=F IPFlag=           0 FMFlag=      100000 FMFlg1=           0
         NFxFlg=           0 DoJE=T BraDBF=F KetDBF=T FulRan=T
         wScrn=  0.000000 ICntrl=       500 IOpCl=  0 I1Cent=   200000004 NGrid=           0
         NMat0=    1 NMatS0=      1 NMatT0=    0 NMatD0=    1 NMtDS0=    0 NMtDT0=    0
 Petite list used in FoFCou.
 Requested convergence on RMS density matrix=1.00D-08 within 128 cycles.
 Requested convergence on MAX density matrix=1.00D-06.
 Requested convergence on             energy=1.00D-06.
 No special actions if energy rises.
 Integral accuracy reduced to 1.0D-05 until final iterations.
 Initial convergence to 1.0D-05 achieved.  Increase integral accuracy.
 SCF Done:  E(RB3LYP) =  -249.714596915     A.U. after   11 cycles
            NFock= 11  Conv=0.36D-08     -V/T= 2.0093
 Calling FoFJK, ICntrl=      2127 FMM=F ISym2X=0 I1Cent= 0 IOpClX= 0 NMat=1 NMatS=1 NMatT=0.
 ***** Axes restored to original set *****
 -------------------------------------------------------------------
 Center     Atomic                   Forces (Hartrees/Bohr)
 Number     Number              X              Y              Z
 -------------------------------------------------------------------
      1        7           0.002069755    0.001717461    0.000871988
      2        6           0.000056738    0.000440919    0.002058378
      3        6          -0.000126561   -0.004528623   -0.002900479
      4        8          -0.001009248    0.002037494    0.000150128
      5        6          -0.002184685   -0.001924477    0.003266000
      6        1           0.000143822   -0.000588656   -0.000056717
      7        1           0.000438647    0.000027572    0.000375836
      8        1          -0.000134715    0.000748835   -0.000550439
      9        1           0.000062475   -0.000371354   -0.000678028
     10        1           0.001663154   -0.000377772   -0.000359371
     11        1          -0.000996908    0.000622262   -0.001740584
     12        1           0.000260856    0.000454659   -0.000489554
     13        1           0.000351727    0.000386725   -0.000195615
     14        1          -0.000595058    0.001354953    0.000248456
 -------------------------------------------------------------------
 Cartesian Forces:  Max     0.004528623 RMS     0.001366399

 GradGradGradGradGradGradGradGradGradGradGradGradGradGradGradGradGradGrad
 Berny optimization.
 Using GEDIIS/GDIIS optimizer.
 FormGI is forming the generalized inverse of G from B-inverse, IUseBI=4.
 Internal  Forces:  Max     0.004227739 RMS     0.001258384
 Search for a local minimum.
 Step number   2 out of a maximum of   66
 All quantities printed in internal units (Hartrees-Bohrs-Radians)
 Mixed Optimization -- RFO/linear search
 Update second derivatives using D2CorX and points    1    2
 DE= -1.91D-03 DEPred=-2.45D-03 R= 7.80D-01
 TightC=F SS=  1.41D+00  RLast= 2.05D-01 DXNew= 5.0454D-01 6.1358D-01
 Trust test= 7.80D-01 RLast= 2.05D-01 DXMaxT set to 5.05D-01
 ITU=  1  0
 Use linear search instead of GDIIS.
     Eigenvalues ---    0.00231   0.00943   0.01294   0.01391   0.03894
     Eigenvalues ---    0.04685   0.04870   0.05372   0.05968   0.09814
     Eigenvalues ---    0.09920   0.10566   0.11792   0.13118   0.13931
     Eigenvalues ---    0.15961   0.16000   0.16000   0.16000   0.16605
     Eigenvalues ---    0.21425   0.22491   0.26527   0.28113   0.33932
     Eigenvalues ---    0.34609   0.34675   0.34687   0.34744   0.34794
     Eigenvalues ---    0.34843   0.38033   0.41767   0.43936   0.45232
     Eigenvalues ---    0.45621
 RFO step:  Lambda=-2.68575291D-04 EMin= 2.31131543D-03
 Quartic linear search produced a step of -0.15675.
 Iteration  1 RMS(Cart)=  0.02402673 RMS(Int)=  0.00017228
 Iteration  2 RMS(Cart)=  0.00025599 RMS(Int)=  0.00002496
 Iteration  3 RMS(Cart)=  0.00000003 RMS(Int)=  0.00002496
 Variable       Old X    -DE/DX   Delta X   Delta X   Delta X     New X
                                 (Linear)    (Quad)   (Total)
    R1        2.77038  -0.00293  -0.00283  -0.00281  -0.00564   2.76474
    R2        1.92427   0.00059  -0.00222   0.00407   0.00185   1.92612
    R3        1.92525  -0.00005  -0.00131   0.00167   0.00036   1.92561
    R4        2.90710  -0.00243   0.00204  -0.01004  -0.00800   2.89910
    R5        2.07025   0.00075  -0.00128   0.00354   0.00226   2.07251
    R6        2.07052   0.00046  -0.00113   0.00264   0.00151   2.07204
    R7        2.68005   0.00410   0.00302   0.00434   0.00735   2.68740
    R8        2.06962   0.00112  -0.00128   0.00443   0.00315   2.07277
    R9        2.08620  -0.00072  -0.00369   0.00319  -0.00050   2.08569
   R10        2.67186   0.00187   0.00262   0.00024   0.00286   2.67472
   R11        2.07914   0.00030  -0.00270   0.00435   0.00164   2.08078
   R12        2.07586   0.00014  -0.00240   0.00356   0.00116   2.07702
   R13        2.06422   0.00029  -0.00066   0.00158   0.00092   2.06514
    A1        1.90254   0.00026   0.00262  -0.00294  -0.00034   1.90220
    A2        1.88406  -0.00084  -0.00323  -0.00088  -0.00412   1.87995
    A3        1.83631   0.00003  -0.00176   0.00067  -0.00111   1.83520
    A4        2.00400  -0.00203  -0.01181   0.00751  -0.00430   1.99970
    A5        1.88365   0.00071   0.00376  -0.00083   0.00295   1.88659
    A6        1.90875   0.00004   0.00106  -0.00651  -0.00546   1.90328
    A7        1.91226   0.00084   0.00250   0.00318   0.00569   1.91794
    A8        1.89659   0.00094   0.00420  -0.00271   0.00154   1.89813
    A9        1.85270  -0.00039   0.00102  -0.00127  -0.00017   1.85254
   A10        1.96156   0.00148   0.00119   0.00468   0.00583   1.96740
   A11        1.90355  -0.00001   0.00036   0.00433   0.00470   1.90825
   A12        1.95429  -0.00246  -0.00329  -0.01588  -0.01918   1.93511
   A13        1.82744   0.00054   0.00681   0.00561   0.01238   1.83982
   A14        1.92955   0.00012  -0.00000  -0.00360  -0.00365   1.92590
   A15        1.88121   0.00051  -0.00490   0.00674   0.00188   1.88309
   A16        1.97466   0.00423   0.00575   0.00651   0.01226   1.98692
   A17        1.94690  -0.00048  -0.00003  -0.00347  -0.00351   1.94340
   A18        1.97216  -0.00048  -0.00279   0.00023  -0.00258   1.96958
   A19        1.85340   0.00262   0.00850   0.00416   0.01266   1.86606
   A20        1.89711  -0.00078   0.00024  -0.00766  -0.00744   1.88967
   A21        1.89862  -0.00033  -0.00312   0.00438   0.00128   1.89990
   A22        1.89345  -0.00048  -0.00291   0.00312   0.00019   1.89363
    D1       -1.10587   0.00017   0.00399  -0.00910  -0.00509  -1.11096
    D2        3.03920  -0.00007   0.00597  -0.01769  -0.01175   3.02745
    D3        1.03100  -0.00001   0.00208  -0.01234  -0.01028   1.02072
    D4        0.88007  -0.00010   0.00154  -0.01027  -0.00869   0.87138
    D5       -1.25805  -0.00034   0.00352  -0.01885  -0.01535  -1.27340
    D6        3.01694  -0.00028  -0.00037  -0.01351  -0.01388   3.00305
    D7       -0.94077  -0.00100  -0.00695  -0.01499  -0.02192  -0.96268
    D8        1.07766   0.00052   0.00247  -0.00269  -0.00018   1.07748
    D9       -3.12501  -0.00038  -0.00530  -0.00134  -0.00664  -3.13165
   D10        1.18185  -0.00086  -0.00840  -0.00838  -0.01676   1.16509
   D11       -3.08290   0.00065   0.00102   0.00392   0.00497  -3.07793
   D12       -1.00239  -0.00025  -0.00675   0.00528  -0.00149  -1.00388
   D13       -3.08418  -0.00034  -0.00328  -0.00967  -0.01298  -3.09716
   D14       -1.06575   0.00117   0.00614   0.00263   0.00876  -1.05699
   D15        1.01476   0.00027  -0.00163   0.00398   0.00229   1.01706
   D16       -1.31240   0.00058   0.01111  -0.03055  -0.01944  -1.33184
   D17        2.90690  -0.00050   0.00565  -0.04158  -0.03592   2.87098
   D18        0.88532  -0.00144   0.00767  -0.05080  -0.04314   0.84218
   D19       -0.99287   0.00094  -0.00073   0.01168   0.01092  -0.98195
   D20        1.15074  -0.00081  -0.00248  -0.00087  -0.00335   1.14738
   D21       -3.05880   0.00001  -0.00221   0.00577   0.00360  -3.05520
         Item               Value     Threshold  Converged?
 Maximum Force            0.004228     0.000450     NO 
 RMS     Force            0.001258     0.000300     NO 
 Maximum Displacement     0.064012     0.001800     NO 
 RMS     Displacement     0.023931     0.001200     NO 
 Predicted change in Energy=-2.038715D-04
 GradGradGradGradGradGradGradGradGradGradGradGradGradGradGradGradGradGrad

                          Input orientation:                          
 ---------------------------------------------------------------------
 Center     Atomic      Atomic             Coordinates (Angstroms)
 Number     Number       Type             X           Y           Z
 ---------------------------------------------------------------------
      1          7           0       -0.445596   -1.078928   -2.048577
      2          6           0        0.515981   -0.093030   -1.554767
      3          6           0        1.037604   -0.364710   -0.137844
      4          8           0       -0.008234   -0.495242    0.816922
      5          6           0       -0.589790    0.736835    1.200518
      6          1           0        0.015647   -1.985021   -2.120271
      7          1           0       -1.160703   -1.200031   -1.332829
      8          1           0        0.041688    0.895027   -1.594704
      9          1           0        1.369087   -0.049680   -2.242217
     10          1           0        1.566862   -1.325332   -0.123678
     11          1           0        1.748554    0.418823    0.176456
     12          1           0        0.168156    1.433406    1.591328
     13          1           0       -1.121235    1.232917    0.376189
     14          1           0       -1.308722    0.515966    1.993374
 ---------------------------------------------------------------------
                    Distance matrix (angstroms):
                    1          2          3          4          5
     1  N    0.000000
     2  C    1.463036   0.000000
     3  C    2.522081   1.534135   0.000000
     4  O    2.956867   2.462008   1.422110   0.000000
     5  C    3.724836   3.082694   2.377610   1.415403   0.000000
     6  H    1.019260   2.037096   2.756777   3.293496   4.336207
     7  H    1.018989   2.021380   2.637860   2.538965   3.239636
     8  H    2.083253   1.096725   2.168231   2.784112   2.870027
     9  H    2.095215   1.096475   2.153487   3.384357   4.038345
    10  H    2.795700   2.161235   1.096863   2.013630   3.264533
    11  H    3.465303   2.185947   1.103702   2.081350   2.572487
    12  H    4.465134   3.514101   2.641817   2.085786   1.101103
    13  H    3.417690   2.857831   2.734452   2.102273   1.099113
    14  H    4.430130   4.036053   3.289823   2.024315   1.092825
                    6          7          8          9         10
     6  H    0.000000
     7  H    1.618664   0.000000
     8  H    2.927726   2.429730   0.000000
     9  H    2.364787   2.924061   1.753207   0.000000
    10  H    2.613014   2.986195   3.069213   2.480849   0.000000
    11  H    3.749185   3.655463   2.505428   2.492682   1.779092
    12  H    5.048254   4.153499   3.233673   4.282271   3.536702
    13  H    4.228468   2.973472   2.313217   3.834424   3.744378
    14  H    4.993092   3.745689   3.852479   5.042901   4.017621
                   11         12         13         14
    11  H    0.000000
    12  H    2.351362   0.000000
    13  H    2.989704   1.783055   0.000000
    14  H    3.557748   1.784519   1.778893   0.000000
 Stoichiometry    C3H9NO
 Framework group  C1[X(C3H9NO)]
 Deg. of freedom    36
 Full point group                 C1      NOp   1
 Largest Abelian subgroup         C1      NOp   1
 Largest concise Abelian subgroup C1      NOp   1
                         Standard orientation:                         
 ---------------------------------------------------------------------
 Center     Atomic      Atomic             Coordinates (Angstroms)
 Number     Number       Type             X           Y           Z
 ---------------------------------------------------------------------
      1          7           0       -1.830867   -0.752680   -0.148142
      2          6           0       -1.120942    0.292984    0.588789
      3          6           0        0.025119    0.954560   -0.187376
      4          8           0        0.976839    0.014209   -0.669418
      5          6           0        1.852970   -0.475811    0.328401
      6          1           0       -2.285047   -0.336172   -0.960011
      7          1           0       -1.133897   -1.390032   -0.530704
      8          1           0       -0.737857   -0.145518    1.518180
      9          1           0       -1.836396    1.067582    0.889423
     10          1           0       -0.377869    1.445898   -1.081410
     11          1           0        0.523373    1.724219    0.427056
     12          1           0        2.384204    0.345571    0.833921
     13          1           0        1.337402   -1.074517    1.092462
     14          1           0        2.584555   -1.112341   -0.175465
 ---------------------------------------------------------------------
 Rotational constants (GHZ):           9.3182232           3.0691775           2.8509520
 Standard basis: 6-31G(d,p) (6D, 7F)
 There are   120 symmetry adapted cartesian basis functions of A   symmetry.
 There are   120 symmetry adapted basis functions of A   symmetry.
   120 basis functions,   203 primitive gaussians,   120 cartesian basis functions
    21 alpha electrons       21 beta electrons
       nuclear repulsion energy       194.9538603083 Hartrees.
 NAtoms=   14 NActive=   14 NUniq=   14 SFac= 1.00D+00 NAtFMM=   60 NAOKFM=F Big=F
 Integral buffers will be    131072 words long.
 Raffenetti 2 integral format.
 Two-electron integral symmetry is turned on.
 Nuclear repulsion after empirical dispersion term =      194.9384555202 Hartrees.
 One-electron integrals computed using PRISM.
 NBasis=   120 RedAO= T EigKep=  5.04D-03  NBF=   120
 NBsUse=   120 1.00D-06 EigRej= -1.00D+00 NBFU=   120
 Initial guess from the checkpoint file:  "N1_conf-2.chk"
 B after Tr=    -0.000000    0.000000   -0.000000
         Rot=    0.999974    0.006676   -0.001645   -0.001991 Ang=   0.82 deg.
 ExpMin= 1.61D-01 ExpMax= 5.48D+03 ExpMxC= 8.25D+02 IAcc=3 IRadAn=         5 AccDes= 0.00D+00
 Harris functional with IExCor=  402 and IRadAn=       5 diagonalized for initial guess.
 HarFok:  IExCor=  402 AccDes= 0.00D+00 IRadAn=         5 IDoV= 1 UseB2=F ITyADJ=14
 ICtDFT=  3500011 ScaDFX=  1.000000  1.000000  1.000000  1.000000
 FoFCou: FMM=F IPFlag=           0 FMFlag=      100000 FMFlg1=           0
         NFxFlg=           0 DoJE=T BraDBF=F KetDBF=T FulRan=T
         wScrn=  0.000000 ICntrl=       500 IOpCl=  0 I1Cent=   200000004 NGrid=           0
         NMat0=    1 NMatS0=      1 NMatT0=    0 NMatD0=    1 NMtDS0=    0 NMtDT0=    0
 Petite list used in FoFCou.
 Requested convergence on RMS density matrix=1.00D-08 within 128 cycles.
 Requested convergence on MAX density matrix=1.00D-06.
 Requested convergence on             energy=1.00D-06.
 No special actions if energy rises.
 Integral accuracy reduced to 1.0D-05 until final iterations.
 Initial convergence to 1.0D-05 achieved.  Increase integral accuracy.
 SCF Done:  E(RB3LYP) =  -249.714808757     A.U. after   10 cycles
            NFock= 10  Conv=0.37D-08     -V/T= 2.0093
 Calling FoFJK, ICntrl=      2127 FMM=F ISym2X=0 I1Cent= 0 IOpClX= 0 NMat=1 NMatS=1 NMatT=0.
 ***** Axes restored to original set *****
 -------------------------------------------------------------------
 Center     Atomic                   Forces (Hartrees/Bohr)
 Number     Number              X              Y              Z
 -------------------------------------------------------------------
      1        7           0.000169606   -0.000077364    0.000255780
      2        6          -0.000056043   -0.000118382    0.000505095
      3        6           0.000211644    0.000053663   -0.000295903
      4        8          -0.000672511   -0.000056682   -0.000440304
      5        6           0.000446522   -0.000463032    0.000315016
      6        1          -0.000203891    0.000135849   -0.000072551
      7        1           0.000080289   -0.000094994    0.000082325
      8        1           0.000064797    0.000138437    0.000052009
      9        1           0.000141475    0.000083775   -0.000005123
     10        1          -0.000069970    0.000319481    0.000370385
     11        1          -0.000178237   -0.000101204   -0.000432556
     12        1          -0.000181475    0.000039082   -0.000086536
     13        1           0.000064139    0.000037638   -0.000015331
     14        1           0.000183656    0.000103734   -0.000232306
 -------------------------------------------------------------------
 Cartesian Forces:  Max     0.000672511 RMS     0.000240542

 GradGradGradGradGradGradGradGradGradGradGradGradGradGradGradGradGradGrad
 Berny optimization.
 Using GEDIIS/GDIIS optimizer.
 FormGI is forming the generalized inverse of G from B-inverse, IUseBI=4.
 Internal  Forces:  Max     0.000810354 RMS     0.000239918
 Search for a local minimum.
 Step number   3 out of a maximum of   66
 All quantities printed in internal units (Hartrees-Bohrs-Radians)
 Mixed Optimization -- En-DIIS/RFO-DIIS
 Update second derivatives using D2CorX and points    1    2    3
 DE= -2.12D-04 DEPred=-2.04D-04 R= 1.04D+00
 TightC=F SS=  1.41D+00  RLast= 8.25D-02 DXNew= 8.4853D-01 2.4745D-01
 Trust test= 1.04D+00 RLast= 8.25D-02 DXMaxT set to 5.05D-01
 ITU=  1  1  0
 Use linear search instead of GDIIS.
     Eigenvalues ---    0.00232   0.00912   0.01183   0.01393   0.03953
     Eigenvalues ---    0.04731   0.04894   0.05368   0.05983   0.09790
     Eigenvalues ---    0.09951   0.10484   0.11781   0.13091   0.13573
     Eigenvalues ---    0.15985   0.16000   0.16000   0.16031   0.16506
     Eigenvalues ---    0.21998   0.22632   0.26778   0.27927   0.34231
     Eigenvalues ---    0.34622   0.34668   0.34689   0.34736   0.34777
     Eigenvalues ---    0.35001   0.37925   0.41618   0.45124   0.45314
     Eigenvalues ---    0.46215
 RFO step:  Lambda=-2.73194763D-05 EMin= 2.31872458D-03
 Quartic linear search produced a step of  0.04876.
 Iteration  1 RMS(Cart)=  0.00746786 RMS(Int)=  0.00003717
 Iteration  2 RMS(Cart)=  0.00005046 RMS(Int)=  0.00000227
 Iteration  3 RMS(Cart)=  0.00000000 RMS(Int)=  0.00000227
 Variable       Old X    -DE/DX   Delta X   Delta X   Delta X     New X
                                 (Linear)    (Quad)   (Total)
    R1        2.76474  -0.00010  -0.00028  -0.00032  -0.00060   2.76414
    R2        1.92612  -0.00021   0.00009  -0.00033  -0.00024   1.92588
    R3        1.92561   0.00001   0.00002   0.00010   0.00011   1.92572
    R4        2.89910  -0.00081  -0.00039  -0.00340  -0.00379   2.89531
    R5        2.07251   0.00009   0.00011   0.00041   0.00052   2.07303
    R6        2.07204   0.00012   0.00007   0.00045   0.00053   2.07256
    R7        2.68740  -0.00016   0.00036  -0.00031   0.00004   2.68744
    R8        2.07277  -0.00031   0.00015  -0.00080  -0.00064   2.07213
    R9        2.08569  -0.00031  -0.00002  -0.00081  -0.00083   2.08486
   R10        2.67472  -0.00046   0.00014  -0.00119  -0.00105   2.67367
   R11        2.08078  -0.00013   0.00008  -0.00024  -0.00016   2.08063
   R12        2.07702  -0.00000   0.00006   0.00013   0.00018   2.07721
   R13        2.06514  -0.00031   0.00004  -0.00089  -0.00085   2.06429
    A1        1.90220   0.00024  -0.00002   0.00139   0.00137   1.90357
    A2        1.87995  -0.00008  -0.00020  -0.00058  -0.00078   1.87916
    A3        1.83520  -0.00008  -0.00005  -0.00068  -0.00074   1.83446
    A4        1.99970  -0.00037  -0.00021  -0.00141  -0.00162   1.99807
    A5        1.88659   0.00018   0.00014   0.00040   0.00054   1.88713
    A6        1.90328   0.00021  -0.00027   0.00207   0.00181   1.90509
    A7        1.91794  -0.00003   0.00028  -0.00144  -0.00116   1.91678
    A8        1.89813   0.00010   0.00008   0.00077   0.00085   1.89898
    A9        1.85254  -0.00007  -0.00001  -0.00030  -0.00031   1.85223
   A10        1.96740  -0.00066   0.00028  -0.00325  -0.00297   1.96443
   A11        1.90825   0.00053   0.00023   0.00387   0.00410   1.91235
   A12        1.93511  -0.00020  -0.00094  -0.00255  -0.00349   1.93163
   A13        1.83982  -0.00004   0.00060  -0.00092  -0.00032   1.83951
   A14        1.92590   0.00052  -0.00018   0.00284   0.00266   1.92856
   A15        1.88309  -0.00010   0.00009   0.00030   0.00039   1.88348
   A16        1.98692  -0.00054   0.00060  -0.00214  -0.00154   1.98538
   A17        1.94340   0.00020  -0.00017   0.00121   0.00103   1.94443
   A18        1.96958  -0.00008  -0.00013  -0.00060  -0.00073   1.96885
   A19        1.86606   0.00007   0.00062   0.00060   0.00122   1.86728
   A20        1.88967  -0.00014  -0.00036  -0.00140  -0.00177   1.88790
   A21        1.89990  -0.00004   0.00006   0.00017   0.00024   1.90014
   A22        1.89363  -0.00001   0.00001   0.00006   0.00007   1.89370
    D1       -1.11096  -0.00011  -0.00025  -0.00807  -0.00832  -1.11928
    D2        3.02745   0.00005  -0.00057  -0.00554  -0.00611   3.02134
    D3        1.02072  -0.00008  -0.00050  -0.00648  -0.00698   1.01374
    D4        0.87138  -0.00013  -0.00042  -0.00847  -0.00890   0.86248
    D5       -1.27340   0.00003  -0.00075  -0.00594  -0.00669  -1.28009
    D6        3.00305  -0.00010  -0.00068  -0.00688  -0.00756   2.99549
    D7       -0.96268   0.00011  -0.00107   0.00978   0.00871  -0.95397
    D8        1.07748  -0.00000  -0.00001   0.00918   0.00917   1.08665
    D9       -3.13165   0.00009  -0.00032   0.01042   0.01009  -3.12156
   D10        1.16509   0.00006  -0.00082   0.00820   0.00738   1.17247
   D11       -3.07793  -0.00005   0.00024   0.00759   0.00784  -3.07009
   D12       -1.00388   0.00004  -0.00007   0.00883   0.00876  -0.99512
   D13       -3.09716   0.00002  -0.00063   0.00748   0.00685  -3.09031
   D14       -1.05699  -0.00009   0.00043   0.00688   0.00731  -1.04969
   D15        1.01706  -0.00000   0.00011   0.00812   0.00823   1.02528
   D16       -1.33184   0.00003  -0.00095  -0.01325  -0.01420  -1.34603
   D17        2.87098  -0.00022  -0.00175  -0.01559  -0.01734   2.85364
   D18        0.84218  -0.00033  -0.00210  -0.01683  -0.01893   0.82325
   D19       -0.98195   0.00005   0.00053  -0.00000   0.00053  -0.98142
   D20        1.14738  -0.00004  -0.00016  -0.00137  -0.00154   1.14585
   D21       -3.05520  -0.00005   0.00018  -0.00126  -0.00109  -3.05629
         Item               Value     Threshold  Converged?
 Maximum Force            0.000810     0.000450     NO 
 RMS     Force            0.000240     0.000300     YES
 Maximum Displacement     0.018112     0.001800     NO 
 RMS     Displacement     0.007470     0.001200     NO 
 Predicted change in Energy=-1.411117D-05
 GradGradGradGradGradGradGradGradGradGradGradGradGradGradGradGradGradGrad

                          Input orientation:                          
 ---------------------------------------------------------------------
 Center     Atomic      Atomic             Coordinates (Angstroms)
 Number     Number       Type             X           Y           Z
 ---------------------------------------------------------------------
      1          7           0       -0.447103   -1.079768   -2.045451
      2          6           0        0.516983   -0.094362   -1.556513
      3          6           0        1.036010   -0.362494   -0.140130
      4          8           0       -0.014214   -0.496892    0.809306
      5          6           0       -0.589188    0.734984    1.201324
      6          1           0        0.012571   -1.986205   -2.120968
      7          1           0       -1.157422   -1.201410   -1.324957
      8          1           0        0.044911    0.894974   -1.598655
      9          1           0        1.370517   -0.054130   -2.244064
     10          1           0        1.570876   -1.319509   -0.120006
     11          1           0        1.740692    0.426769    0.172394
     12          1           0        0.170846    1.424129    1.600912
     13          1           0       -1.112683    1.241899    0.378369
     14          1           0       -1.313497    0.513015    1.988339
 ---------------------------------------------------------------------
                    Distance matrix (angstroms):
                    1          2          3          4          5
     1  N    0.000000
     2  C    1.462719   0.000000
     3  C    2.518800   1.532130   0.000000
     4  O    2.945636   2.457905   1.422133   0.000000
     5  C    3.722238   3.084978   2.375968   1.414847   0.000000
     6  H    1.019133   2.037673   2.758185   3.287138   4.336428
     7  H    1.019050   2.020595   2.630349   2.521576   3.233358
     8  H    2.083581   1.097002   2.165825   2.781917   2.875336
     9  H    2.096455   1.096753   2.152562   3.381803   4.041515
    10  H    2.799473   2.162227   1.096523   2.013164   3.260786
    11  H    3.460482   2.181320   1.103261   2.082907   2.565547
    12  H    4.466243   3.520648   2.640410   2.085956   1.101020
    13  H    3.421701   2.860974   2.731264   2.101366   1.099211
    14  H    4.422563   4.035535   3.288934   2.024394   1.092377
                    6          7          8          9         10
     6  H    0.000000
     7  H    1.618154   0.000000
     8  H    2.928318   2.432147   0.000000
     9  H    2.364759   2.924293   1.753449   0.000000
    10  H    2.622336   2.984873   3.069024   2.480514   0.000000
    11  H    3.750781   3.645832   2.496298   2.491498   1.778714
    12  H    5.050527   4.149513   3.245473   4.290490   3.528342
    13  H    4.234801   2.978771   2.317112   3.837073   3.743084
    14  H    4.989085   3.733838   3.854568   5.043692   4.015330
                   11         12         13         14
    11  H    0.000000
    12  H    2.345167   0.000000
    13  H    2.974661   1.781927   0.000000
    14  H    3.554317   1.784238   1.778652   0.000000
 Stoichiometry    C3H9NO
 Framework group  C1[X(C3H9NO)]
 Deg. of freedom    36
 Full point group                 C1      NOp   1
 Largest Abelian subgroup         C1      NOp   1
 Largest concise Abelian subgroup C1      NOp   1
                         Standard orientation:                         
 ---------------------------------------------------------------------
 Center     Atomic      Atomic             Coordinates (Angstroms)
 Number     Number       Type             X           Y           Z
 ---------------------------------------------------------------------
      1          7           0       -1.826248   -0.756222   -0.139748
      2          6           0       -1.122041    0.301323    0.584986
      3          6           0        0.024110    0.951792   -0.196454
      4          8           0        0.970751    0.001320   -0.668616
      5          6           0        1.854754   -0.467791    0.331516
      6          1           0       -2.284686   -0.352409   -0.955469
      7          1           0       -1.125167   -1.392398   -0.516879
      8          1           0       -0.739910   -0.123013    1.521645
      9          1           0       -1.839460    1.079168    0.873313
     10          1           0       -0.373599    1.437795   -1.095338
     11          1           0        0.523050    1.723507    0.414037
     12          1           0        2.390461    0.363058    0.816234
     13          1           0        1.344501   -1.048785    1.112767
     14          1           0        2.581603   -1.115870   -0.163430
 ---------------------------------------------------------------------
 Rotational constants (GHZ):           9.3343704           3.0756274           2.8564552
 Standard basis: 6-31G(d,p) (6D, 7F)
 There are   120 symmetry adapted cartesian basis functions of A   symmetry.
 There are   120 symmetry adapted basis functions of A   symmetry.
   120 basis functions,   203 primitive gaussians,   120 cartesian basis functions
    21 alpha electrons       21 beta electrons
       nuclear repulsion energy       195.0805692010 Hartrees.
 NAtoms=   14 NActive=   14 NUniq=   14 SFac= 1.00D+00 NAtFMM=   60 NAOKFM=F Big=F
 Integral buffers will be    131072 words long.
 Raffenetti 2 integral format.
 Two-electron integral symmetry is turned on.
 Nuclear repulsion after empirical dispersion term =      195.0651557549 Hartrees.
 One-electron integrals computed using PRISM.
 NBasis=   120 RedAO= T EigKep=  5.01D-03  NBF=   120
 NBsUse=   120 1.00D-06 EigRej= -1.00D+00 NBFU=   120
 Initial guess from the checkpoint file:  "N1_conf-2.chk"
 B after Tr=     0.000000   -0.000000    0.000000
         Rot=    0.999979    0.006449   -0.000272   -0.000464 Ang=   0.74 deg.
 Requested convergence on RMS density matrix=1.00D-08 within 128 cycles.
 Requested convergence on MAX density matrix=1.00D-06.
 Requested convergence on             energy=1.00D-06.
 No special actions if energy rises.
 SCF Done:  E(RB3LYP) =  -249.714824879     A.U. after    8 cycles
            NFock=  8  Conv=0.73D-08     -V/T= 2.0093
 Calling FoFJK, ICntrl=      2127 FMM=F ISym2X=0 I1Cent= 0 IOpClX= 0 NMat=1 NMatS=1 NMatT=0.
 ***** Axes restored to original set *****
 -------------------------------------------------------------------
 Center     Atomic                   Forces (Hartrees/Bohr)
 Number     Number              X              Y              Z
 -------------------------------------------------------------------
      1        7          -0.000101348   -0.000172657   -0.000088256
      2        6          -0.000186596   -0.000090394   -0.000208600
      3        6           0.000391970    0.000033118    0.000103131
      4        8          -0.000217335    0.000094551    0.000000920
      5        6           0.000184803    0.000040574   -0.000002587
      6        1          -0.000020906    0.000125021   -0.000075997
      7        1           0.000081969    0.000002843    0.000023784
      8        1           0.000042165   -0.000002291    0.000010346
      9        1          -0.000070905    0.000016581    0.000008389
     10        1           0.000016167    0.000126164    0.000101207
     11        1          -0.000021760   -0.000112444    0.000114348
     12        1          -0.000069048   -0.000073532    0.000027486
     13        1          -0.000030294    0.000011852    0.000011309
     14        1           0.000001118    0.000000615   -0.000025478
 -------------------------------------------------------------------
 Cartesian Forces:  Max     0.000391970 RMS     0.000108398

 GradGradGradGradGradGradGradGradGradGradGradGradGradGradGradGradGradGrad
 Berny optimization.
 Using GEDIIS/GDIIS optimizer.
 FormGI is forming the generalized inverse of G from B-inverse, IUseBI=4.
 Internal  Forces:  Max     0.000371556 RMS     0.000093239
 Search for a local minimum.
 Step number   4 out of a maximum of   66
 All quantities printed in internal units (Hartrees-Bohrs-Radians)
 Mixed Optimization -- En-DIIS/RFO-DIIS
 Swapping is turned off.
 Update second derivatives using D2CorX and points    1    2    3    4
 DE= -1.61D-05 DEPred=-1.41D-05 R= 1.14D+00
 TightC=F SS=  1.41D+00  RLast= 4.37D-02 DXNew= 8.4853D-01 1.3100D-01
 Trust test= 1.14D+00 RLast= 4.37D-02 DXMaxT set to 5.05D-01
 ITU=  1  1  1  0
     Eigenvalues ---    0.00258   0.00630   0.01086   0.01405   0.03948
     Eigenvalues ---    0.04738   0.04891   0.05375   0.05960   0.09859
     Eigenvalues ---    0.10035   0.10487   0.12013   0.12970   0.14499
     Eigenvalues ---    0.15911   0.15998   0.16000   0.16234   0.16439
     Eigenvalues ---    0.21847   0.22700   0.27574   0.31228   0.34364
     Eigenvalues ---    0.34589   0.34653   0.34682   0.34742   0.34903
     Eigenvalues ---    0.35023   0.38480   0.41494   0.44992   0.45255
     Eigenvalues ---    0.46090
 En-DIIS/RFO-DIIS/Sim-DIIS IScMMF=       -3 using points:     4    3
 RFO step:  Lambda=-8.68650042D-06.
 DidBck=F Rises=F RFO-DIIS coefs:    1.25907   -0.25907
 Iteration  1 RMS(Cart)=  0.01136052 RMS(Int)=  0.00005244
 Iteration  2 RMS(Cart)=  0.00006355 RMS(Int)=  0.00000072
 Iteration  3 RMS(Cart)=  0.00000000 RMS(Int)=  0.00000072
 Variable       Old X    -DE/DX   Delta X   Delta X   Delta X     New X
                                 (Linear)    (Quad)   (Total)
    R1        2.76414   0.00010  -0.00015   0.00016   0.00001   2.76414
    R2        1.92588  -0.00011  -0.00006  -0.00019  -0.00025   1.92563
    R3        1.92572  -0.00004   0.00003  -0.00006  -0.00003   1.92569
    R4        2.89531   0.00037  -0.00098   0.00110   0.00012   2.89542
    R5        2.07303  -0.00002   0.00014   0.00005   0.00018   2.07322
    R6        2.07256  -0.00006   0.00014  -0.00011   0.00002   2.07259
    R7        2.68744   0.00010   0.00001   0.00046   0.00047   2.68791
    R8        2.07213  -0.00010  -0.00017  -0.00022  -0.00039   2.07174
    R9        2.08486  -0.00006  -0.00022  -0.00018  -0.00039   2.08447
   R10        2.67367  -0.00005  -0.00027  -0.00012  -0.00039   2.67328
   R11        2.08063  -0.00008  -0.00004  -0.00018  -0.00022   2.08041
   R12        2.07721   0.00001   0.00005   0.00012   0.00017   2.07738
   R13        2.06429  -0.00002  -0.00022  -0.00004  -0.00026   2.06403
    A1        1.90357   0.00000   0.00036  -0.00001   0.00035   1.90392
    A2        1.87916  -0.00009  -0.00020  -0.00071  -0.00092   1.87825
    A3        1.83446   0.00004  -0.00019   0.00026   0.00007   1.83453
    A4        1.99807   0.00016  -0.00042   0.00096   0.00054   1.99861
    A5        1.88713   0.00000   0.00014   0.00017   0.00031   1.88745
    A6        1.90509  -0.00010   0.00047  -0.00056  -0.00010   1.90499
    A7        1.91678  -0.00011  -0.00030  -0.00083  -0.00114   1.91564
    A8        1.89898   0.00004   0.00022   0.00063   0.00085   1.89983
    A9        1.85223   0.00000  -0.00008  -0.00048  -0.00056   1.85167
   A10        1.96443  -0.00026  -0.00077  -0.00125  -0.00202   1.96241
   A11        1.91235   0.00010   0.00106   0.00117   0.00223   1.91458
   A12        1.93163   0.00024  -0.00090   0.00108   0.00017   1.93180
   A13        1.83951   0.00007  -0.00008   0.00057   0.00049   1.83999
   A14        1.92856  -0.00004   0.00069  -0.00095  -0.00027   1.92829
   A15        1.88348  -0.00012   0.00010  -0.00060  -0.00050   1.88298
   A16        1.98538  -0.00001  -0.00040   0.00021  -0.00019   1.98519
   A17        1.94443   0.00001   0.00027   0.00002   0.00028   1.94471
   A18        1.96885   0.00005  -0.00019   0.00036   0.00017   1.96902
   A19        1.86728  -0.00003   0.00032  -0.00004   0.00027   1.86755
   A20        1.88790   0.00003  -0.00046   0.00009  -0.00037   1.88754
   A21        1.90014  -0.00003   0.00006  -0.00022  -0.00016   1.89998
   A22        1.89370  -0.00003   0.00002  -0.00023  -0.00022   1.89348
    D1       -1.11928  -0.00008  -0.00215  -0.00628  -0.00844  -1.12772
    D2        3.02134  -0.00005  -0.00158  -0.00599  -0.00757   3.01377
    D3        1.01374  -0.00000  -0.00181  -0.00522  -0.00702   1.00671
    D4        0.86248  -0.00008  -0.00231  -0.00635  -0.00866   0.85382
    D5       -1.28009  -0.00005  -0.00173  -0.00605  -0.00779  -1.28787
    D6        2.99549  -0.00000  -0.00196  -0.00528  -0.00724   2.98825
    D7       -0.95397  -0.00005   0.00226  -0.01020  -0.00794  -0.96191
    D8        1.08665  -0.00005   0.00238  -0.00950  -0.00713   1.07953
    D9       -3.12156   0.00001   0.00261  -0.00884  -0.00623  -3.12779
   D10        1.17247  -0.00002   0.00191  -0.00993  -0.00801   1.16446
   D11       -3.07009  -0.00002   0.00203  -0.00923  -0.00720  -3.07729
   D12       -0.99512   0.00004   0.00227  -0.00858  -0.00631  -1.00143
   D13       -3.09031  -0.00005   0.00178  -0.01061  -0.00883  -3.09914
   D14       -1.04969  -0.00006   0.00189  -0.00991  -0.00802  -1.05770
   D15        1.02528   0.00001   0.00213  -0.00925  -0.00712   1.01816
   D16       -1.34603  -0.00011  -0.00368  -0.00829  -0.01197  -1.35800
   D17        2.85364  -0.00013  -0.00449  -0.00938  -0.01387   2.83977
   D18        0.82325  -0.00001  -0.00490  -0.00852  -0.01342   0.80983
   D19       -0.98142  -0.00008   0.00014  -0.00300  -0.00286  -0.98428
   D20        1.14585   0.00000  -0.00040  -0.00261  -0.00301   1.14284
   D21       -3.05629  -0.00003  -0.00028  -0.00272  -0.00300  -3.05929
         Item               Value     Threshold  Converged?
 Maximum Force            0.000372     0.000450     YES
 RMS     Force            0.000093     0.000300     YES
 Maximum Displacement     0.033860     0.001800     NO 
 RMS     Displacement     0.011344     0.001200     NO 
 Predicted change in Energy=-4.344783D-06
 GradGradGradGradGradGradGradGradGradGradGradGradGradGradGradGradGradGrad

                          Input orientation:                          
 ---------------------------------------------------------------------
 Center     Atomic      Atomic             Coordinates (Angstroms)
 Number     Number       Type             X           Y           Z
 ---------------------------------------------------------------------
      1          7           0       -0.443942   -1.086728   -2.050645
      2          6           0        0.513048   -0.096258   -1.558002
      3          6           0        1.030777   -0.362634   -0.140748
      4          8           0       -0.022391   -0.493846    0.806244
      5          6           0       -0.586066    0.740551    1.205920
      6          1           0        0.023087   -1.988547   -2.134098
      7          1           0       -1.150188   -1.219175   -1.328079
      8          1           0        0.035080    0.890402   -1.598910
      9          1           0        1.367250   -0.048959   -2.244293
     10          1           0        1.565604   -1.319340   -0.116456
     11          1           0        1.734688    0.427041    0.171742
     12          1           0        0.179132    1.418613    1.614206
     13          1           0       -1.100818    1.259817    0.385035
     14          1           0       -1.315962    0.520062    1.987983
 ---------------------------------------------------------------------
                    Distance matrix (angstroms):
                    1          2          3          4          5
     1  N    0.000000
     2  C    1.462722   0.000000
     3  C    2.519289   1.532191   0.000000
     4  O    2.948055   2.456508   1.422383   0.000000
     5  C    3.736892   3.089914   2.375860   1.414640   0.000000
     6  H    1.018999   2.037819   2.762694   3.298758   4.356003
     7  H    1.019032   2.019940   2.626790   2.520587   3.252677
     8  H    2.083883   1.097098   2.165121   2.775646   2.876691
     9  H    2.096397   1.096765   2.153255   3.381538   4.042615
    10  H    2.798834   2.163760   1.096319   2.013590   3.259066
    11  H    3.460770   2.181345   1.103054   2.082776   2.560022
    12  H    4.482865   3.531181   2.641591   2.085884   1.100905
    13  H    3.445330   2.866862   2.729926   2.101370   1.099300
    14  H    4.433137   4.037219   3.289047   2.024313   1.092239
                    6          7          8          9         10
     6  H    0.000000
     7  H    1.618077   0.000000
     8  H    2.928296   2.434856   0.000000
     9  H    2.362397   2.923413   1.753167   0.000000
    10  H    2.626419   2.975498   3.069712   2.486142   0.000000
    11  H    3.752538   3.644448   2.497715   2.489742   1.778059
    12  H    5.067827   4.169179   3.259427   4.295743   3.523334
    13  H    4.261580   3.013735   2.315766   3.836355   3.743441
    14  H    5.007766   3.748159   3.850749   5.043369   4.014410
                   11         12         13         14
    11  H    0.000000
    12  H    2.341724   0.000000
    13  H    2.962955   1.781670   0.000000
    14  H    3.551598   1.783930   1.778473   0.000000
 Stoichiometry    C3H9NO
 Framework group  C1[X(C3H9NO)]
 Deg. of freedom    36
 Full point group                 C1      NOp   1
 Largest Abelian subgroup         C1      NOp   1
 Largest concise Abelian subgroup C1      NOp   1
                         Standard orientation:                         
 ---------------------------------------------------------------------
 Center     Atomic      Atomic             Coordinates (Angstroms)
 Number     Number       Type             X           Y           Z
 ---------------------------------------------------------------------
      1          7           0       -1.834083   -0.752153   -0.134287
      2          6           0       -1.121066    0.303332    0.584821
      3          6           0        0.024746    0.946924   -0.202906
      4          8           0        0.968761   -0.010148   -0.667690
[...]
 Center     Atomic      Atomic             Coordinates (Angstroms)
 Number     Number       Type             X           Y           Z
 ---------------------------------------------------------------------
      1          7           0       -1.832409   -0.754002   -0.131299
      2          6           0       -1.122735    0.306846    0.583373
      3          6           0        0.024790    0.946510   -0.206147
      4          8           0        0.966567   -0.015226   -0.666760
      5          6           0        1.863640   -0.458143    0.333520
      6          1           0       -2.301683   -0.353180   -0.942063
      7          1           0       -1.133403   -1.388936   -0.514251
      8          1           0       -0.738422   -0.111376    1.521921
      9          1           0       -1.836855    1.088785    0.868289
     10          1           0       -0.371116    1.423813   -1.110317
     11          1           0        0.528263    1.723056    0.393917
     12          1           0        2.415606    0.383544    0.779366
     13          1           0        1.362151   -1.007166    1.143070
     14          1           0        2.575609   -1.130005   -0.151240
 ---------------------------------------------------------------------
 Rotational constants (GHZ):           9.3939794           3.0610721           2.8479871
 Standard basis: def2TZVP (5D, 7F)
 There are   234 symmetry adapted cartesian basis functions of A   symmetry.
 There are   209 symmetry adapted basis functions of A   symmetry.
   209 basis functions,   327 primitive gaussians,   234 cartesian basis functions
    21 alpha electrons       21 beta electrons
       nuclear repulsion energy       195.0095008339 Hartrees.
 NAtoms=   14 NActive=   14 NUniq=   14 SFac= 1.00D+00 NAtFMM=   60 NAOKFM=F Big=F
 Integral buffers will be    131072 words long.
 Raffenetti 2 integral format.
 Two-electron integral symmetry is turned on.
 One-electron integrals computed using PRISM.
   1 Symmetry operations used in ECPInt.
 ECPInt:  NShTT=    4186 NPrTT=   12072 LenC2=    4158 LenP2D=   10137.
 LDataN:  DoStor=T MaxTD1= 6 Len=  172
 NBasis=   209 RedAO= T EigKep=  3.27D-04  NBF=   209
 NBsUse=   209 1.00D-06 EigRej= -1.00D+00 NBFU=   209
 Initial guess from the checkpoint file:  "N1_conf-2.chk"
 B after Tr=     0.000000    0.000000   -0.000000
         Rot=    1.000000    0.000000   -0.000000   -0.000000 Ang=   0.00 deg.
 Requested convergence on RMS density matrix=1.00D-08 within 128 cycles.
 Requested convergence on MAX density matrix=1.00D-06.
 Requested convergence on             energy=1.00D-06.
 No special actions if energy rises.
 SCF Done:  E(RM062X) =  -249.669892744     A.U. after    1 cycles
            NFock=  1  Conv=0.20D-08     -V/T= 2.0052
 DoSCS=F DFT=T ScalE2(SS,OS)=  1.000000  1.000000
 Range of M.O.s used for correlation:     1   209
 NBasis=   209 NAE=    21 NBE=    21 NFC=     0 NFV=     0
 NROrb=    209 NOA=    21 NOB=    21 NVA=   188 NVB=   188

 **** Warning!!: The largest alpha MO coefficient is  0.12645338D+02

          Differentiating once with respect to magnetic field using GIAOs.
          Electric field/nuclear overlap derivatives assumed to be zero.
 FoFCou: FMM=F IPFlag=           0 FMFlag=      100000 FMFlg1=           0
         NFxFlg=           0 DoJE=F BraDBF=F KetDBF=T FulRan=T
         wScrn=  0.000000 ICntrl=      6100 IOpCl=  0 I1Cent=           7 NGrid=          14
         NMat0=    1 NMatS0=      1 NMatT0=    0 NMatD0=    1 NMtDS0=    0 NMtDT0=    0
 Symmetry not used in FoFCou.
   1 Symmetry operations used in ECPInt.
 ECPInt:  NShTT=    4186 NPrTT=   12072 LenC2=    4187 LenP2D=   12072.
 LDataN:  DoStor=T MaxTD1= 7 Len=  274
 FoFJK:  IHMeth= 1 ICntrl=    6127 DoSepK=F KAlg= 0 I1Cent=           0 FoldK=F
 IRaf=         1 NMat=       1 IRICut=       1 DoRegI=T DoRafI=F ISym2E= 0 IDoP0=0 IntGTp=1.
          There are     3 degrees of freedom in the 1st order CPHF.  IDoFFX=0 NUNeed=     3.
      3 vectors produced by pass  0 Test12= 1.32D-13 3.33D-08 XBig12= 2.50D+00 2.85D-01.
 AX will form     3 AO Fock derivatives at one time.
      3 vectors produced by pass  1 Test12= 1.32D-13 3.33D-08 XBig12= 9.96D-03 2.45D-02.
      3 vectors produced by pass  2 Test12= 1.32D-13 3.33D-08 XBig12= 7.86D-05 2.55D-03.
      3 vectors produced by pass  3 Test12= 1.32D-13 3.33D-08 XBig12= 7.76D-07 1.64D-04.
      3 vectors produced by pass  4 Test12= 1.32D-13 3.33D-08 XBig12= 8.41D-09 1.62D-05.
      3 vectors produced by pass  5 Test12= 1.32D-13 3.33D-08 XBig12= 7.51D-11 1.50D-06.
      3 vectors produced by pass  6 Test12= 1.32D-13 3.33D-08 XBig12= 6.69D-13 1.18D-07.
 InvSVY:  IOpt=1 It=  1 EMax= 4.44D-16
 Solved reduced A of dimension    21 with     3 vectors.
 Calculating GIAO nuclear magnetic shielding tensors.
 SCF GIAO Magnetic shielding tensor (ppm):
      1  N    Isotropic =   237.1377   Anisotropy =    48.0203
   XX=   232.9891   YX=    -0.6376   ZX=    26.6583
   XY=    -1.9822   YY=   232.2381   ZY=    -6.9860
   XZ=    30.4814   YZ=     1.4363   ZZ=   246.1860
   Eigenvalues:   210.2431   232.0189   269.1513
      2  C    Isotropic =   143.9264   Anisotropy =    41.8795
   XX=   139.6548   YX=    19.4526   ZX=    -1.6302
   XY=    19.6742   YY=   153.2456   ZY=    16.3093
   XZ=    -0.5856   YZ=    14.7693   ZZ=   138.8789
   Eigenvalues:   119.6671   140.2661   171.8460
      3  C    Isotropic =   105.6532   Anisotropy =    53.9109
   XX=   121.1965   YX=   -17.3522   ZX=    -3.8032
   XY=   -25.7309   YY=   112.9242   ZY=     5.3139
   XZ=   -14.6732   YZ=    11.1197   ZZ=    82.8389
   Eigenvalues:    80.2276    95.1382   141.5938
      4  O    Isotropic =   330.1809   Anisotropy =    31.9894
   XX=   322.1360   YX=   -13.0281   ZX=    -3.7367
   XY=   -11.7810   YY=   325.7419   ZY=    28.3744
   XZ=     8.2950   YZ=     0.2243   ZZ=   342.6648
   Eigenvalues:   307.5776   331.4580   351.5072
      5  C    Isotropic =   129.2286   Anisotropy =    84.1927
   XX=   137.2389   YX=   -16.1664   ZX=    43.5065
   XY=   -20.7445   YY=   117.7635   ZY=    -9.7138
   XZ=    44.0466   YZ=   -12.4706   ZZ=   132.6834
   Eigenvalues:    90.1642   112.1644   185.3571
      6  H    Isotropic =    32.2835   Anisotropy =    14.7506
   XX=    32.2717   YX=    -2.0023   ZX=     7.1940
   XY=    -1.6753   YY=    29.1011   ZY=    -0.5796
   XZ=     8.0971   YZ=    -2.5318   ZZ=    35.4777
   Eigenvalues:    25.9904    28.7428    42.1172
      7  H    Isotropic =    30.7752   Anisotropy =    11.5964
   XX=    32.5825   YX=    -3.0553   ZX=    -0.6533
   XY=    -3.7610   YY=    33.9800   ZY=     4.9930
   XZ=    -1.9271   YZ=     4.8304   ZZ=    25.7631
   Eigenvalues:    23.4588    30.3607    38.5061
      8  H    Isotropic =    28.8979   Anisotropy =     6.7017
   XX=    28.3315   YX=     1.6845   ZX=     1.1365
   XY=     1.7802   YY=    25.3931   ZY=     0.0147
   XZ=     1.6857   YZ=    -1.1674   ZZ=    32.9690
   Eigenvalues:    24.4408    28.8872    33.3657
      9  H    Isotropic =    29.6665   Anisotropy =     8.3395
   XX=    30.1450   YX=    -0.8408   ZX=    -1.9857
   XY=    -2.6355   YY=    31.1774   ZY=     4.3195
   XZ=    -2.4713   YZ=     3.6848   ZZ=    27.6770
   Eigenvalues:    24.8725    28.9008    35.2262
     10  H    Isotropic =    28.4561   Anisotropy =     7.9337
   XX=    28.4605   YX=    -3.6314   ZX=     0.2779
   XY=    -3.1362   YY=    30.1478   ZY=    -4.1526
   XZ=    -0.5732   YZ=    -2.3573   ZZ=    26.7599
   Eigenvalues:    23.8228    27.8002    33.7452
     11  H    Isotropic =    28.7229   Anisotropy =     5.8537
   XX=    28.6997   YX=     0.3618   ZX=    -1.7371
   XY=     1.6409   YY=    32.1025   ZY=     1.7967
   XZ=    -0.0642   YZ=     1.4093   ZZ=    25.3664
   Eigenvalues:    24.6966    28.8467    32.6254
     12  H    Isotropic =    29.1738   Anisotropy =     8.8583
   XX=    31.8387   YX=     2.9137   ZX=     4.0544
   XY=     0.9516   YY=    26.9127   ZY=    -0.6701
   XZ=     3.9969   YZ=     1.9273   ZZ=    28.7699
   Eigenvalues:    25.6140    26.8280    35.0793
     13  H    Isotropic =    28.4640   Anisotropy =     8.3645
   XX=    28.1725   YX=    -2.1439   ZX=     3.1537
   XY=    -0.6465   YY=    27.2967   ZY=    -4.3047
   XZ=     0.8290   YZ=    -4.1437   ZZ=    29.9228
   Eigenvalues:    24.1852    27.1664    34.0403
     14  H    Isotropic =    28.4530   Anisotropy =     9.0721
   XX=    31.2031   YX=    -4.4171   ZX=     0.0209
   XY=    -4.4960   YY=    28.1523   ZY=     0.7970
   XZ=     2.1557   YZ=    -1.1160   ZZ=    26.0035
   Eigenvalues:    24.7484    26.1095    34.5010
 End of Minotr F.D. properties file   721 does not exist.
 End of Minotr F.D. properties file   722 does not exist.
 End of Minotr F.D. properties file   788 does not exist.

 **********************************************************************

            Population analysis using the SCF Density.

 **********************************************************************

 Orbital symmetries:
       Occupied  (A) (A) (A) (A) (A) (A) (A) (A) (A) (A) (A) (A)
                 (A) (A) (A) (A) (A) (A) (A) (A) (A)
       Virtual   (A) (A) (A) (A) (A) (A) (A) (A) (A) (A) (A) (A)
                 (A) (A) (A) (A) (A) (A) (A) (A) (A) (A) (A) (A)
                 (A) (A) (A) (A) (A) (A) (A) (A) (A) (A) (A) (A)
                 (A) (A) (A) (A) (A) (A) (A) (A) (A) (A) (A) (A)
                 (A) (A) (A) (A) (A) (A) (A) (A) (A) (A) (A) (A)
                 (A) (A) (A) (A) (A) (A) (A) (A) (A) (A) (A) (A)
                 (A) (A) (A) (A) (A) (A) (A) (A) (A) (A) (A) (A)
                 (A) (A) (A) (A) (A) (A) (A) (A) (A) (A) (A) (A)
                 (A) (A) (A) (A) (A) (A) (A) (A) (A) (A) (A) (A)
                 (A) (A) (A) (A) (A) (A) (A) (A) (A) (A) (A) (A)
                 (A) (A) (A) (A) (A) (A) (A) (A) (A) (A) (A) (A)
                 (A) (A) (A) (A) (A) (A) (A) (A) (A) (A) (A) (A)
                 (A) (A) (A) (A) (A) (A) (A) (A) (A) (A) (A) (A)
                 (A) (A) (A) (A) (A) (A) (A) (A) (A) (A) (A) (A)
                 (A) (A) (A) (A) (A) (A) (A) (A) (A) (A) (A) (A)
                 (A) (A) (A) (A) (A) (A) (A) (A)
 The electronic state is 1-A.
 Alpha  occ. eigenvalues --  -19.63109 -14.72291 -10.58259 -10.58089 -10.55855
 Alpha  occ. eigenvalues --   -1.15832  -0.98488  -0.83310  -0.76907  -0.68234
 Alpha  occ. eigenvalues --   -0.58261  -0.55958  -0.54332  -0.53161  -0.48030
 Alpha  occ. eigenvalues --   -0.47278  -0.44934  -0.41360  -0.38817  -0.34762
 Alpha  occ. eigenvalues --   -0.30423
 Alpha virt. eigenvalues --    0.06331   0.08894   0.09892   0.11139   0.12522
 Alpha virt. eigenvalues --    0.13754   0.14949   0.15482   0.16453   0.17998
 Alpha virt. eigenvalues --    0.20325   0.21679   0.24319   0.25145   0.26683
 Alpha virt. eigenvalues --    0.30601   0.33385   0.34791   0.35259   0.37383
 Alpha virt. eigenvalues --    0.38641   0.39418   0.41032   0.42094   0.43673
 Alpha virt. eigenvalues --    0.45289   0.46397   0.48257   0.50253   0.51104
 Alpha virt. eigenvalues --    0.51529   0.53228   0.54421   0.56801   0.58836
 Alpha virt. eigenvalues --    0.60585   0.61489   0.63604   0.68279   0.71947
 Alpha virt. eigenvalues --    0.74102   0.76462   0.78003   0.82427   0.85533
 Alpha virt. eigenvalues --    0.89921   0.92243   0.97029   0.98384   1.04214
 Alpha virt. eigenvalues --    1.06535   1.07381   1.12787   1.13336   1.16743
 Alpha virt. eigenvalues --    1.20110   1.22100   1.27456   1.32621   1.35315
 Alpha virt. eigenvalues --    1.42984   1.46169   1.48345   1.53498   1.54252
 Alpha virt. eigenvalues --    1.57089   1.58201   1.59036   1.60069   1.61981
 Alpha virt. eigenvalues --    1.63834   1.67549   1.70974   1.73717   1.76460
 Alpha virt. eigenvalues --    1.79695   1.83072   1.87142   1.90190   1.91640
 Alpha virt. eigenvalues --    1.93811   1.97447   1.99306   2.00390   2.02715
 Alpha virt. eigenvalues --    2.04083   2.06448   2.09820   2.11147   2.13365
 Alpha virt. eigenvalues --    2.18135   2.25932   2.28540   2.30818   2.31799
 Alpha virt. eigenvalues --    2.34630   2.35496   2.41959   2.43728   2.45663
 Alpha virt. eigenvalues --    2.48088   2.49678   2.50270   2.53159   2.55453
 Alpha virt. eigenvalues --    2.59722   2.61271   2.62456   2.66101   2.67042
 Alpha virt. eigenvalues --    2.69628   2.70804   2.72601   2.76742   2.82672
 Alpha virt. eigenvalues --    2.88030   2.89525   2.97893   2.98158   3.01130
 Alpha virt. eigenvalues --    3.04812   3.08829   3.12088   3.12856   3.18311
 Alpha virt. eigenvalues --    3.19833   3.22604   3.23111   3.24667   3.28931
 Alpha virt. eigenvalues --    3.32837   3.34991   3.35354   3.37784   3.42028
 Alpha virt. eigenvalues --    3.43381   3.48101   3.51387   3.57640   3.60215
 Alpha virt. eigenvalues --    3.62371   3.70971   3.77779   3.79353   3.83235
 Alpha virt. eigenvalues --    3.84770   3.89539   3.92921   3.98035   4.13821
 Alpha virt. eigenvalues --    4.16691   4.22650   4.26573   4.32204   4.32703
 Alpha virt. eigenvalues --    4.37349   4.40534   4.45804   4.48794   4.65887
 Alpha virt. eigenvalues --    4.71639   4.79205   4.80944   4.86359   4.91429
 Alpha virt. eigenvalues --    5.05662   5.08437   5.15219   5.25964   5.37468
 Alpha virt. eigenvalues --    5.41369   5.50479   5.72155   5.74301   5.82761
 Alpha virt. eigenvalues --    5.85237   6.10118   6.13397   6.68133   6.69667
 Alpha virt. eigenvalues --    6.87332   7.15945   7.17934  22.41462  22.50887
 Alpha virt. eigenvalues --   22.57214  32.05521  44.12643
          Condensed to atoms (all electrons):
               1          2          3          4          5          6
     1  N    6.641747   0.226958  -0.042069  -0.002752  -0.000380   0.371484
     2  C    0.226958   5.193797   0.292507  -0.070574   0.013389  -0.064724
     3  C   -0.042069   0.292507   4.996306   0.236882  -0.079640   0.005985
     4  O   -0.002752  -0.070574   0.236882   8.105803   0.231069  -0.000234
     5  C   -0.000380   0.013389  -0.079640   0.231069   4.853956   0.000078
     6  H    0.371484  -0.064724   0.005985  -0.000234   0.000078   0.498107
     7  H    0.381372  -0.067656  -0.003721   0.015768  -0.000555  -0.036073
     8  H   -0.041669   0.400803  -0.054616  -0.000940  -0.000502   0.010001
     9  H   -0.025294   0.406183  -0.053380   0.006102   0.000270  -0.008665
    10  H   -0.004660  -0.040025   0.396537  -0.040135   0.009074   0.003287
    11  H    0.013618  -0.107645   0.435871  -0.038515  -0.011068   0.000565
    12  H    0.000379  -0.012213  -0.003361  -0.040006   0.414369   0.000016
    13  H   -0.001043   0.022837  -0.009626  -0.049408   0.415106  -0.000211
    14  H    0.000097  -0.000507   0.007449  -0.033954   0.403751   0.000033
               7          8          9         10         11         12
     1  N    0.381372  -0.041669  -0.025294  -0.004660   0.013618   0.000379
     2  C   -0.067656   0.400803   0.406183  -0.040025  -0.107645  -0.012213
     3  C   -0.003721  -0.054616  -0.053380   0.396537   0.435871  -0.003361
     4  O    0.015768  -0.000940   0.006102  -0.040135  -0.038515  -0.040006
     5  C   -0.000555  -0.000502   0.000270   0.009074  -0.011068   0.414369
     6  H   -0.036073   0.010001  -0.008665   0.003287   0.000565   0.000016
     7  H    0.471862  -0.004955   0.009222  -0.000602   0.001145   0.000535
     8  H   -0.004955   0.562796  -0.020407   0.006853   0.003656   0.001403
     9  H    0.009222  -0.020407   0.546118  -0.002440   0.005552   0.000272
    10  H   -0.000602   0.006853  -0.002440   0.562876  -0.021946   0.000654
    11  H    0.001145   0.003656   0.005552  -0.021946   0.586145   0.010484
    12  H    0.000535   0.001403   0.000272   0.000654   0.010484   0.581360
    13  H   -0.001751  -0.010350  -0.000763  -0.001414  -0.003815  -0.058960
    14  H   -0.000196   0.000511   0.000024   0.000092   0.000027  -0.022751
              13         14
     1  N   -0.001043   0.000097
     2  C    0.022837  -0.000507
     3  C   -0.009626   0.007449
     4  O   -0.049408  -0.033954
     5  C    0.415106   0.403751
     6  H   -0.000211   0.000033
     7  H   -0.001751  -0.000196
     8  H   -0.010350   0.000511
     9  H   -0.000763   0.000024
    10  H   -0.001414   0.000092
    11  H   -0.003815   0.000027
    12  H   -0.058960  -0.022751
    13  H    0.594806  -0.029154
    14  H   -0.029154   0.530430
 Mulliken charges:
               1
     1  N   -0.517787
     2  C   -0.193131
     3  C   -0.125124
     4  O   -0.319105
     5  C   -0.248916
     6  H    0.220351
     7  H    0.235603
     8  H    0.147417
     9  H    0.137206
    10  H    0.131849
    11  H    0.125926
    12  H    0.127819
    13  H    0.133745
    14  H    0.144146
 Sum of Mulliken charges =  -0.00000
 Mulliken charges with hydrogens summed into heavy atoms:
               1
     1  N   -0.061833
     2  C    0.091492
     3  C    0.132652
     4  O   -0.319105
     5  C    0.156794
 Electronic spatial extent (au):  <R**2>=            504.7286
 Charge=              0.0000 electrons
 Dipole moment (field-independent basis, Debye):
    X=              0.9137    Y=              1.0715    Z=              0.3716  Tot=              1.4564
 Quadrupole moment (field-independent basis, Debye-Ang):
   XX=            -34.2755   YY=            -32.0393   ZZ=            -32.8993
   XY=             -3.9790   XZ=              4.2898   YZ=              0.7682
 Traceless Quadrupole moment (field-independent basis, Debye-Ang):
   XX=             -1.2042   YY=              1.0321   ZZ=              0.1721
   XY=             -3.9790   XZ=              4.2898   YZ=              0.7682
 Octapole moment (field-independent basis, Debye-Ang**2):
  XXX=             14.5040  YYY=             -0.5352  ZZZ=             -3.1779  XYY=              4.2667
  XXY=              6.1840  XXZ=             -5.8705  XZZ=             -3.4111  YZZ=             -0.6080
  YYZ=             -2.7564  XYZ=             -1.5711
 Hexadecapole moment (field-independent basis, Debye-Ang**3):
 XXXX=           -443.4154 YYYY=           -136.6711 ZZZZ=            -97.8629 XXXY=            -27.5211
 XXXZ=             16.0340 YYYX=             -4.2583 YYYZ=              3.7787 ZZZX=              4.0146
 ZZZY=             -0.9809 XXYY=           -100.7027 XXZZ=            -85.6576 YYZZ=            -37.5982
 XXYZ=              7.4800 YYXZ=              2.0898 ZZXY=             -0.0010
 N-N= 1.950095008339D+02 E-N=-9.726462406675D+02  KE= 2.483721566801D+02
 Unable to Open any file for archive entry.
 1\1\GINC-NOTCH224\SP\RM062X\def2TZVP\C3H9N1O1\U6032257\21-Feb-2022\0\\
 # M062X/def2tzvp int=(grid=ultrafine) nmr=giao guess=read geom=check\\
 N1.xyz\\0,1\N,0,-0.4457555193,-1.0890096756,-2.0481856489\C,0,0.512432
 3588,-0.0971958348,-1.5603622865\C,0,1.0314141382,-0.3597118552,-0.142
 2405936\O,0,-0.0229085497,-0.4930690671,0.8036263867\C,0,-0.5853474559
 ,0.7407700496,1.2070844455\H,0,0.0220561531,-1.9901454607,-2.133754575
 6\H,0,-1.1491434462,-1.2211611053,-1.3228002347\H,0,0.0345976032,0.889
 3799458,-1.6030489779\H,0,1.3654749435,-0.0523971591,-2.2480280281\H,0
 ,1.5685866241,-1.3151754493,-0.1173817357\H,0,1.7331478576,0.431505920
 7,0.1710150731\H,0,0.1785283808,1.4113850992,1.6297549832\H,0,-1.08887
 09543,1.2688510833,0.3849638287\H,0,-1.3249121338,0.5169735085,1.97925
 73639\\Version=ES64L-G16RevC.01\State=1-A\HF=-249.6698927\RMSD=1.996e-
 09\Dipole=0.3745801,0.2955348,0.3172833\Quadrupole=1.4119869,2.1230082
 ,-3.5349951,-0.8323029,-2.6341419,1.6801602\PG=C01 [X(C3H9N1O1)]\\@
 The archive entry for this job was punched.


 GROWING OLD ISN'T SO BAD -- WHEN YOU CONSIDER THE ALTERNATIVE.

                     -- MAURICE CHEVALIER
 Job cpu time:       0 days  0 hours  5 minutes 40.9 seconds.
 Elapsed time:       0 days  0 hours  0 minutes  8.2 seconds.
 File lengths (MBytes):  RWF=     30 Int=      0 D2E=      0 Chk=      5 Scr=      1
 Normal termination of Gaussian 16 at Mon Feb 21 19:00:38 2022.
