 Entering Gaussian System, Link 0=/uufs/chpc.utah.edu/sys/installdir/gaussian16/C01/AVX2/g16/g16
 Input=N1_conf-8.com
 Output=N1_conf-8.log
 Initial command:
 /uufs/chpc.utah.edu/sys/installdir/gaussian16/C01/AVX2/g16/l1.exe "/scratch/local/u6032257/4038471/notchpeak.peaks/Gau-243051.inp" -scrdir="/scratch/local/u6032257/4038471/notchpeak.peaks/"
 Entering Link 1 = /uufs/chpc.utah.edu/sys/installdir/gaussian16/C01/AVX2/g16/l1.exe PID=    243053.
  
 Copyright (c) 1988-2019, Gaussian, Inc.  All Rights Reserved.
  
 This is part of the Gaussian(R) 16 program.  It is based on
 the Gaussian(R) 09 system (copyright 2009, Gaussian, Inc.),
 the Gaussian(R) 03 system (copyright 2003, Gaussian, Inc.),
 the Gaussian(R) 98 system (copyright 1998, Gaussian, Inc.),
 the Gaussian(R) 94 system (copyright 1995, Gaussian, Inc.),
 the Gaussian 92(TM) system (copyright 1992, Gaussian, Inc.),
 the Gaussian 90(TM) system (copyright 1990, Gaussian, Inc.),
 the Gaussian 88(TM) system (copyright 1988, Gaussian, Inc.),
 the Gaussian 86(TM) system (copyright 1986, Carnegie Mellon
 University), and the Gaussian 82(TM) system (copyright 1983,
 Carnegie Mellon University). Gaussian is a federally registered
 trademark of Gaussian, Inc.
  
 This software contains proprietary and confidential information,
 including trade secrets, belonging to Gaussian, Inc.
  
 This software is provided under written license and may be
 used, copied, transmitted, or stored only in accord with that
 written license.
  
 The following legend is applicable only to US Government
 contracts under FAR:
  
                    RESTRICTED RIGHTS LEGEND
  
 Use, reproduction and disclosure by the US Government is
 subject to restrictions as set forth in subparagraphs (a)
 and (c) of the Commercial Computer Software - Restricted
 Rights clause in FAR 52.227-19.
  
 Gaussian, Inc.
 340 Quinnipiac St., Bldg. 40, Wallingford CT 06492
  
  
 ---------------------------------------------------------------
 Warning -- This program may not be used in any manner that
 competes with the business of Gaussian, Inc. or will provide
 assistance to any competitor of Gaussian, Inc.  The licensee
 of this program is prohibited from giving any competitor of
 Gaussian, Inc. access to this program.  By using this program,
 the user acknowledges that Gaussian, Inc. is engaged in the
 business of creating and licensing software in the field of
 computational chemistry and represents and warrants to the
 licensee that it is not a competitor of Gaussian, Inc. and that
 it will not use this program in any manner prohibited above.
 ---------------------------------------------------------------
  

 Cite this work as:
 Gaussian 16, Revision C.01,
 M. J. Frisch, G. W. Trucks, H. B. Schlegel, G. E. Scuseria, 
 M. A. Robb, J. R. Cheeseman, G. Scalmani, V. Barone, 
 G. A. Petersson, H. Nakatsuji, X. Li, M. Caricato, A. V. Marenich, 
 J. Bloino, B. G. Janesko, R. Gomperts, B. Mennucci, H. P. Hratchian, 
 J. V. Ortiz, A. F. Izmaylov, J. L. Sonnenberg, D. Williams-Young, 
 F. Ding, F. Lipparini, F. Egidi, J. Goings, B. Peng, A. Petrone, 
 T. Henderson, D. Ranasinghe, V. G. Zakrzewski, J. Gao, N. Rega, 
 G. Zheng, W. Liang, M. Hada, M. Ehara, K. Toyota, R. Fukuda, 
 J. Hasegawa, M. Ishida, T. Nakajima, Y. Honda, O. Kitao, H. Nakai, 
 T. Vreven, K. Throssell, J. A. Montgomery, Jr., J. E. Peralta, 
 F. Ogliaro, M. J. Bearpark, J. J. Heyd, E. N. Brothers, K. N. Kudin, 
 V. N. Staroverov, T. A. Keith, R. Kobayashi, J. Normand, 
 K. Raghavachari, A. P. Rendell, J. C. Burant, S. S. Iyengar, 
 J. Tomasi, M. Cossi, J. M. Millam, M. Klene, C. Adamo, R. Cammi, 
 J. W. Ochterski, R. L. Martin, K. Morokuma, O. Farkas, 
 J. B. Foresman, and D. J. Fox, Gaussian, Inc., Wallingford CT, 2019.
 
 ******************************************
 Gaussian 16:  ES64L-G16RevC.01  3-Jul-2019
                21-Feb-2022 
 ******************************************
 %NProcShared=32
 Will use up to   32 processors via shared memory.
 %mem=16GB
 %chk=N1_conf-8.chk
 ----------------------------------------------------------------------
 # B3LYP/6-31G(d,p) empiricaldispersion=GD3BJ int=(grid=ultrafine) opt 
 freq=noraman
 ----------------------------------------------------------------------
 1/18=20,19=15,26=4,38=1/1,3;
 2/9=110,12=2,17=6,18=5,40=1/2;
 3/5=1,6=6,7=101,11=2,25=1,30=1,71=1,74=-5,75=-5,124=41/1,2,3;
 4//1;
 5/5=2,38=5/2;
 6/7=2,8=2,9=2,10=2,28=1/1;
 7//1,2,3,16;
 1/18=20,19=15,26=4/3(2);
 2/9=110/2;
 99//99;
 2/9=110/2;
 3/5=1,6=6,7=101,11=2,25=1,30=1,71=1,74=-5,75=-5,124=41/1,2,3;
 4/5=5,16=3,69=1/1;
 5/5=2,38=5/2;
 7//1,2,3,16;
 1/18=20,19=15,26=4/3(-5);
 2/9=110/2;
 6/7=2,8=2,9=2,10=2,19=2,28=1/1;
 99/9=1/99;
 ------
 N1.xyz
 ------
 Symbolic Z-matrix:
 Charge =  0 Multiplicity = 1
 N                    -0.2822   -1.289    -2.1711 
 C                     0.6699   -0.2888   -1.6939 
 C                     0.8083   -0.2942   -0.1568 
 O                    -0.3408    0.292     0.4449 
 C                    -0.3111    0.2877    1.8639 
 H                    -0.3375   -1.3005   -3.1799 
 H                    -0.0259   -2.2195   -1.8733 
 H                     1.645    -0.4802   -2.1457 
 H                     0.3561    0.703    -2.0263 
 H                     0.9604   -1.313     0.2059 
 H                     1.6897    0.2861    0.1218 
 H                     0.5408    0.8512    2.2477 
 H                    -0.2669   -0.7285    2.2587 
 H                    -1.2188    0.754     2.2473 
 

 GradGradGradGradGradGradGradGradGradGradGradGradGradGradGradGradGradGrad
 Berny optimization.
 Initialization pass.
                           ----------------------------
                           !    Initial Parameters    !
                           ! (Angstroms and Degrees)  !
 --------------------------                            --------------------------
 ! Name  Definition              Value          Derivative Info.                !
 --------------------------------------------------------------------------------
 ! R1    R(1,2)                  1.461          estimate D2E/DX2                !
 ! R2    R(1,6)                  1.0104         estimate D2E/DX2                !
 ! R3    R(1,7)                  1.0101         estimate D2E/DX2                !
 ! R4    R(2,3)                  1.5433         estimate D2E/DX2                !
 ! R5    R(2,8)                  1.0916         estimate D2E/DX2                !
 ! R6    R(2,9)                  1.0921         estimate D2E/DX2                !
 ! R7    R(3,4)                  1.4234         estimate D2E/DX2                !
 ! R8    R(3,10)                 1.0921         estimate D2E/DX2                !
 ! R9    R(3,11)                 1.0914         estimate D2E/DX2                !
 ! R10   R(4,5)                  1.4193         estimate D2E/DX2                !
 ! R11   R(5,12)                 1.0911         estimate D2E/DX2                !
 ! R12   R(5,13)                 1.0911         estimate D2E/DX2                !
 ! R13   R(5,14)                 1.0901         estimate D2E/DX2                !
 ! A1    A(2,1,6)              111.6889         estimate D2E/DX2                !
 ! A2    A(2,1,7)              111.6545         estimate D2E/DX2                !
 ! A3    A(6,1,7)              107.3242         estimate D2E/DX2                !
 ! A4    A(1,2,3)              112.417          estimate D2E/DX2                !
 ! A5    A(1,2,8)              109.0806         estimate D2E/DX2                !
 ! A6    A(1,2,9)              109.5762         estimate D2E/DX2                !
 ! A7    A(3,2,8)              109.3599         estimate D2E/DX2                !
 ! A8    A(3,2,9)              109.3958         estimate D2E/DX2                !
 ! A9    A(8,2,9)              106.8544         estimate D2E/DX2                !
 ! A10   A(2,3,4)              110.3146         estimate D2E/DX2                !
 ! A11   A(2,3,10)             110.2754         estimate D2E/DX2                !
 ! A12   A(2,3,11)             108.9528         estimate D2E/DX2                !
 ! A13   A(4,3,10)             110.8692         estimate D2E/DX2                !
 ! A14   A(4,3,11)             108.9696         estimate D2E/DX2                !
 ! A15   A(10,3,11)            107.383          estimate D2E/DX2                !
 ! A16   A(3,4,5)              113.8586         estimate D2E/DX2                !
 ! A17   A(4,5,12)             111.4962         estimate D2E/DX2                !
 ! A18   A(4,5,13)             111.4339         estimate D2E/DX2                !
 ! A19   A(4,5,14)             109.4453         estimate D2E/DX2                !
 ! A20   A(12,5,13)            108.7891         estimate D2E/DX2                !
 ! A21   A(12,5,14)            107.7873         estimate D2E/DX2                !
 ! A22   A(13,5,14)            107.7499         estimate D2E/DX2                !
 ! D1    D(6,1,2,3)           -177.7819         estimate D2E/DX2                !
 ! D2    D(6,1,2,8)            -56.3063         estimate D2E/DX2                !
 ! D3    D(6,1,2,9)             60.3493         estimate D2E/DX2                !
 ! D4    D(7,1,2,3)            -57.6027         estimate D2E/DX2                !
 ! D5    D(7,1,2,8)             63.873          estimate D2E/DX2                !
 ! D6    D(7,1,2,9)           -179.4714         estimate D2E/DX2                !
 ! D7    D(1,2,3,4)            -74.0334         estimate D2E/DX2                !
 ! D8    D(1,2,3,10)            48.7671         estimate D2E/DX2                !
 ! D9    D(1,2,3,11)           166.3875         estimate D2E/DX2                !
 ! D10   D(8,2,3,4)            164.6504         estimate D2E/DX2                !
 ! D11   D(8,2,3,10)           -72.549          estimate D2E/DX2                !
 ! D12   D(8,2,3,11)            45.0713         estimate D2E/DX2                !
 ! D13   D(9,2,3,4)             47.9378         estimate D2E/DX2                !
 ! D14   D(9,2,3,10)           170.7384         estimate D2E/DX2                !
 ! D15   D(9,2,3,11)           -71.6413         estimate D2E/DX2                !
 ! D16   D(2,3,4,5)            178.1267         estimate D2E/DX2                !
 ! D17   D(10,3,4,5)            55.6744         estimate D2E/DX2                !
 ! D18   D(11,3,4,5)           -62.3043         estimate D2E/DX2                !
 ! D19   D(3,4,5,12)            60.6457         estimate D2E/DX2                !
 ! D20   D(3,4,5,13)           -61.1231         estimate D2E/DX2                !
 ! D21   D(3,4,5,14)           179.8039         estimate D2E/DX2                !
 --------------------------------------------------------------------------------
 Trust Radius=3.00D-01 FncErr=1.00D-07 GrdErr=1.00D-06 EigMax=2.50D+02 EigMin=1.00D-04
 Number of steps in this run=     66 maximum allowed number of steps=    100.
 GradGradGradGradGradGradGradGradGradGradGradGradGradGradGradGradGradGrad

                          Input orientation:                          
 ---------------------------------------------------------------------
 Center     Atomic      Atomic             Coordinates (Angstroms)
 Number     Number       Type             X           Y           Z
 ---------------------------------------------------------------------
      1          7           0       -0.282200   -1.289000   -2.171100
      2          6           0        0.669900   -0.288800   -1.693900
      3          6           0        0.808300   -0.294200   -0.156800
      4          8           0       -0.340800    0.292000    0.444900
      5          6           0       -0.311100    0.287700    1.863900
      6          1           0       -0.337500   -1.300500   -3.179900
      7          1           0       -0.025900   -2.219500   -1.873300
      8          1           0        1.645000   -0.480200   -2.145700
      9          1           0        0.356100    0.703000   -2.026300
     10          1           0        0.960400   -1.313000    0.205900
     11          1           0        1.689700    0.286100    0.121800
     12          1           0        0.540800    0.851200    2.247700
     13          1           0       -0.266900   -0.728500    2.258700
     14          1           0       -1.218800    0.754000    2.247300
 ---------------------------------------------------------------------
                    Distance matrix (angstroms):
                    1          2          3          4          5
     1  N    0.000000
     2  C    1.461032   0.000000
     3  C    2.497243   1.543328   0.000000
     4  O    3.057197   2.435838   1.423413   0.000000
     5  C    4.332210   3.735325   2.382203   1.419317   0.000000
     6  H    1.010380   2.060725   3.385946   3.959197   5.288005
     7  H    1.010052   2.060079   2.710912   3.432324   4.509330
     8  H    2.090192   1.091594   2.165730   3.354237   4.526907
     9  H    2.096773   1.092075   2.166546   2.600273   3.968789
    10  H    2.682305   2.177755   1.092080   2.079968   2.632094
    11  H    3.409798   2.160386   1.091436   2.056054   2.652945
    12  H    4.978311   4.105177   2.676774   2.083269   1.091132
    13  H    4.465145   4.085826   2.679424   2.082487   1.091093
    14  H    4.957149   4.493070   3.314748   2.057419   1.090115
                    6          7          8          9         10
     6  H    0.000000
     7  H    1.627532   0.000000
     8  H    2.381757   2.427194   0.000000
     9  H    2.413687   2.951328   1.753705   0.000000
    10  H    3.626064   2.473379   2.586939   3.067923   0.000000
    11  H    4.186653   3.633420   2.393903   2.562543   1.759566
    12  H    5.904241   5.170395   4.721636   4.280555   3.004792
    13  H    5.469053   4.399385   4.807885   4.560542   2.462091
    14  H    5.869596   5.219584   5.387304   4.554840   3.631627
                   11         12         13         14
    11  H    0.000000
    12  H    2.481685   0.000000
    13  H    3.069860   1.774247   0.000000
    14  H    3.632637   1.762283   1.761831   0.000000
 Stoichiometry    C3H9NO
 Framework group  C1[X(C3H9NO)]
 Deg. of freedom    36
 Full point group                 C1      NOp   1
 Largest Abelian subgroup         C1      NOp   1
 Largest concise Abelian subgroup C1      NOp   1
                         Standard orientation:                         
 ---------------------------------------------------------------------
 Center     Atomic      Atomic             Coordinates (Angstroms)
 Number     Number       Type             X           Y           Z
 ---------------------------------------------------------------------
      1          7           0        2.015458   -0.720708    0.080804
      2          6           0        1.345472    0.536704   -0.242688
      3          6           0       -0.085845    0.605349    0.330443
      4          8           0       -0.959861   -0.229281   -0.421616
      5          6           0       -2.291656   -0.255244    0.068394
      6          1           0        2.963352   -0.739378   -0.268505
      7          1           0        2.059405   -0.873761    1.078225
      8          1           0        1.933887    1.366645    0.152968
      9          1           0        1.308500    0.663269   -1.326774
     10          1           0       -0.085640    0.319005    1.384315
     11          1           0       -0.441870    1.635456    0.272502
     12          1           0       -2.744451    0.737302    0.048455
     13          1           0       -2.333769   -0.640294    1.088416
     14          1           0       -2.896561   -0.909897   -0.559197
 ---------------------------------------------------------------------
 Rotational constants (GHZ):          13.8588342           2.4261573           2.2784690
 Standard basis: 6-31G(d,p) (6D, 7F)
 There are   120 symmetry adapted cartesian basis functions of A   symmetry.
 There are   120 symmetry adapted basis functions of A   symmetry.
   120 basis functions,   203 primitive gaussians,   120 cartesian basis functions
    21 alpha electrons       21 beta electrons
       nuclear repulsion energy       190.2724174332 Hartrees.
 NAtoms=   14 NActive=   14 NUniq=   14 SFac= 1.00D+00 NAtFMM=   60 NAOKFM=F Big=F
 Integral buffers will be    131072 words long.
 Raffenetti 2 integral format.
 Two-electron integral symmetry is turned on.
 Nuclear repulsion after empirical dispersion term =      190.2582892178 Hartrees.
 One-electron integrals computed using PRISM.
 NBasis=   120 RedAO= T EigKep=  4.69D-03  NBF=   120
 NBsUse=   120 1.00D-06 EigRej= -1.00D+00 NBFU=   120
 ExpMin= 1.61D-01 ExpMax= 5.48D+03 ExpMxC= 8.25D+02 IAcc=3 IRadAn=         5 AccDes= 0.00D+00
 Harris functional with IExCor=  402 and IRadAn=       5 diagonalized for initial guess.
 HarFok:  IExCor=  402 AccDes= 0.00D+00 IRadAn=         5 IDoV= 1 UseB2=F ITyADJ=14
 ICtDFT=  3500011 ScaDFX=  1.000000  1.000000  1.000000  1.000000
 FoFCou: FMM=F IPFlag=           0 FMFlag=      100000 FMFlg1=           0
         NFxFlg=           0 DoJE=T BraDBF=F KetDBF=T FulRan=T
         wScrn=  0.000000 ICntrl=       500 IOpCl=  0 I1Cent=   200000004 NGrid=           0
         NMat0=    1 NMatS0=      1 NMatT0=    0 NMatD0=    1 NMtDS0=    0 NMtDT0=    0
 Petite list used in FoFCou.
 Requested convergence on RMS density matrix=1.00D-08 within 128 cycles.
 Requested convergence on MAX density matrix=1.00D-06.
 Requested convergence on             energy=1.00D-06.
 No special actions if energy rises.
 Integral accuracy reduced to 1.0D-05 until final iterations.
 Initial convergence to 1.0D-05 achieved.  Increase integral accuracy.
 SCF Done:  E(RB3LYP) =  -249.707163423     A.U. after   12 cycles
            NFock= 12  Conv=0.91D-08     -V/T= 2.0093

 **********************************************************************

            Population analysis using the SCF Density.

 **********************************************************************

 Orbital symmetries:
       Occupied  (A) (A) (A) (A) (A) (A) (A) (A) (A) (A) (A) (A)
                 (A) (A) (A) (A) (A) (A) (A) (A) (A)
       Virtual   (A) (A) (A) (A) (A) (A) (A) (A) (A) (A) (A) (A)
                 (A) (A) (A) (A) (A) (A) (A) (A) (A) (A) (A) (A)
                 (A) (A) (A) (A) (A) (A) (A) (A) (A) (A) (A) (A)
                 (A) (A) (A) (A) (A) (A) (A) (A) (A) (A) (A) (A)
                 (A) (A) (A) (A) (A) (A) (A) (A) (A) (A) (A) (A)
                 (A) (A) (A) (A) (A) (A) (A) (A) (A) (A) (A) (A)
                 (A) (A) (A) (A) (A) (A) (A) (A) (A) (A) (A) (A)
                 (A) (A) (A) (A) (A) (A) (A) (A) (A) (A) (A) (A)
                 (A) (A) (A)
 The electronic state is 1-A.
 Alpha  occ. eigenvalues --  -19.13756 -14.30090 -10.22764 -10.22010 -10.20539
 Alpha  occ. eigenvalues --   -1.01717  -0.87118  -0.73355  -0.66160  -0.59753
 Alpha  occ. eigenvalues --   -0.49171  -0.48327  -0.46230  -0.43700  -0.42574
 Alpha  occ. eigenvalues --   -0.39642  -0.37233  -0.35267  -0.30480  -0.24725
 Alpha  occ. eigenvalues --   -0.21830
 Alpha virt. eigenvalues --    0.08333   0.10659   0.13698   0.14044   0.14397
 Alpha virt. eigenvalues --    0.16822   0.17583   0.18325   0.18822   0.19985
 Alpha virt. eigenvalues --    0.24070   0.24772   0.27292   0.51503   0.52144
 Alpha virt. eigenvalues --    0.54752   0.56357   0.57090   0.60465   0.63291
 Alpha virt. eigenvalues --    0.66891   0.72994   0.74016   0.80090   0.81413
 Alpha virt. eigenvalues --    0.81516   0.84844   0.87237   0.88150   0.90130
 Alpha virt. eigenvalues --    0.90234   0.92733   0.94092   0.94510   0.98903
 Alpha virt. eigenvalues --    1.03795   1.11188   1.14055   1.22279   1.32188
 Alpha virt. eigenvalues --    1.34830   1.39182   1.44395   1.47377   1.52745
 Alpha virt. eigenvalues --    1.57115   1.72565   1.74194   1.79987   1.83518
 Alpha virt. eigenvalues --    1.87541   1.90491   1.97410   1.97718   1.99471
 Alpha virt. eigenvalues --    1.99866   2.03699   2.04389   2.05912   2.10815
 Alpha virt. eigenvalues --    2.12637   2.14903   2.17070   2.24243   2.29991
 Alpha virt. eigenvalues --    2.32900   2.34251   2.41569   2.44454   2.53664
 Alpha virt. eigenvalues --    2.57422   2.59297   2.61466   2.64397   2.67438
 Alpha virt. eigenvalues --    2.70326   2.75360   2.77864   2.80293   2.85507
 Alpha virt. eigenvalues --    2.87240   2.93403   2.97325   3.00883   3.04466
 Alpha virt. eigenvalues --    3.19421   3.25403   3.31794   3.33489   3.40608
 Alpha virt. eigenvalues --    3.45060   3.45816   3.48612   3.57504   3.93073
 Alpha virt. eigenvalues --    3.97667   4.39392   4.45714   4.61132
          Condensed to atoms (all electrons):
               1          2          3          4          5          6
     1  N    6.753181   0.305047  -0.044962   0.003576  -0.000089   0.342837
     2  C    0.305047   4.812420   0.376239  -0.043695   0.004905  -0.033192
     3  C   -0.044962   0.376239   4.733090   0.248212  -0.033159   0.005575
     4  O    0.003576  -0.043695   0.248212   8.189156   0.264986  -0.000045
     5  C   -0.000089   0.004905  -0.033159   0.264986   4.700203   0.000006
     6  H    0.342837  -0.033192   0.005575  -0.000045   0.000006   0.492521
     7  H    0.342201  -0.038485  -0.006584  -0.000175  -0.000026  -0.035280
     8  H   -0.056911   0.368657  -0.043325   0.003072  -0.000196  -0.004268
     9  H   -0.042247   0.380335  -0.026124   0.000894  -0.000004  -0.003145
    10  H   -0.008811  -0.036598   0.356308  -0.041598  -0.006843   0.000007
    11  H    0.004262  -0.036029   0.359506  -0.042155  -0.006455  -0.000235
    12  H    0.000008  -0.000114  -0.008422  -0.039062   0.368320   0.000000
    13  H   -0.000027   0.000081  -0.009379  -0.038128   0.370080  -0.000001
    14  H    0.000010  -0.000233   0.005335  -0.030572   0.395069  -0.000000
               7          8          9         10         11         12
     1  N    0.342201  -0.056911  -0.042247  -0.008811   0.004262   0.000008
     2  C   -0.038485   0.368657   0.380335  -0.036598  -0.036029  -0.000114
     3  C   -0.006584  -0.043325  -0.026124   0.356308   0.359506  -0.008422
     4  O   -0.000175   0.003072   0.000894  -0.041598  -0.042155  -0.039062
     5  C   -0.000026  -0.000196  -0.000004  -0.006843  -0.006455   0.368320
     6  H   -0.035280  -0.004268  -0.003145   0.000007  -0.000235   0.000000
     7  H    0.499812  -0.004328   0.006396   0.005888  -0.000169   0.000000
     8  H   -0.004328   0.709845  -0.047823  -0.000494   0.002069   0.000010
     9  H    0.006396  -0.047823   0.610741   0.006180  -0.004117  -0.000032
    10  H    0.005888  -0.000494   0.006180   0.702725  -0.060962  -0.002726
    11  H   -0.000169   0.002069  -0.004117  -0.060962   0.695823   0.013165
    12  H    0.000000   0.000010  -0.000032  -0.002726   0.013165   0.674127
    13  H    0.000004   0.000012   0.000049   0.013911  -0.002519  -0.053468
    14  H    0.000000   0.000003  -0.000010  -0.000168  -0.000177  -0.038360
              13         14
     1  N   -0.000027   0.000010
     2  C    0.000081  -0.000233
     3  C   -0.009379   0.005335
     4  O   -0.038128  -0.030572
     5  C    0.370080   0.395069
     6  H   -0.000001  -0.000000
     7  H    0.000004   0.000000
     8  H    0.000012   0.000003
     9  H    0.000049  -0.000010
    10  H    0.013911  -0.000168
    11  H   -0.002519  -0.000177
    12  H   -0.053468  -0.038360
    13  H    0.667064  -0.037334
    14  H   -0.037334   0.591388
 Mulliken charges:
               1
     1  N   -0.598076
     2  C   -0.059337
     3  C    0.087692
     4  O   -0.474466
     5  C   -0.056797
     6  H    0.235221
     7  H    0.230746
     8  H    0.073678
     9  H    0.118906
    10  H    0.073181
    11  H    0.077993
    12  H    0.086554
    13  H    0.089656
    14  H    0.115048
 Sum of Mulliken charges =  -0.00000
 Mulliken charges with hydrogens summed into heavy atoms:
               1
     1  N   -0.132109
     2  C    0.133248
     3  C    0.238865
     4  O   -0.474466
     5  C    0.234462
 Electronic spatial extent (au):  <R**2>=            580.4533
 Charge=             -0.0000 electrons
 Dipole moment (field-independent basis, Debye):
    X=              0.4249    Y=              1.4390    Z=              1.5039  Tot=              2.1244
 Quadrupole moment (field-independent basis, Debye-Ang):
   XX=            -24.5187   YY=            -33.9877   ZZ=            -31.3767
   XY=              0.8526   XZ=              0.2039   YZ=             -1.3467
 Traceless Quadrupole moment (field-independent basis, Debye-Ang):
   XX=              5.4423   YY=             -4.0267   ZZ=             -1.4157
   XY=              0.8526   XZ=              0.2039   YZ=             -1.3467
 Octapole moment (field-independent basis, Debye-Ang**2):
  XXX=              8.4956  YYY=              0.4485  ZZZ=              0.1137  XYY=             -2.6365
  XXY=             -5.2632  XXZ=             -0.2790  XZZ=              3.5496  YZZ=             -1.9629
  YYZ=              0.5801  XYZ=             -2.0641
 Hexadecapole moment (field-independent basis, Debye-Ang**3):
 XXXX=           -492.1823 YYYY=           -113.5338 ZZZZ=            -67.2601 XXXY=             -8.4114
 XXXZ=              4.4255 YYYX=              1.1206 YYYZ=             -1.4089 ZZZX=              4.0509
 ZZZY=             -2.7877 XXYY=           -112.8379 XXZZ=           -102.1928 YYZZ=            -29.2531
 XXYZ=             -1.6596 YYXZ=              4.0607 ZZXY=             -1.5505
 N-N= 1.902582892178D+02 E-N=-9.625642952532D+02  KE= 2.474161959152D+02
 Calling FoFJK, ICntrl=      2127 FMM=F ISym2X=0 I1Cent= 0 IOpClX= 0 NMat=1 NMatS=1 NMatT=0.
 ***** Axes restored to original set *****
 -------------------------------------------------------------------
 Center     Atomic                   Forces (Hartrees/Bohr)
 Number     Number              X              Y              Z
 -------------------------------------------------------------------
      1        7          -0.014131796    0.005829794    0.006880830
      2        6          -0.001864021   -0.010753287    0.004035562
      3        6          -0.010206600    0.010217452   -0.007369936
      4        8          -0.003328609   -0.001400157   -0.000869494
      5        6           0.001498700   -0.001093184   -0.009719611
      6        1           0.001167944    0.001358811   -0.003590872
      7        1           0.003901821   -0.003532949    0.001652695
      8        1           0.012631054    0.004760138    0.004155265
      9        1          -0.002507737    0.001574190    0.001479437
     10        1           0.000466247   -0.007245408    0.001778124
     11        1           0.007447706    0.002481677    0.000685875
     12        1           0.006208496    0.002361643    0.002746851
     13        1           0.001678091   -0.006050940    0.002651841
     14        1          -0.002961297    0.001492219   -0.004516568
 -------------------------------------------------------------------
 Cartesian Forces:  Max     0.014131796 RMS     0.005553834

 GradGradGradGradGradGradGradGradGradGradGradGradGradGradGradGradGradGrad
 Berny optimization.
 FormGI is forming the generalized inverse of G from B-inverse, IUseBI=4.
 Internal  Forces:  Max     0.014484413 RMS     0.004666669
 Search for a local minimum.
 Step number   1 out of a maximum of   66
 All quantities printed in internal units (Hartrees-Bohrs-Radians)
 Mixed Optimization -- RFO/linear search
 Second derivative matrix not updated -- first step.
 ITU=  0
     Eigenvalues ---    0.00230   0.00884   0.01382   0.01436   0.03979
     Eigenvalues ---    0.04127   0.04950   0.05406   0.05825   0.09406
     Eigenvalues ---    0.10010   0.10297   0.11365   0.12844   0.13811
     Eigenvalues ---    0.16000   0.16000   0.16000   0.16000   0.16000
     Eigenvalues ---    0.21946   0.22003   0.25000   0.28226   0.34573
     Eigenvalues ---    0.34574   0.34629   0.34647   0.34682   0.34687
     Eigenvalues ---    0.34799   0.36835   0.41951   0.42563   0.45909
     Eigenvalues ---    0.45964
 RFO step:  Lambda=-6.39922666D-03 EMin= 2.30000000D-03
 Linear search not attempted -- first point.
 Iteration  1 RMS(Cart)=  0.06066443 RMS(Int)=  0.00108582
 Iteration  2 RMS(Cart)=  0.00132796 RMS(Int)=  0.00039428
 Iteration  3 RMS(Cart)=  0.00000073 RMS(Int)=  0.00039428
 Variable       Old X    -DE/DX   Delta X   Delta X   Delta X     New X
                                 (Linear)    (Quad)   (Total)
    R1        2.76095   0.00179   0.00000   0.00477   0.00477   2.76572
    R2        1.90934   0.00351   0.00000   0.00753   0.00753   1.91687
    R3        1.90872   0.00473   0.00000   0.01015   0.01015   1.91887
    R4        2.91647  -0.01448   0.00000  -0.05018  -0.05018   2.86629
    R5        2.06281   0.00873   0.00000   0.02475   0.02475   2.08756
    R6        2.06372   0.00170   0.00000   0.00483   0.00483   2.06855
    R7        2.68986  -0.00853   0.00000  -0.02004  -0.02004   2.66982
    R8        2.06373   0.00741   0.00000   0.02106   0.02106   2.08479
    R9        2.06251   0.00751   0.00000   0.02128   0.02128   2.08379
   R10        2.68212  -0.00869   0.00000  -0.02012  -0.02012   2.66200
   R11        2.06194   0.00703   0.00000   0.01991   0.01991   2.08185
   R12        2.06187   0.00666   0.00000   0.01886   0.01886   2.08073
   R13        2.06002   0.00152   0.00000   0.00428   0.00428   2.06429
    A1        1.94934  -0.00261   0.00000  -0.02312  -0.02358   1.92576
    A2        1.94874  -0.00383   0.00000  -0.03046  -0.03093   1.91781
    A3        1.87316   0.00208   0.00000  -0.00134  -0.00226   1.87090
    A4        1.96205  -0.00396   0.00000  -0.01832  -0.01885   1.94320
    A5        1.90382   0.01059   0.00000   0.10865   0.10891   2.01273
    A6        1.91247  -0.00092   0.00000  -0.02412  -0.02543   1.88703
    A7        1.90869  -0.00608   0.00000  -0.03904  -0.03945   1.86924
    A8        1.90932   0.00030   0.00000  -0.03124  -0.03256   1.87676
    A9        1.86496   0.00029   0.00000   0.00560   0.00436   1.86932
   A10        1.92535  -0.00508   0.00000  -0.02334  -0.02349   1.90186
   A11        1.92467   0.00035   0.00000  -0.00974  -0.01000   1.91466
   A12        1.90158   0.00029   0.00000   0.00420   0.00434   1.90593
   A13        1.93503   0.00115   0.00000  -0.00570  -0.00613   1.92890
   A14        1.90188   0.00378   0.00000   0.03393   0.03400   1.93587
   A15        1.87419  -0.00029   0.00000   0.00223   0.00222   1.87641
   A16        1.98721  -0.01000   0.00000  -0.03899  -0.03899   1.94821
   A17        1.94598   0.00160   0.00000   0.01014   0.01010   1.95608
   A18        1.94489   0.00154   0.00000   0.00979   0.00975   1.95464
   A19        1.91018  -0.00799   0.00000  -0.04902  -0.04903   1.86115
   A20        1.89873  -0.00101   0.00000  -0.00423  -0.00430   1.89443
   A21        1.88124   0.00300   0.00000   0.01709   0.01709   1.89833
   A22        1.88059   0.00300   0.00000   0.01701   0.01700   1.89759
    D1       -3.10288   0.00057   0.00000  -0.02983  -0.03002  -3.13290
    D2       -0.98273  -0.00237   0.00000  -0.01576  -0.01600  -0.99873
    D3        1.05329   0.00351   0.00000   0.03942   0.03909   1.09239
    D4       -1.00536  -0.00122   0.00000  -0.06856  -0.06824  -1.07360
    D5        1.11479  -0.00416   0.00000  -0.05449  -0.05422   1.06057
    D6       -3.13237   0.00172   0.00000   0.00070   0.00087  -3.13149
    D7       -1.29213   0.00472   0.00000   0.09206   0.09154  -1.20059
    D8        0.85115   0.00296   0.00000   0.06242   0.06212   0.91326
    D9        2.90401   0.00298   0.00000   0.06197   0.06157   2.96558
   D10        2.87369  -0.00186   0.00000  -0.00642  -0.00609   2.86760
   D11       -1.26622  -0.00361   0.00000  -0.03606  -0.03552  -1.30174
   D12        0.78664  -0.00359   0.00000  -0.03650  -0.03607   0.75057
   D13        0.83667   0.00109   0.00000   0.02696   0.02683   0.86350
   D14        2.97995  -0.00066   0.00000  -0.00268  -0.00260   2.97735
   D15       -1.25038  -0.00065   0.00000  -0.00313  -0.00315  -1.25352
   D16        3.10890  -0.00063   0.00000  -0.01476  -0.01459   3.09431
   D17        0.97170   0.00164   0.00000   0.01752   0.01747   0.98918
   D18       -1.08742  -0.00100   0.00000  -0.00268  -0.00281  -1.09022
   D19        1.05847   0.00042   0.00000   0.00252   0.00257   1.06104
   D20       -1.06680  -0.00050   0.00000  -0.00610  -0.00615  -1.07295
   D21        3.13817  -0.00003   0.00000  -0.00167  -0.00168   3.13649
         Item               Value     Threshold  Converged?
 Maximum Force            0.014484     0.000450     NO 
 RMS     Force            0.004667     0.000300     NO 
 Maximum Displacement     0.184360     0.001800     NO 
 RMS     Displacement     0.060735     0.001200     NO 
 Predicted change in Energy=-3.362839D-03
 GradGradGradGradGradGradGradGradGradGradGradGradGradGradGradGradGradGrad

                          Input orientation:                          
 ---------------------------------------------------------------------
 Center     Atomic      Atomic             Coordinates (Angstroms)
 Number     Number       Type             X           Y           Z
 ---------------------------------------------------------------------
      1          7           0       -0.327710   -1.262452   -2.103549
      2          6           0        0.688198   -0.301181   -1.672399
      3          6           0        0.824249   -0.282223   -0.161858
      4          8           0       -0.347631    0.274075    0.397837
      5          6           0       -0.306574    0.262342    1.805862
      6          1           0       -0.400355   -1.268652   -3.115291
      7          1           0       -0.061000   -2.199080   -1.816004
      8          1           0        1.698913   -0.463810   -2.087548
      9          1           0        0.367667    0.697027   -1.987130
     10          1           0        0.980855   -1.308872    0.210387
     11          1           0        1.712229    0.310094    0.114894
     12          1           0        0.536177    0.852058    2.200424
     13          1           0       -0.236862   -0.760361    2.207833
     14          1           0       -1.241155    0.711336    2.149741
 ---------------------------------------------------------------------
                    Distance matrix (angstroms):
                    1          2          3          4          5
     1  N    0.000000
     2  C    1.463558   0.000000
     3  C    2.461305   1.516775   0.000000
     4  O    2.935685   2.385318   1.412809   0.000000
     5  C    4.196301   3.661343   2.333931   1.408672   0.000000
     6  H    1.014366   2.050093   3.345962   3.837298   5.154657
     7  H    1.015425   2.045468   2.682201   3.331628   4.385980
     8  H    2.178368   1.104690   2.122803   3.303022   4.439360
     9  H    2.082465   1.094629   2.121088   2.525591   3.876898
    10  H    2.658721   2.155452   1.103223   2.075027   2.582970
    11  H    3.399374   2.148655   1.102696   2.079514   2.633860
    12  H    4.872539   4.043740   2.636277   2.089139   1.101668
    13  H    4.341471   4.015319   2.640078   2.087682   1.101074
    14  H    4.777101   4.399585   3.255233   2.014634   1.092378
                    6          7          8          9         10
     6  H    0.000000
     7  H    1.633709   0.000000
     8  H    2.472034   2.486401   0.000000
     9  H    2.393010   2.932656   1.769135   0.000000
    10  H    3.601318   2.446261   2.551517   3.037879   0.000000
    11  H    4.170078   3.628865   2.334492   2.525088   1.779067
    12  H    5.799253   5.079149   4.633591   4.193810   2.971129
    13  H    5.349836   4.276927   4.720749   4.481869   2.402810
    14  H    5.687518   5.058697   5.289573   4.438717   3.574866
                   11         12         13         14
    11  H    0.000000
    12  H    2.454844   0.000000
    13  H    3.053723   1.788167   0.000000
    14  H    3.608888   1.783615   1.782659   0.000000
 Stoichiometry    C3H9NO
 Framework group  C1[X(C3H9NO)]
 Deg. of freedom    36
 Full point group                 C1      NOp   1
 Largest Abelian subgroup         C1      NOp   1
 Largest concise Abelian subgroup C1      NOp   1
                         Standard orientation:                         
 ---------------------------------------------------------------------
 Center     Atomic      Atomic             Coordinates (Angstroms)
 Number     Number       Type             X           Y           Z
 ---------------------------------------------------------------------
      1          7           0        1.936536   -0.743884    0.093442
      2          6           0        1.327176    0.546119   -0.233016
      3          6           0       -0.088647    0.639124    0.303082
      4          8           0       -0.912378   -0.253792   -0.418166
      5          6           0       -2.231457   -0.257599    0.076175
      6          1           0        2.884644   -0.786614   -0.264613
      7          1           0        1.991001   -0.854899    1.101309
      8          1           0        1.872903    1.433151    0.135354
      9          1           0        1.273249    0.631020   -1.323015
     10          1           0       -0.096514    0.390101    1.377803
     11          1           0       -0.447957    1.676555    0.200263
     12          1           0       -2.705563    0.733800   -0.001451
     13          1           0       -2.277424   -0.586481    1.125978
     14          1           0       -2.793506   -0.964976   -0.537834
 ---------------------------------------------------------------------
 Rotational constants (GHZ):          13.3170688           2.5742520           2.3867844
 Standard basis: 6-31G(d,p) (6D, 7F)
 There are   120 symmetry adapted cartesian basis functions of A   symmetry.
 There are   120 symmetry adapted basis functions of A   symmetry.
   120 basis functions,   203 primitive gaussians,   120 cartesian basis functions
    21 alpha electrons       21 beta electrons
       nuclear repulsion energy       192.2545984674 Hartrees.
 NAtoms=   14 NActive=   14 NUniq=   14 SFac= 1.00D+00 NAtFMM=   60 NAOKFM=F Big=F
 Integral buffers will be    131072 words long.
 Raffenetti 2 integral format.
 Two-electron integral symmetry is turned on.
 Nuclear repulsion after empirical dispersion term =      192.2402557764 Hartrees.
 One-electron integrals computed using PRISM.
 NBasis=   120 RedAO= T EigKep=  4.40D-03  NBF=   120
 NBsUse=   120 1.00D-06 EigRej= -1.00D+00 NBFU=   120
 Initial guess from the checkpoint file:  "N1_conf-8.chk"
 B after Tr=     0.000000   -0.000000    0.000000
         Rot=    0.999880    0.015408    0.001504    0.000340 Ang=   1.77 deg.
 ExpMin= 1.61D-01 ExpMax= 5.48D+03 ExpMxC= 8.25D+02 IAcc=3 IRadAn=         5 AccDes= 0.00D+00
 Harris functional with IExCor=  402 and IRadAn=       5 diagonalized for initial guess.
 HarFok:  IExCor=  402 AccDes= 0.00D+00 IRadAn=         5 IDoV= 1 UseB2=F ITyADJ=14
 ICtDFT=  3500011 ScaDFX=  1.000000  1.000000  1.000000  1.000000
 FoFCou: FMM=F IPFlag=           0 FMFlag=      100000 FMFlg1=           0
         NFxFlg=           0 DoJE=T BraDBF=F KetDBF=T FulRan=T
         wScrn=  0.000000 ICntrl=       500 IOpCl=  0 I1Cent=   200000004 NGrid=           0
         NMat0=    1 NMatS0=      1 NMatT0=    0 NMatD0=    1 NMtDS0=    0 NMtDT0=    0
 Petite list used in FoFCou.
 Requested convergence on RMS density matrix=1.00D-08 within 128 cycles.
 Requested convergence on MAX density matrix=1.00D-06.
 Requested convergence on             energy=1.00D-06.
 No special actions if energy rises.
 Integral accuracy reduced to 1.0D-05 until final iterations.
 Initial convergence to 1.0D-05 achieved.  Increase integral accuracy.
 SCF Done:  E(RB3LYP) =  -249.709894857     A.U. after   11 cycles
            NFock= 11  Conv=0.33D-08     -V/T= 2.0092
 Calling FoFJK, ICntrl=      2127 FMM=F ISym2X=0 I1Cent= 0 IOpClX= 0 NMat=1 NMatS=1 NMatT=0.
 ***** Axes restored to original set *****
 -------------------------------------------------------------------
 Center     Atomic                   Forces (Hartrees/Bohr)
 Number     Number              X              Y              Z
 -------------------------------------------------------------------
      1        7           0.000522025    0.002725003    0.001989431
      2        6          -0.001038229   -0.000563274   -0.001258149
      3        6          -0.004080614    0.001562724   -0.002579115
      4        8           0.004081577   -0.001647325    0.002155534
      5        6          -0.004025790    0.002178747   -0.000243677
      6        1           0.000243519   -0.000436318   -0.001314783
      7        1           0.000970861   -0.001785566   -0.000822007
      8        1           0.000118185   -0.001327005   -0.001445242
      9        1           0.000500065    0.000763621   -0.000912311
     10        1           0.001069969   -0.000879874    0.001375307
     11        1           0.000254923    0.000125294    0.001195416
     12        1           0.000566662   -0.000404561    0.000269259
     13        1           0.000675120   -0.000275998    0.000149254
     14        1           0.000141728   -0.000035468    0.001441086
 -------------------------------------------------------------------
 Cartesian Forces:  Max     0.004081577 RMS     0.001590566

 GradGradGradGradGradGradGradGradGradGradGradGradGradGradGradGradGradGrad
 Berny optimization.
 Using GEDIIS/GDIIS optimizer.
 FormGI is forming the generalized inverse of G from B-inverse, IUseBI=4.
 Internal  Forces:  Max     0.004569299 RMS     0.001267633
 Search for a local minimum.
 Step number   2 out of a maximum of   66
 All quantities printed in internal units (Hartrees-Bohrs-Radians)
 Mixed Optimization -- RFO/linear search
 Update second derivatives using D2CorX and points    1    2
 DE= -2.73D-03 DEPred=-3.36D-03 R= 8.12D-01
 TightC=F SS=  1.41D+00  RLast= 2.44D-01 DXNew= 5.0454D-01 7.3263D-01
 Trust test= 8.12D-01 RLast= 2.44D-01 DXMaxT set to 5.05D-01
 ITU=  1  0
 Use linear search instead of GDIIS.
     Eigenvalues ---    0.00230   0.00880   0.01382   0.01436   0.04198
     Eigenvalues ---    0.04352   0.05160   0.05633   0.05875   0.09240
     Eigenvalues ---    0.10036   0.10537   0.11280   0.13011   0.13704
     Eigenvalues ---    0.15945   0.16000   0.16000   0.16000   0.16444
     Eigenvalues ---    0.21904   0.22543   0.26001   0.30301   0.33148
     Eigenvalues ---    0.34576   0.34628   0.34650   0.34685   0.34708
     Eigenvalues ---    0.34801   0.36999   0.41857   0.42858   0.45728
     Eigenvalues ---    0.45932
 RFO step:  Lambda=-3.30508816D-04 EMin= 2.30196502D-03
 Quartic linear search produced a step of -0.13138.
 Iteration  1 RMS(Cart)=  0.02074408 RMS(Int)=  0.00020355
 Iteration  2 RMS(Cart)=  0.00024969 RMS(Int)=  0.00004634
 Iteration  3 RMS(Cart)=  0.00000003 RMS(Int)=  0.00004634
 Variable       Old X    -DE/DX   Delta X   Delta X   Delta X     New X
                                 (Linear)    (Quad)   (Total)
    R1        2.76572  -0.00149  -0.00063  -0.00267  -0.00330   2.76242
    R2        1.91687   0.00130  -0.00099   0.00377   0.00278   1.91965
    R3        1.91887   0.00167  -0.00133   0.00493   0.00359   1.92247
    R4        2.86629   0.00364   0.00659   0.00230   0.00889   2.87518
    R5        2.08756   0.00085  -0.00325   0.00648   0.00323   2.09079
    R6        2.06855   0.00081  -0.00063   0.00289   0.00225   2.07080
    R7        2.66982   0.00023   0.00263  -0.00305  -0.00041   2.66941
    R8        2.08479   0.00143  -0.00277   0.00730   0.00454   2.08933
    R9        2.08379   0.00057  -0.00280   0.00518   0.00238   2.08618
   R10        2.66200   0.00153   0.00264  -0.00042   0.00222   2.66423
   R11        2.08185   0.00031  -0.00262   0.00429   0.00167   2.08352
   R12        2.08073   0.00035  -0.00248   0.00420   0.00173   2.08245
   R13        2.06429   0.00032  -0.00056   0.00154   0.00098   2.06528
    A1        1.92576  -0.00019   0.00310  -0.00859  -0.00547   1.92029
    A2        1.91781   0.00005   0.00406  -0.00865  -0.00456   1.91325
    A3        1.87090  -0.00061   0.00030  -0.01060  -0.01025   1.86065
    A4        1.94320   0.00084   0.00248   0.00054   0.00308   1.94628
    A5        2.01273  -0.00176  -0.01431   0.00425  -0.01010   2.00263
    A6        1.88703   0.00015   0.00334  -0.00130   0.00220   1.88923
    A7        1.86924   0.00098   0.00518  -0.00062   0.00462   1.87386
    A8        1.87676  -0.00008   0.00428  -0.00176   0.00268   1.87944
    A9        1.86932  -0.00008  -0.00057  -0.00156  -0.00198   1.86734
   A10        1.90186   0.00372   0.00309   0.01289   0.01595   1.91781
   A11        1.91466   0.00000   0.00131   0.00269   0.00401   1.91868
   A12        1.90593  -0.00012  -0.00057   0.00188   0.00130   1.90723
   A13        1.92890  -0.00134   0.00081  -0.00379  -0.00303   1.92587
   A14        1.93587  -0.00183  -0.00447  -0.00365  -0.00817   1.92770
   A15        1.87641  -0.00050  -0.00029  -0.01021  -0.01052   1.86588
   A16        1.94821   0.00457   0.00512   0.00893   0.01405   1.96226
   A17        1.95608  -0.00030  -0.00133  -0.00077  -0.00212   1.95396
   A18        1.95464  -0.00057  -0.00128  -0.00235  -0.00365   1.95099
   A19        1.86115   0.00253   0.00644   0.00681   0.01324   1.87439
   A20        1.89443  -0.00088   0.00057  -0.00887  -0.00833   1.88610
   A21        1.89833  -0.00041  -0.00225   0.00280   0.00054   1.89887
   A22        1.89759  -0.00034  -0.00223   0.00301   0.00076   1.89836
    D1       -3.13290   0.00010   0.00394  -0.02107  -0.01712   3.13316
    D2       -0.99873   0.00075   0.00210  -0.01824  -0.01613  -1.01486
    D3        1.09239  -0.00038  -0.00514  -0.01844  -0.02355   1.06884
    D4       -1.07360  -0.00074   0.00897  -0.04458  -0.03563  -1.10923
    D5        1.06057  -0.00009   0.00712  -0.04174  -0.03464   1.02594
    D6       -3.13149  -0.00122  -0.00011  -0.04194  -0.04206   3.10963
    D7       -1.20059  -0.00068  -0.01203   0.04170   0.02973  -1.17086
    D8        0.91326   0.00002  -0.00816   0.04677   0.03868   0.95194
    D9        2.96558  -0.00066  -0.00809   0.03708   0.02903   2.99460
   D10        2.86760   0.00029   0.00080   0.03639   0.03713   2.90473
   D11       -1.30174   0.00098   0.00467   0.04146   0.04608  -1.25565
   D12        0.75057   0.00031   0.00474   0.03177   0.03643   0.78701
   D13        0.86350  -0.00006  -0.00352   0.03935   0.03583   0.89933
   D14        2.97735   0.00063   0.00034   0.04442   0.04478   3.02213
   D15       -1.25352  -0.00004   0.00041   0.03473   0.03513  -1.21839
   D16        3.09431   0.00021   0.00192   0.00435   0.00626   3.10057
   D17        0.98918  -0.00134  -0.00230  -0.00485  -0.00710   0.98207
   D18       -1.09022   0.00132   0.00037   0.01269   0.01302  -1.07721
   D19        1.06104  -0.00092  -0.00034  -0.00825  -0.00859   1.05245
   D20       -1.07295   0.00087   0.00081   0.00561   0.00641  -1.06654
   D21        3.13649   0.00001   0.00022  -0.00099  -0.00076   3.13573
         Item               Value     Threshold  Converged?
 Maximum Force            0.004569     0.000450     NO 
 RMS     Force            0.001268     0.000300     NO 
 Maximum Displacement     0.067190     0.001800     NO 
 RMS     Displacement     0.020778     0.001200     NO 
 Predicted change in Energy=-2.312182D-04
 GradGradGradGradGradGradGradGradGradGradGradGradGradGradGradGradGradGrad

                          Input orientation:                          
 ---------------------------------------------------------------------
 Center     Atomic      Atomic             Coordinates (Angstroms)
 Number     Number       Type             X           Y           Z
 ---------------------------------------------------------------------
      1          7           0       -0.334810   -1.256651   -2.110930
      2          6           0        0.691531   -0.309667   -1.678798
      3          6           0        0.820239   -0.279536   -0.163072
      4          8           0       -0.353289    0.260876    0.408066
      5          6           0       -0.313040    0.264956    1.817334
      6          1           0       -0.407209   -1.252764   -3.124176
      7          1           0       -0.064190   -2.199836   -1.842378
      8          1           0        1.700137   -0.499365   -2.092130
      9          1           0        0.394000    0.692427   -2.007592
     10          1           0        0.999166   -1.300982    0.220383
     11          1           0        1.699555    0.326786    0.116033
     12          1           0        0.526403    0.866171    2.203987
     13          1           0       -0.220704   -0.753973    2.226764
     14          1           0       -1.250790    0.701856    2.169709
 ---------------------------------------------------------------------
                    Distance matrix (angstroms):
                    1          2          3          4          5
     1  N    0.000000
     2  C    1.461811   0.000000
     3  C    2.466382   1.521479   0.000000
     4  O    2.940846   2.402535   1.412590   0.000000
     5  C    4.212721   3.682702   2.345804   1.409848   0.000000
     6  H    1.015836   2.045917   3.349916   3.843273   5.170189
     7  H    1.017327   2.042207   2.699969   3.347116   4.419345
     8  H    2.171369   1.106397   2.131622   3.323479   4.463292
     9  H    2.083446   1.095821   2.128061   2.565167   3.913143
    10  H    2.686350   2.164309   1.105624   2.074551   2.593125
    11  H    3.406651   2.154670   1.103958   2.074560   2.636055
    12  H    4.885342   4.060281   2.646120   2.089395   1.102553
    13  H    4.368214   4.035219   2.649522   2.086902   1.101987
    14  H    4.795690   4.427957   3.270192   2.025674   1.092898
                    6          7          8          9         10
     6  H    0.000000
     7  H    1.630219   0.000000
     8  H    2.464475   2.463093   0.000000
     9  H    2.381694   2.932989   1.770172   0.000000
    10  H    3.628538   2.488704   2.545912   3.050210   0.000000
    11  H    4.175210   3.651025   2.357649   2.519513   1.775123
    12  H    5.809547   5.110995   4.658214   4.217240   2.975691
    13  H    5.377372   4.321219   4.733635   4.516603   2.410988
    14  H    5.705908   5.091629   5.321107   4.489462   3.587971
                   11         12         13         14
    11  H    0.000000
    12  H    2.454949   0.000000
    13  H    3.051331   1.784252   0.000000
    14  H    3.614250   1.785102   1.784313   0.000000
 Stoichiometry    C3H9NO
 Framework group  C1[X(C3H9NO)]
 Deg. of freedom    36
 Full point group                 C1      NOp   1
 Largest Abelian subgroup         C1      NOp   1
 Largest concise Abelian subgroup C1      NOp   1
                         Standard orientation:                         
 ---------------------------------------------------------------------
 Center     Atomic      Atomic             Coordinates (Angstroms)
 Number     Number       Type             X           Y           Z
 ---------------------------------------------------------------------
      1          7           0        1.940283   -0.747172    0.093639
      2          6           0        1.338378    0.544990   -0.230273
      3          6           0       -0.087493    0.642801    0.291478
      4          8           0       -0.917267   -0.263457   -0.405361
      5          6           0       -2.243556   -0.255162    0.072718
      6          1           0        2.887259   -0.791069   -0.271370
      7          1           0        2.013006   -0.846626    1.103478
      8          1           0        1.891512    1.422813    0.153893
      9          1           0        1.301083    0.642290   -1.321128
     10          1           0       -0.107781    0.426890    1.375626
     11          1           0       -0.452401    1.676772    0.163152
     12          1           0       -2.712365    0.737507   -0.029508
     13          1           0       -2.298007   -0.551271    1.132780
     14          1           0       -2.810120   -0.975224   -0.523052
 ---------------------------------------------------------------------
 Rotational constants (GHZ):          13.3573510           2.5540637           2.3645099
 Standard basis: 6-31G(d,p) (6D, 7F)
 There are   120 symmetry adapted cartesian basis functions of A   symmetry.
 There are   120 symmetry adapted basis functions of A   symmetry.
   120 basis functions,   203 primitive gaussians,   120 cartesian basis functions
    21 alpha electrons       21 beta electrons
       nuclear repulsion energy       191.8258594907 Hartrees.
 NAtoms=   14 NActive=   14 NUniq=   14 SFac= 1.00D+00 NAtFMM=   60 NAOKFM=F Big=F
 Integral buffers will be    131072 words long.
 Raffenetti 2 integral format.
 Two-electron integral symmetry is turned on.
 Nuclear repulsion after empirical dispersion term =      191.8115685300 Hartrees.
 One-electron integrals computed using PRISM.
 NBasis=   120 RedAO= T EigKep=  4.45D-03  NBF=   120
 NBsUse=   120 1.00D-06 EigRej= -1.00D+00 NBFU=   120
 Initial guess from the checkpoint file:  "N1_conf-8.chk"
 B after Tr=    -0.000000    0.000000   -0.000000
         Rot=    0.999988    0.004857    0.000344    0.000653 Ang=   0.56 deg.
 ExpMin= 1.61D-01 ExpMax= 5.48D+03 ExpMxC= 8.25D+02 IAcc=3 IRadAn=         5 AccDes= 0.00D+00
 Harris functional with IExCor=  402 and IRadAn=       5 diagonalized for initial guess.
 HarFok:  IExCor=  402 AccDes= 0.00D+00 IRadAn=         5 IDoV= 1 UseB2=F ITyADJ=14
 ICtDFT=  3500011 ScaDFX=  1.000000  1.000000  1.000000  1.000000
 FoFCou: FMM=F IPFlag=           0 FMFlag=      100000 FMFlg1=           0
         NFxFlg=           0 DoJE=T BraDBF=F KetDBF=T FulRan=T
         wScrn=  0.000000 ICntrl=       500 IOpCl=  0 I1Cent=   200000004 NGrid=           0
         NMat0=    1 NMatS0=      1 NMatT0=    0 NMatD0=    1 NMtDS0=    0 NMtDT0=    0
 Petite list used in FoFCou.
 Requested convergence on RMS density matrix=1.00D-08 within 128 cycles.
 Requested convergence on MAX density matrix=1.00D-06.
 Requested convergence on             energy=1.00D-06.
 No special actions if energy rises.
 Integral accuracy reduced to 1.0D-05 until final iterations.
 Initial convergence to 1.0D-05 achieved.  Increase integral accuracy.
 SCF Done:  E(RB3LYP) =  -249.710136143     A.U. after    9 cycles
            NFock=  9  Conv=0.91D-08     -V/T= 2.0093
 Calling FoFJK, ICntrl=      2127 FMM=F ISym2X=0 I1Cent= 0 IOpClX= 0 NMat=1 NMatS=1 NMatT=0.
 ***** Axes restored to original set *****
 -------------------------------------------------------------------
 Center     Atomic                   Forces (Hartrees/Bohr)
 Number     Number              X              Y              Z
 -------------------------------------------------------------------
      1        7           0.000081172    0.000216385    0.000821823
      2        6          -0.000608075    0.000927692    0.000602296
      3        6          -0.001316798    0.000359217    0.000507269
      4        8           0.000803825   -0.000258718    0.000079464
      5        6          -0.000138358    0.000127139   -0.000888958
      6        1          -0.000006172   -0.000061168   -0.000433057
      7        1           0.000224628   -0.000565844   -0.000509358
      8        1          -0.000256130   -0.000251336    0.000350619
      9        1           0.000274671    0.000001288   -0.000477905
     10        1           0.000341864   -0.000175199    0.000021897
     11        1           0.000242389   -0.000149055   -0.000073899
     12        1          -0.000020077   -0.000115600    0.000098982
     13        1           0.000095799    0.000067311    0.000109661
     14        1           0.000281262   -0.000122113   -0.000208835
 -------------------------------------------------------------------
 Cartesian Forces:  Max     0.001316798 RMS     0.000430546

 GradGradGradGradGradGradGradGradGradGradGradGradGradGradGradGradGradGrad
 Berny optimization.
 Using GEDIIS/GDIIS optimizer.
 FormGI is forming the generalized inverse of G from B-inverse, IUseBI=4.
 Internal  Forces:  Max     0.001291778 RMS     0.000301052
 Search for a local minimum.
 Step number   3 out of a maximum of   66
 All quantities printed in internal units (Hartrees-Bohrs-Radians)
 Mixed Optimization -- En-DIIS/RFO-DIIS
 Update second derivatives using D2CorX and points    1    2    3
 DE= -2.41D-04 DEPred=-2.31D-04 R= 1.04D+00
 TightC=F SS=  1.41D+00  RLast= 1.40D-01 DXNew= 8.4853D-01 4.2090D-01
 Trust test= 1.04D+00 RLast= 1.40D-01 DXMaxT set to 5.05D-01
 ITU=  1  1  0
 Use linear search instead of GDIIS.
     Eigenvalues ---    0.00248   0.00748   0.01378   0.01436   0.04063
     Eigenvalues ---    0.04348   0.05018   0.05579   0.05743   0.09309
     Eigenvalues ---    0.10004   0.10456   0.11492   0.13079   0.13786
     Eigenvalues ---    0.15936   0.15999   0.16000   0.16020   0.16526
     Eigenvalues ---    0.21906   0.22711   0.26197   0.31179   0.32918
     Eigenvalues ---    0.34578   0.34617   0.34667   0.34684   0.34693
     Eigenvalues ---    0.34979   0.37013   0.42032   0.44441   0.45880
     Eigenvalues ---    0.46086
 RFO step:  Lambda=-6.06737867D-05 EMin= 2.48013559D-03
 Quartic linear search produced a step of  0.06381.
 Iteration  1 RMS(Cart)=  0.01302981 RMS(Int)=  0.00013850
 Iteration  2 RMS(Cart)=  0.00014577 RMS(Int)=  0.00000665
 Iteration  3 RMS(Cart)=  0.00000002 RMS(Int)=  0.00000665
 Variable       Old X    -DE/DX   Delta X   Delta X   Delta X     New X
                                 (Linear)    (Quad)   (Total)
    R1        2.76242   0.00009  -0.00021   0.00004  -0.00017   2.76225
    R2        1.91965   0.00043   0.00018   0.00138   0.00156   1.92121
    R3        1.92247   0.00045   0.00023   0.00154   0.00177   1.92424
    R4        2.87518  -0.00033   0.00057  -0.00125  -0.00068   2.87450
    R5        2.09079  -0.00032   0.00021  -0.00032  -0.00011   2.09068
    R6        2.07080   0.00007   0.00014   0.00050   0.00064   2.07144
    R7        2.66941  -0.00129  -0.00003  -0.00366  -0.00369   2.66572
    R8        2.08933   0.00022   0.00029   0.00144   0.00173   2.09106
    R9        2.08618   0.00009   0.00015   0.00084   0.00099   2.08717
   R10        2.66423  -0.00088   0.00014  -0.00234  -0.00220   2.66202
   R11        2.08352  -0.00004   0.00011   0.00033   0.00044   2.08396
   R12        2.08245  -0.00001   0.00011   0.00041   0.00052   2.08298
   R13        2.06528  -0.00036   0.00006  -0.00095  -0.00088   2.06439
    A1        1.92029  -0.00009  -0.00035  -0.00268  -0.00303   1.91725
    A2        1.91325   0.00028  -0.00029  -0.00020  -0.00050   1.91275
    A3        1.86065  -0.00030  -0.00065  -0.00538  -0.00606   1.85459
    A4        1.94628   0.00044   0.00020   0.00235   0.00253   1.94881
    A5        2.00263  -0.00029  -0.00064  -0.00419  -0.00484   1.99779
    A6        1.88923  -0.00005   0.00014   0.00290   0.00302   1.89225
    A7        1.87386  -0.00031   0.00030  -0.00450  -0.00421   1.86966
    A8        1.87944   0.00020   0.00017   0.00484   0.00500   1.88444
    A9        1.86734   0.00001  -0.00013  -0.00094  -0.00106   1.86628
   A10        1.91781  -0.00025   0.00102   0.00036   0.00137   1.91918
   A11        1.91868   0.00007   0.00026   0.00089   0.00114   1.91981
   A12        1.90723  -0.00013   0.00008  -0.00208  -0.00199   1.90524
   A13        1.92587   0.00027  -0.00019   0.00331   0.00310   1.92897
   A14        1.92770   0.00018  -0.00052   0.00061   0.00009   1.92779
   A15        1.86588  -0.00014  -0.00067  -0.00321  -0.00389   1.86200
   A16        1.96226  -0.00030   0.00090  -0.00061   0.00029   1.96255
   A17        1.95396   0.00016  -0.00014   0.00099   0.00086   1.95482
   A18        1.95099   0.00017  -0.00023   0.00098   0.00074   1.95174
   A19        1.87439  -0.00018   0.00084  -0.00077   0.00007   1.87446
   A20        1.88610  -0.00019  -0.00053  -0.00214  -0.00268   1.88342
   A21        1.89887   0.00001   0.00003   0.00039   0.00042   1.89929
   A22        1.89836   0.00003   0.00005   0.00059   0.00064   1.89899
    D1        3.13316   0.00021  -0.00109  -0.01346  -0.01456   3.11861
    D2       -1.01486  -0.00007  -0.00103  -0.02079  -0.02182  -1.03668
    D3        1.06884  -0.00027  -0.00150  -0.02259  -0.02410   1.04474
    D4       -1.10923  -0.00004  -0.00227  -0.02169  -0.02395  -1.13318
    D5        1.02594  -0.00031  -0.00221  -0.02901  -0.03122   0.99472
    D6        3.10963  -0.00052  -0.00268  -0.03081  -0.03349   3.07613
    D7       -1.17086  -0.00032   0.00190  -0.01924  -0.01735  -1.18820
    D8        0.95194  -0.00010   0.00247  -0.01431  -0.01184   0.94010
    D9        2.99460  -0.00030   0.00185  -0.01890  -0.01705   2.97755
   D10        2.90473  -0.00003   0.00237  -0.01225  -0.00989   2.89484
   D11       -1.25565   0.00019   0.00294  -0.00733  -0.00439  -1.26004
   D12        0.78701  -0.00001   0.00232  -0.01192  -0.00959   0.77741
   D13        0.89933   0.00000   0.00229  -0.01131  -0.00902   0.89031
   D14        3.02213   0.00022   0.00286  -0.00639  -0.00352   3.01861
   D15       -1.21839   0.00002   0.00224  -0.01098  -0.00873  -1.22712
   D16        3.10057   0.00016   0.00040   0.00684   0.00724   3.10781
   D17        0.98207   0.00006  -0.00045   0.00335   0.00289   0.98497
   D18       -1.07721  -0.00004   0.00083   0.00488   0.00571  -1.07150
   D19        1.05245   0.00000  -0.00055  -0.00038  -0.00093   1.05153
   D20       -1.06654   0.00002   0.00041   0.00098   0.00139  -1.06515
   D21        3.13573  -0.00000  -0.00005   0.00018   0.00013   3.13586
         Item               Value     Threshold  Converged?
 Maximum Force            0.001292     0.000450     NO 
 RMS     Force            0.000301     0.000300     NO 
 Maximum Displacement     0.053249     0.001800     NO 
 RMS     Displacement     0.013004     0.001200     NO 
 Predicted change in Energy=-3.136858D-05
 GradGradGradGradGradGradGradGradGradGradGradGradGradGradGradGradGradGrad

                          Input orientation:                          
 ---------------------------------------------------------------------
 Center     Atomic      Atomic             Coordinates (Angstroms)
 Number     Number       Type             X           Y           Z
 ---------------------------------------------------------------------
      1          7           0       -0.330832   -1.265210   -2.115009
      2          6           0        0.684686   -0.310070   -1.675626
      3          6           0        0.812501   -0.283967   -0.160112
      4          8           0       -0.355323    0.262310    0.412313
      5          6           0       -0.310738    0.271155    1.820263
      6          1           0       -0.408629   -1.244605   -3.128481
      7          1           0       -0.039625   -2.209827   -1.870556
      8          1           0        1.695739   -0.495699   -2.084647
      9          1           0        0.385104    0.690921   -2.007042
     10          1           0        0.989976   -1.307031    0.222346
     11          1           0        1.696423    0.316639    0.118874
     12          1           0        0.532757    0.869512    2.203169
     13          1           0       -0.219759   -0.746535    2.233801
     14          1           0       -1.245280    0.712708    2.173908
 ---------------------------------------------------------------------
                    Distance matrix (angstroms):
                    1          2          3          4          5
     1  N    0.000000
     2  C    1.461721   0.000000
     3  C    2.468131   1.521118   0.000000
     4  O    2.953181   2.401818   1.410638   0.000000
     5  C    4.224593   3.681023   2.343440   1.408683   0.000000
     6  H    1.016662   2.044378   3.350402   3.848488   5.176599
     7  H    1.018263   2.042474   2.713056   3.379736   4.455436
     8  H    2.167963   1.106339   2.128092   3.319073   4.456718
     9  H    2.085826   1.096161   2.131718   2.566168   3.912628
    10  H    2.685054   2.165510   1.106541   2.075753   2.595354
    11  H    3.406207   2.153278   1.104482   2.073335   2.631632
    12  H    4.893821   4.057036   2.644592   2.089149   1.102784
    13  H    4.381040   4.036353   2.647707   2.086616   1.102263
    14  H    4.810737   4.426032   3.267334   2.024376   1.092430
                    6          7          8          9         10
     6  H    0.000000
     7  H    1.627942   0.000000
     8  H    2.465525   2.448584   0.000000
     9  H    2.373583   2.934853   1.769705   0.000000
    10  H    3.631534   2.501072   2.545306   3.054154   0.000000
    11  H    4.173013   3.654412   2.348489   2.525700   1.773719
    12  H    5.812245   5.138597   4.647762   4.216583   2.978262
    13  H    5.388675   4.361126   4.730862   4.518505   2.413206
    14  H    5.713702   5.133469   5.314615   4.487647   3.589472
                   11         12         13         14
    11  H    0.000000
    12  H    2.450320   0.000000
    13  H    3.045490   1.782927   0.000000
    14  H    3.610215   1.785178   1.784564   0.000000
 Stoichiometry    C3H9NO
 Framework group  C1[X(C3H9NO)]
 Deg. of freedom    36
 Full point group                 C1      NOp   1
 Largest Abelian subgroup         C1      NOp   1
 Largest concise Abelian subgroup C1      NOp   1
                         Standard orientation:                         
 ---------------------------------------------------------------------
 Center     Atomic      Atomic             Coordinates (Angstroms)
 Number     Number       Type             X           Y           Z
 ---------------------------------------------------------------------
      1          7           0        1.949808   -0.741359    0.097415
      2          6           0        1.334365    0.542122   -0.235053
      3          6           0       -0.089279    0.635498    0.292508
      4          8           0       -0.921230   -0.265518   -0.404577
      5          6           0       -2.246441   -0.253416    0.072977
      6          1           0        2.890494   -0.782773   -0.285986
      7          1           0        2.049924   -0.820536    1.107646
      8          1           0        1.881511    1.424984    0.145959
      9          1           0        1.297395    0.636081   -1.326554
     10          1           0       -0.105763    0.418647    1.377467
     11          1           0       -0.453940    1.670881    0.170503
     12          1           0       -2.712423    0.741109   -0.026593
     13          1           0       -2.302699   -0.549539    1.133227
     14          1           0       -2.815183   -0.970423   -0.523543
 ---------------------------------------------------------------------
 Rotational constants (GHZ):          13.4582305           2.5423053           2.3591890
 Standard basis: 6-31G(d,p) (6D, 7F)
 There are   120 symmetry adapted cartesian basis functions of A   symmetry.
 There are   120 symmetry adapted basis functions of A   symmetry.
   120 basis functions,   203 primitive gaussians,   120 cartesian basis functions
    21 alpha electrons       21 beta electrons
       nuclear repulsion energy       191.7871494858 Hartrees.
 NAtoms=   14 NActive=   14 NUniq=   14 SFac= 1.00D+00 NAtFMM=   60 NAOKFM=F Big=F
 Integral buffers will be    131072 words long.
 Raffenetti 2 integral format.
 Two-electron integral symmetry is turned on.
 Nuclear repulsion after empirical dispersion term =      191.7728684970 Hartrees.
 One-electron integrals computed using PRISM.
 NBasis=   120 RedAO= T EigKep=  4.44D-03  NBF=   120
 NBsUse=   120 1.00D-06 EigRej= -1.00D+00 NBFU=   120
 Initial guess from the checkpoint file:  "N1_conf-8.chk"
 B after Tr=     0.000000    0.000000    0.000000
         Rot=    0.999999    0.000934   -0.000523   -0.000775 Ang=   0.15 deg.
 ExpMin= 1.61D-01 ExpMax= 5.48D+03 ExpMxC= 8.25D+02 IAcc=3 IRadAn=         5 AccDes= 0.00D+00
 Harris functional with IExCor=  402 and IRadAn=       5 diagonalized for initial guess.
 HarFok:  IExCor=  402 AccDes= 0.00D+00 IRadAn=         5 IDoV= 1 UseB2=F ITyADJ=14
 ICtDFT=  3500011 ScaDFX=  1.000000  1.000000  1.000000  1.000000
 FoFCou: FMM=F IPFlag=           0 FMFlag=      100000 FMFlg1=           0
         NFxFlg=           0 DoJE=T BraDBF=F KetDBF=T FulRan=T
         wScrn=  0.000000 ICntrl=       500 IOpCl=  0 I1Cent=   200000004 NGrid=           0
         NMat0=    1 NMatS0=      1 NMatT0=    0 NMatD0=    1 NMtDS0=    0 NMtDT0=    0
 Petite list used in FoFCou.
 Requested convergence on RMS density matrix=1.00D-08 within 128 cycles.
 Requested convergence on MAX density matrix=1.00D-06.
 Requested convergence on             energy=1.00D-06.
 No special actions if energy rises.
 Integral accuracy reduced to 1.0D-05 until final iterations.
 Initial convergence to 1.0D-05 achieved.  Increase integral accuracy.
 SCF Done:  E(RB3LYP) =  -249.710173160     A.U. after    9 cycles
            NFock=  9  Conv=0.46D-08     -V/T= 2.0093
 Calling FoFJK, ICntrl=      2127 FMM=F ISym2X=0 I1Cent= 0 IOpClX= 0 NMat=1 NMatS=1 NMatT=0.
 ***** Axes restored to original set *****
 -------------------------------------------------------------------
 Center     Atomic                   Forces (Hartrees/Bohr)
 Number     Number              X              Y              Z
 -------------------------------------------------------------------
      1        7          -0.000229837   -0.000490985    0.000020958
      2        6           0.000617126    0.000202500    0.000174629
      3        6          -0.000052190    0.000251712    0.000413423
      4        8           0.000003917   -0.000125691   -0.000049755
      5        6           0.000185364   -0.000129282   -0.000073465
      6        1          -0.000193850    0.000152972    0.000078252
      7        1           0.000023640    0.000178162   -0.000201935
      8        1          -0.000133514    0.000057238    0.000125567
      9        1           0.000031897   -0.000328085    0.000006231
     10        1          -0.000119989    0.000193663   -0.000284301
     11        1           0.000018702   -0.000053804   -0.000109057
     12        1          -0.000115888    0.000001896   -0.000061751
     13        1          -0.000085786    0.000118803   -0.000017893
     14        1           0.000050409   -0.000029099   -0.000020901
 -------------------------------------------------------------------
 Cartesian Forces:  Max     0.000617126 RMS     0.000191169

 GradGradGradGradGradGradGradGradGradGradGradGradGradGradGradGradGradGrad
 Berny optimization.
 Using GEDIIS/GDIIS optimizer.
 FormGI is forming the generalized inverse of G from B-inverse, IUseBI=4.
 Internal  Forces:  Max     0.000413004 RMS     0.000129677
 Search for a local minimum.
 Step number   4 out of a maximum of   66
 All quantities printed in internal units (Hartrees-Bohrs-Radians)
 Mixed Optimization -- En-DIIS/RFO-DIIS
 Swapping is turned off.
 Update second derivatives using D2CorX and points    1    2    3    4
 DE= -3.70D-05 DEPred=-3.14D-05 R= 1.18D+00
 TightC=F SS=  1.41D+00  RLast= 7.31D-02 DXNew= 8.4853D-01 2.1935D-01
 Trust test= 1.18D+00 RLast= 7.31D-02 DXMaxT set to 5.05D-01
 ITU=  1  1  1  0
     Eigenvalues ---    0.00255   0.00410   0.01379   0.01436   0.04301
     Eigenvalues ---    0.04709   0.05386   0.05708   0.06092   0.09304
     Eigenvalues ---    0.10109   0.10448   0.11818   0.13058   0.13823
     Eigenvalues ---    0.15964   0.15975   0.16001   0.16138   0.16486
     Eigenvalues ---    0.22067   0.22805   0.26193   0.30824   0.34127
     Eigenvalues ---    0.34593   0.34662   0.34682   0.34689   0.34988
     Eigenvalues ---    0.35160   0.38116   0.41875   0.43674   0.45896
     Eigenvalues ---    0.46599
 En-DIIS/RFO-DIIS/Sim-DIIS IScMMF=       -3 using points:     4    3
 RFO step:  Lambda=-2.40283157D-05.
 DidBck=F Rises=F RFO-DIIS coefs:    1.77975   -0.77975
 Iteration  1 RMS(Cart)=  0.00942683 RMS(Int)=  0.00011879
 Iteration  2 RMS(Cart)=  0.00011578 RMS(Int)=  0.00000472
 Iteration  3 RMS(Cart)=  0.00000001 RMS(Int)=  0.00000472
 Variable       Old X    -DE/DX   Delta X   Delta X   Delta X     New X
                                 (Linear)    (Quad)   (Total)
    R1        2.76225   0.00041  -0.00013   0.00119   0.00106   2.76331
    R2        1.92121  -0.00006   0.00122  -0.00059   0.00062   1.92184
    R3        1.92424  -0.00021   0.00138  -0.00100   0.00038   1.92461
    R4        2.87450  -0.00021  -0.00053  -0.00002  -0.00055   2.87395
    R5        2.09068  -0.00018  -0.00009  -0.00025  -0.00033   2.09035
    R6        2.07144  -0.00031   0.00050  -0.00118  -0.00068   2.07076
    R7        2.66572  -0.00019  -0.00288   0.00098  -0.00189   2.66383
    R8        2.09106  -0.00030   0.00135  -0.00138  -0.00003   2.09103
    R9        2.08717  -0.00004   0.00077  -0.00033   0.00045   2.08761
   R10        2.66202  -0.00017  -0.00172   0.00059  -0.00113   2.66090
   R11        2.08396  -0.00011   0.00034  -0.00038  -0.00004   2.08392
   R12        2.08298  -0.00012   0.00041  -0.00047  -0.00006   2.08291
   R13        2.06439  -0.00006  -0.00069   0.00026  -0.00043   2.06397
    A1        1.91725   0.00007  -0.00237   0.00154  -0.00083   1.91643
    A2        1.91275  -0.00000  -0.00039  -0.00005  -0.00045   1.91230
    A3        1.85459   0.00000  -0.00472   0.00232  -0.00241   1.85218
    A4        1.94881  -0.00001   0.00198  -0.00091   0.00105   1.94986
    A5        1.99779   0.00008  -0.00377   0.00352  -0.00025   1.99754
    A6        1.89225  -0.00009   0.00236  -0.00358  -0.00124   1.89101
    A7        1.86966   0.00005  -0.00328   0.00380   0.00052   1.87018
    A8        1.88444  -0.00003   0.00390  -0.00341   0.00048   1.88491
    A9        1.86628  -0.00000  -0.00082   0.00025  -0.00056   1.86572
   A10        1.91918  -0.00019   0.00107  -0.00058   0.00048   1.91966
   A11        1.91981  -0.00016   0.00089  -0.00258  -0.00170   1.91811
   A12        1.90524  -0.00001  -0.00155   0.00113  -0.00043   1.90481
   A13        1.92897   0.00011   0.00242  -0.00162   0.00080   1.92977
   A14        1.92779   0.00017   0.00007   0.00174   0.00181   1.92960
   A15        1.86200   0.00007  -0.00303   0.00200  -0.00103   1.86097
   A16        1.96255  -0.00003   0.00023   0.00076   0.00098   1.96353
   A17        1.95482  -0.00003   0.00067  -0.00068  -0.00001   1.95480
   A18        1.95174   0.00007   0.00058   0.00006   0.00064   1.95237
   A19        1.87446  -0.00004   0.00005   0.00045   0.00050   1.87496
   A20        1.88342   0.00007  -0.00209   0.00130  -0.00079   1.88263
   A21        1.89929  -0.00002   0.00033  -0.00049  -0.00016   1.89913
   A22        1.89899  -0.00005   0.00050  -0.00068  -0.00019   1.89881
    D1        3.11861  -0.00022  -0.01135  -0.01547  -0.02682   3.09179
    D2       -1.03668  -0.00010  -0.01701  -0.00847  -0.02549  -1.06217
    D3        1.04474  -0.00012  -0.01879  -0.00845  -0.02724   1.01749
    D4       -1.13318  -0.00018  -0.01868  -0.01180  -0.03047  -1.16365
    D5        0.99472  -0.00006  -0.02434  -0.00480  -0.02914   0.96558
    D6        3.07613  -0.00008  -0.02612  -0.00478  -0.03089   3.04524
    D7       -1.18820   0.00015  -0.01352   0.01689   0.00336  -1.18484
    D8        0.94010   0.00007  -0.00923   0.01280   0.00356   0.94366
    D9        2.97755   0.00006  -0.01330   0.01440   0.00110   2.97865
   D10        2.89484   0.00003  -0.00771   0.01032   0.00260   2.89745
   D11       -1.26004  -0.00006  -0.00342   0.00623   0.00280  -1.25723
   D12        0.77741  -0.00006  -0.00748   0.00782   0.00034   0.77775
   D13        0.89031   0.00001  -0.00703   0.00979   0.00276   0.89307
   D14        3.01861  -0.00007  -0.00274   0.00570   0.00296   3.02158
   D15       -1.22712  -0.00008  -0.00680   0.00730   0.00050  -1.22662
   D16        3.10781  -0.00006   0.00565  -0.00300   0.00265   3.11047
   D17        0.98497   0.00019   0.00226   0.00168   0.00394   0.98890
   D18       -1.07150  -0.00008   0.00445  -0.00086   0.00359  -1.06790
   D19        1.05153   0.00006  -0.00072   0.00034  -0.00039   1.05114
   D20       -1.06515  -0.00006   0.00108  -0.00090   0.00019  -1.06496
   D21        3.13586  -0.00001   0.00010  -0.00038  -0.00027   3.13559
         Item               Value     Threshold  Converged?
 Maximum Force            0.000413     0.000450     YES
 RMS     Force            0.000130     0.000300     YES
 Maximum Displacement     0.041685     0.001800     NO 
 RMS     Displacement     0.009425     0.001200     NO 
 Predicted change in Energy=-1.207510D-05
 GradGradGradGradGradGradGradGradGradGradGradGradGradGradGradGradGradGrad

                          Input orientation:                          
 ---------------------------------------------------------------------
 Center     Atomic      Atomic             Coordinates (Angstroms)
 Number     Number       Type             X           Y           Z
 ---------------------------------------------------------------------
      1          7           0       -0.330554   -1.268807   -2.112886
      2          6           0        0.685739   -0.313902   -1.672916
      3          6           0        0.812436   -0.285085   -0.157649
      4          8           0       -0.355939    0.258940    0.413327
      5          6           0       -0.311563    0.273573    1.820638
      6          1           0       -0.424217   -1.230488   -3.124830
      7          1           0       -0.026993   -2.215695   -1.892615
      8          1           0        1.696662   -0.500514   -2.081336
      9          1           0        0.386943    0.686118   -2.006769
     10          1           0        0.992158   -1.307750    0.224786
     11          1           0        1.696404    0.316275    0.120501
     12          1           0        0.530080    0.875978    2.201200
     13          1           0       -0.217003   -0.741825    2.238893
     14          1           0       -1.247155    0.713483    2.172856
 ---------------------------------------------------------------------
                    Distance matrix (angstroms):
                    1          2          3          4          5
     1  N    0.000000
     2  C    1.462282   0.000000
     3  C    2.469227   1.520828   0.000000
     4  O    2.952355   2.401177   1.409637   0.000000
     5  C    4.225151   3.680307   2.342881   1.408087   0.000000
     6  H    1.016992   2.044550   3.350710   3.839481   5.170353
     7  H    1.018462   2.042810   2.728003   3.398439   4.479473
     8  H    2.168150   1.106163   2.128107   3.318627   4.456185
     9  H    2.085137   1.095800   2.131554   2.567337   3.912435
    10  H    2.686223   2.164001   1.106526   2.075435   2.597501
    11  H    3.407207   2.152885   1.104718   2.073921   2.631391
    12  H    4.894091   4.055714   2.644232   2.088602   1.102761
    13  H    4.385040   4.037364   2.647974   2.086510   1.102230
    14  H    4.810115   4.425106   3.266543   2.024060   1.092204
                    6          7          8          9         10
     6  H    0.000000
     7  H    1.626891   0.000000
     8  H    2.473837   2.438944   0.000000
     9  H    2.362503   2.933410   1.768904   0.000000
    10  H    3.637584   2.519211   2.542864   3.053135   0.000000
    11  H    4.173930   3.665189   2.348454   2.525223   1.773216
    12  H    5.806417   5.160242   4.647124   4.214681   2.981341
    13  H    5.389921   4.390644   4.731250   4.519891   2.416395
    14  H    5.702783   5.157221   5.313944   4.487793   3.590944
                   11         12         13         14
    11  H    0.000000
    12  H    2.450078   0.000000
    13  H    3.044386   1.782369   0.000000
    14  H    3.610328   1.784873   1.784235   0.000000
 Stoichiometry    C3H9NO
 Framework group  C1[X(C3H9NO)]
 Deg. of freedom    36
 Full point group                 C1      NOp   1
[...]
 ---------------------------------------------------------------------
 Center     Atomic      Atomic             Coordinates (Angstroms)
 Number     Number       Type             X           Y           Z
 ---------------------------------------------------------------------
      1          7           0        1.950952   -0.738062    0.110634
      2          6           0        1.331641    0.539833   -0.239463
      3          6           0       -0.090928    0.637184    0.290756
      4          8           0       -0.923064   -0.264297   -0.405114
      5          6           0       -2.246676   -0.256093    0.076188
      6          1           0        2.858538   -0.817550   -0.339988
      7          1           0        2.125277   -0.772194    1.112830
      8          1           0        1.879927    1.429264    0.122541
      9          1           0        1.289158    0.613811   -1.331627
     10          1           0       -0.104193    0.419965    1.374912
     11          1           0       -0.454608    1.672854    0.168261
     12          1           0       -2.715255    0.737328   -0.020369
     13          1           0       -2.299741   -0.555297    1.135486
     14          1           0       -2.815478   -0.972916   -0.520457
 ---------------------------------------------------------------------
 Rotational constants (GHZ):          13.4499558           2.5388146           2.3585196
 Standard basis: def2TZVP (5D, 7F)
 There are   234 symmetry adapted cartesian basis functions of A   symmetry.
 There are   209 symmetry adapted basis functions of A   symmetry.
   209 basis functions,   327 primitive gaussians,   234 cartesian basis functions
    21 alpha electrons       21 beta electrons
       nuclear repulsion energy       191.7523033174 Hartrees.
 NAtoms=   14 NActive=   14 NUniq=   14 SFac= 1.00D+00 NAtFMM=   60 NAOKFM=F Big=F
 Integral buffers will be    131072 words long.
 Raffenetti 2 integral format.
 Two-electron integral symmetry is turned on.
 One-electron integrals computed using PRISM.
   1 Symmetry operations used in ECPInt.
 ECPInt:  NShTT=    4186 NPrTT=   12072 LenC2=    4137 LenP2D=    9955.
 LDataN:  DoStor=T MaxTD1= 6 Len=  172
 NBasis=   209 RedAO= T EigKep=  3.29D-04  NBF=   209
 NBsUse=   209 1.00D-06 EigRej= -1.00D+00 NBFU=   209
 Initial guess from the checkpoint file:  "N1_conf-8.chk"
 B after Tr=     0.000000   -0.000000   -0.000000
         Rot=    1.000000   -0.000000   -0.000000    0.000000 Ang=   0.00 deg.
 Requested convergence on RMS density matrix=1.00D-08 within 128 cycles.
 Requested convergence on MAX density matrix=1.00D-06.
 Requested convergence on             energy=1.00D-06.
 No special actions if energy rises.
 SCF Done:  E(RM062X) =  -249.666991887     A.U. after    1 cycles
            NFock=  1  Conv=0.16D-08     -V/T= 2.0052
 DoSCS=F DFT=T ScalE2(SS,OS)=  1.000000  1.000000
 Range of M.O.s used for correlation:     1   209
 NBasis=   209 NAE=    21 NBE=    21 NFC=     0 NFV=     0
 NROrb=    209 NOA=    21 NOB=    21 NVA=   188 NVB=   188

 **** Warning!!: The largest alpha MO coefficient is  0.12673296D+02

          Differentiating once with respect to magnetic field using GIAOs.
          Electric field/nuclear overlap derivatives assumed to be zero.
 FoFCou: FMM=F IPFlag=           0 FMFlag=      100000 FMFlg1=           0
         NFxFlg=           0 DoJE=F BraDBF=F KetDBF=T FulRan=T
         wScrn=  0.000000 ICntrl=      6100 IOpCl=  0 I1Cent=           7 NGrid=          14
         NMat0=    1 NMatS0=      1 NMatT0=    0 NMatD0=    1 NMtDS0=    0 NMtDT0=    0
 Symmetry not used in FoFCou.
   1 Symmetry operations used in ECPInt.
 ECPInt:  NShTT=    4186 NPrTT=   12072 LenC2=    4187 LenP2D=   12072.
 LDataN:  DoStor=T MaxTD1= 7 Len=  274
 FoFJK:  IHMeth= 1 ICntrl=    6127 DoSepK=F KAlg= 0 I1Cent=           0 FoldK=F
 IRaf=         1 NMat=       1 IRICut=       1 DoRegI=T DoRafI=F ISym2E= 0 IDoP0=0 IntGTp=1.
          There are     3 degrees of freedom in the 1st order CPHF.  IDoFFX=0 NUNeed=     3.
      3 vectors produced by pass  0 Test12= 1.32D-13 3.33D-08 XBig12= 2.50D+00 2.63D-01.
 AX will form     3 AO Fock derivatives at one time.
      3 vectors produced by pass  1 Test12= 1.32D-13 3.33D-08 XBig12= 1.01D-02 2.15D-02.
      3 vectors produced by pass  2 Test12= 1.32D-13 3.33D-08 XBig12= 8.29D-05 2.81D-03.
      3 vectors produced by pass  3 Test12= 1.32D-13 3.33D-08 XBig12= 9.52D-07 3.08D-04.
      3 vectors produced by pass  4 Test12= 1.32D-13 3.33D-08 XBig12= 1.17D-08 2.51D-05.
      3 vectors produced by pass  5 Test12= 1.32D-13 3.33D-08 XBig12= 1.06D-10 1.95D-06.
      3 vectors produced by pass  6 Test12= 1.32D-13 3.33D-08 XBig12= 6.77D-13 1.17D-07.
 InvSVY:  IOpt=1 It=  1 EMax= 2.22D-16
 Solved reduced A of dimension    21 with     3 vectors.
 Calculating GIAO nuclear magnetic shielding tensors.
 SCF GIAO Magnetic shielding tensor (ppm):
      1  N    Isotropic =   231.1173   Anisotropy =    43.0722
   XX=   223.3413   YX=   -15.7336   ZX=   -22.6847
   XY=   -32.5661   YY=   222.7716   ZY=   -11.5791
   XZ=   -20.0444   YZ=   -14.0280   ZZ=   247.2389
   Eigenvalues:   188.8278   244.6919   259.8321
      2  C    Isotropic =   138.2673   Anisotropy =    22.4557
   XX=   146.9027   YX=    -3.5763   ZX=     1.9338
   XY=   -10.1771   YY=   143.9164   ZY=    -5.0408
   XZ=     4.2699   YZ=    -2.5768   ZZ=   123.9827
   Eigenvalues:   123.1271   138.4370   153.2377
      3  C    Isotropic =   106.8174   Anisotropy =    65.3945
   XX=   125.4946   YX=    21.0238   ZX=    14.1793
   XY=    29.3381   YY=   102.1849   ZY=    20.8682
   XZ=    16.3293   YZ=    14.6503   ZZ=    92.7726
   Eigenvalues:    78.6583    91.3801   150.4137
      4  O    Isotropic =   309.7829   Anisotropy =    45.1199
   XX=   308.6677   YX=     6.8187   ZX=    -5.3923
   XY=    16.6327   YY=   292.8531   ZY=    17.9965
   XZ=     2.0580   YZ=    28.3754   ZZ=   327.8278
   Eigenvalues:   277.2501   312.2357   339.8628
      5  C    Isotropic =   125.3436   Anisotropy =    89.8463
   XX=   178.1935   YX=     6.3202   ZX=   -22.1965
   XY=     3.5773   YY=    94.9250   ZY=    -1.8240
   XZ=   -24.7445   YZ=    -3.2532   ZZ=   102.9121
   Eigenvalues:    94.0537    96.7359   185.2411
      6  H    Isotropic =    31.5022   Anisotropy =    14.8058
   XX=    37.4050   YX=    -3.6788   ZX=    -6.0490
   XY=    -5.4956   YY=    27.5453   ZY=     0.5160
   XZ=    -4.9254   YZ=    -1.1975   ZZ=    29.5564
   Eigenvalues:    24.2559    28.8780    41.3728
      7  H    Isotropic =    32.0772   Anisotropy =    12.7317
   XX=    29.4608   YX=    -3.7820   ZX=     3.1574
   XY=    -2.2833   YY=    27.7662   ZY=    -3.6421
   XZ=     2.3007   YZ=    -1.3945   ZZ=    39.0045
   Eigenvalues:    25.4536    30.2130    40.5650
      8  H    Isotropic =    28.9359   Anisotropy =     8.7034
   XX=    29.3364   YX=     1.2782   ZX=     0.9708
   XY=     2.7638   YY=    33.9107   ZY=     0.4890
   XZ=     1.5321   YZ=     0.3379   ZZ=    23.5607
   Eigenvalues:    23.3012    28.7683    34.7382
      9  H    Isotropic =    29.0515   Anisotropy =     6.5006
   XX=    27.9175   YX=    -0.9417   ZX=    -0.0746
   XY=    -1.2452   YY=    27.8389   ZY=    -3.7575
   XZ=    -0.6868   YZ=    -2.8586   ZZ=    31.3983
   Eigenvalues:    25.3584    28.4109    33.3853
     10  H    Isotropic =    28.8306   Anisotropy =     5.3448
   XX=    29.1070   YX=     0.8211   ZX=     2.0354
   XY=     0.0746   YY=    26.3583   ZY=     2.9530
   XZ=     0.4770   YZ=     1.3095   ZZ=    31.0264
   Eigenvalues:    25.5312    28.5667    32.3938
     11  H    Isotropic =    28.6051   Anisotropy =     5.5731
   XX=    28.3392   YX=     1.2123   ZX=     0.5955
   XY=    -1.3324   YY=    32.0981   ZY=     1.1642
   XZ=     0.1884   YZ=     1.3207   ZZ=    25.3779
   Eigenvalues:    25.1070    28.3878    32.3204
     12  H    Isotropic =    28.7976   Anisotropy =     8.4109
   XX=    32.7473   YX=    -4.7612   ZX=    -0.6471
   XY=    -1.9751   YY=    27.4645   ZY=    -0.9017
   XZ=    -0.6025   YZ=     0.1169   ZZ=    26.1811
   Eigenvalues:    25.3462    26.6418    34.4049
     13  H    Isotropic =    28.8083   Anisotropy =     8.2665
   XX=    30.1964   YX=     1.0346   ZX=    -5.2804
   XY=     0.8947   YY=    26.4129   ZY=    -1.9230
   XZ=    -2.2765   YZ=    -1.9641   ZZ=    29.8156
   Eigenvalues:    25.3140    26.7916    34.3193
     14  H    Isotropic =    28.2613   Anisotropy =     9.0638
   XX=    32.7512   YX=     4.1441   ZX=     1.8562
   XY=     2.3214   YY=    26.4863   ZY=     1.4108
   XZ=    -0.0631   YZ=     0.8410   ZZ=    25.5465
   Eigenvalues:    24.5488    25.9313    34.3039
 End of Minotr F.D. properties file   721 does not exist.
 End of Minotr F.D. properties file   722 does not exist.
 End of Minotr F.D. properties file   788 does not exist.

 **********************************************************************

            Population analysis using the SCF Density.

 **********************************************************************

 Orbital symmetries:
       Occupied  (A) (A) (A) (A) (A) (A) (A) (A) (A) (A) (A) (A)
                 (A) (A) (A) (A) (A) (A) (A) (A) (A)
       Virtual   (A) (A) (A) (A) (A) (A) (A) (A) (A) (A) (A) (A)
                 (A) (A) (A) (A) (A) (A) (A) (A) (A) (A) (A) (A)
                 (A) (A) (A) (A) (A) (A) (A) (A) (A) (A) (A) (A)
                 (A) (A) (A) (A) (A) (A) (A) (A) (A) (A) (A) (A)
                 (A) (A) (A) (A) (A) (A) (A) (A) (A) (A) (A) (A)
                 (A) (A) (A) (A) (A) (A) (A) (A) (A) (A) (A) (A)
                 (A) (A) (A) (A) (A) (A) (A) (A) (A) (A) (A) (A)
                 (A) (A) (A) (A) (A) (A) (A) (A) (A) (A) (A) (A)
                 (A) (A) (A) (A) (A) (A) (A) (A) (A) (A) (A) (A)
                 (A) (A) (A) (A) (A) (A) (A) (A) (A) (A) (A) (A)
                 (A) (A) (A) (A) (A) (A) (A) (A) (A) (A) (A) (A)
                 (A) (A) (A) (A) (A) (A) (A) (A) (A) (A) (A) (A)
                 (A) (A) (A) (A) (A) (A) (A) (A) (A) (A) (A) (A)
                 (A) (A) (A) (A) (A) (A) (A) (A) (A) (A) (A) (A)
                 (A) (A) (A) (A) (A) (A) (A) (A) (A) (A) (A) (A)
                 (A) (A) (A) (A) (A) (A) (A) (A)
 The electronic state is 1-A.
 Alpha  occ. eigenvalues --  -19.62085 -14.72303 -10.57968 -10.57294 -10.55817
 Alpha  occ. eigenvalues --   -1.15334  -0.98427  -0.83483  -0.75278  -0.68214
 Alpha  occ. eigenvalues --   -0.57373  -0.56380  -0.54162  -0.51512  -0.49990
 Alpha  occ. eigenvalues --   -0.46052  -0.43128  -0.41565  -0.38398  -0.32933
 Alpha  occ. eigenvalues --   -0.30526
 Alpha virt. eigenvalues --    0.06252   0.08616   0.10833   0.11116   0.13337
 Alpha virt. eigenvalues --    0.14780   0.14951   0.15325   0.16276   0.18476
 Alpha virt. eigenvalues --    0.19816   0.22825   0.23913   0.25587   0.25787
 Alpha virt. eigenvalues --    0.31913   0.34395   0.35050   0.35646   0.37830
 Alpha virt. eigenvalues --    0.38181   0.39951   0.43598   0.44079   0.46150
 Alpha virt. eigenvalues --    0.46444   0.48678   0.49018   0.49839   0.51598
 Alpha virt. eigenvalues --    0.52192   0.52752   0.55071   0.56593   0.57697
 Alpha virt. eigenvalues --    0.58216   0.59085   0.64682   0.68119   0.71176
 Alpha virt. eigenvalues --    0.72774   0.76623   0.80497   0.84508   0.86315
 Alpha virt. eigenvalues --    0.91332   0.91706   0.96068   0.98418   1.01694
 Alpha virt. eigenvalues --    1.04519   1.10427   1.11430   1.15822   1.18200
 Alpha virt. eigenvalues --    1.20085   1.23592   1.27967   1.35501   1.36788
 Alpha virt. eigenvalues --    1.42686   1.46109   1.47630   1.51808   1.56237
 Alpha virt. eigenvalues --    1.57097   1.58424   1.59200   1.61658   1.64287
 Alpha virt. eigenvalues --    1.67997   1.69179   1.70052   1.73855   1.76707
 Alpha virt. eigenvalues --    1.78350   1.80277   1.83859   1.90452   1.94019
 Alpha virt. eigenvalues --    1.94448   1.97013   1.98804   2.02517   2.03151
 Alpha virt. eigenvalues --    2.04929   2.05568   2.06912   2.08883   2.13705
 Alpha virt. eigenvalues --    2.19327   2.26776   2.29107   2.32030   2.33089
 Alpha virt. eigenvalues --    2.35303   2.38093   2.41132   2.41788   2.46220
 Alpha virt. eigenvalues --    2.48881   2.51131   2.52574   2.53869   2.56405
 Alpha virt. eigenvalues --    2.58256   2.59355   2.60952   2.64488   2.68181
 Alpha virt. eigenvalues --    2.69167   2.70607   2.74245   2.78219   2.82062
 Alpha virt. eigenvalues --    2.83979   2.89798   2.92663   2.99585   3.07322
 Alpha virt. eigenvalues --    3.09365   3.09834   3.12828   3.16019   3.16524
 Alpha virt. eigenvalues --    3.19340   3.21451   3.22348   3.24198   3.28396
 Alpha virt. eigenvalues --    3.30110   3.32470   3.38375   3.39933   3.40965
 Alpha virt. eigenvalues --    3.43454   3.47596   3.54193   3.58175   3.60781
 Alpha virt. eigenvalues --    3.63521   3.68696   3.77284   3.78754   3.82376
 Alpha virt. eigenvalues --    3.83800   3.89732   4.02650   4.05163   4.13019
 Alpha virt. eigenvalues --    4.17539   4.21757   4.27933   4.31311   4.32255
 Alpha virt. eigenvalues --    4.37559   4.45266   4.49247   4.53395   4.63231
 Alpha virt. eigenvalues --    4.74139   4.78556   4.82888   4.87308   4.89417
 Alpha virt. eigenvalues --    5.06385   5.07744   5.15941   5.25146   5.41049
 Alpha virt. eigenvalues --    5.47107   5.51628   5.72650   5.76592   5.83773
 Alpha virt. eigenvalues --    5.85162   6.12638   6.18672   6.69680   6.70382
 Alpha virt. eigenvalues --    6.85009   7.16030   7.24329  22.40125  22.50327
 Alpha virt. eigenvalues --   22.59849  32.01893  44.17417
          Condensed to atoms (all electrons):
               1          2          3          4          5          6
     1  N    6.676896   0.262907  -0.032696  -0.003809  -0.000438   0.370341
     2  C    0.262907   4.940944   0.297439  -0.046033   0.006010  -0.048129
     3  C   -0.032696   0.297439   4.913714   0.251073  -0.068791   0.011656
     4  O   -0.003809  -0.046033   0.251073   8.045335   0.250422  -0.000339
     5  C   -0.000438   0.006010  -0.068791   0.250422   4.842405   0.000076
     6  H    0.370341  -0.048129   0.011656  -0.000339   0.000076   0.485899
     7  H    0.362545  -0.034050  -0.012127   0.000286  -0.000105  -0.036118
     8  H   -0.061019   0.434609  -0.058389   0.004393  -0.000602  -0.004418
     9  H   -0.034410   0.414467  -0.034430   0.004033   0.000036  -0.007081
    10  H   -0.008886  -0.034597   0.410863  -0.049760  -0.006992  -0.000153
    11  H    0.006352  -0.036919   0.421403  -0.046020  -0.007496  -0.000765
    12  H   -0.000012   0.000307  -0.011547  -0.044036   0.415978  -0.000001
    13  H   -0.000110  -0.000599  -0.012387  -0.044782   0.420130   0.000002
    14  H    0.000097  -0.000152   0.010872  -0.033836   0.398393  -0.000004
               7          8          9         10         11         12
     1  N    0.362545  -0.061019  -0.034410  -0.008886   0.006352  -0.000012
     2  C   -0.034050   0.434609   0.414467  -0.034597  -0.036919   0.000307
     3  C   -0.012127  -0.058389  -0.034430   0.410863   0.421403  -0.011547
     4  O    0.000286   0.004393   0.004033  -0.049760  -0.046020  -0.044036
     5  C   -0.000105  -0.000602   0.000036  -0.006992  -0.007496   0.415978
     6  H   -0.036118  -0.004418  -0.007081  -0.000153  -0.000765  -0.000001
     7  H    0.491836  -0.009187   0.008351   0.004468  -0.000005   0.000014
     8  H   -0.009187   0.621638  -0.041229  -0.003418   0.002821  -0.000004
     9  H    0.008351  -0.041229   0.553528   0.010170  -0.008398  -0.000336
    10  H    0.004468  -0.003418   0.010170   0.622775  -0.063591  -0.006493
    11  H   -0.000005   0.002821  -0.008398  -0.063591   0.608495   0.014217
    12  H    0.000014  -0.000004  -0.000336  -0.006493   0.014217   0.600304
    13  H   -0.000034   0.000065   0.000282   0.014912  -0.005653  -0.063506
    14  H    0.000000   0.000002  -0.000031  -0.000125  -0.000085  -0.026434
              13         14
     1  N   -0.000110   0.000097
     2  C   -0.000599  -0.000152
     3  C   -0.012387   0.010872
     4  O   -0.044782  -0.033836
     5  C    0.420130   0.398393
     6  H    0.000002  -0.000004
     7  H   -0.000034   0.000000
     8  H    0.000065   0.000002
     9  H    0.000282  -0.000031
    10  H    0.014912  -0.000125
    11  H   -0.005653  -0.000085
    12  H   -0.063506  -0.026434
    13  H    0.591495  -0.024795
    14  H   -0.024795   0.535470
 Mulliken charges:
               1
     1  N   -0.537758
     2  C   -0.156206
     3  C   -0.086652
     4  O   -0.286926
     5  C   -0.249027
     6  H    0.229032
     7  H    0.224124
     8  H    0.114739
     9  H    0.135049
    10  H    0.110825
    11  H    0.115644
    12  H    0.121549
    13  H    0.124979
    14  H    0.140628
 Sum of Mulliken charges =  -0.00000
 Mulliken charges with hydrogens summed into heavy atoms:
               1
     1  N   -0.084602
     2  C    0.093582
     3  C    0.139817
     4  O   -0.286926
     5  C    0.138129
 Electronic spatial extent (au):  <R**2>=            566.2445
 Charge=             -0.0000 electrons
 Dipole moment (field-independent basis, Debye):
    X=              0.5579    Y=              1.5894    Z=              1.2494  Tot=              2.0972
 Quadrupole moment (field-independent basis, Debye-Ang):
   XX=            -25.4329   YY=            -34.6845   ZZ=            -31.7505
   XY=              0.6248   XZ=             -0.0518   YZ=             -0.9248
 Traceless Quadrupole moment (field-independent basis, Debye-Ang):
   XX=              5.1897   YY=             -4.0618   ZZ=             -1.1279
   XY=              0.6248   XZ=             -0.0518   YZ=             -0.9248
 Octapole moment (field-independent basis, Debye-Ang**2):
  XXX=              8.7709  YYY=              1.6058  ZZZ=              0.5311  XYY=             -2.6370
  XXY=             -5.9975  XXZ=             -0.9809  XZZ=              4.1437  YZZ=             -2.2195
  YYZ=             -0.1869  XYZ=             -0.9917
 Hexadecapole moment (field-independent basis, Debye-Ang**3):
 XXXX=           -496.8656 YYYY=           -122.9442 ZZZZ=            -69.3853 XXXY=            -10.9397
 XXXZ=              2.7993 YYYX=              2.6380 YYYZ=             -0.2720 ZZZX=              3.9711
 ZZZY=             -2.6756 XXYY=           -111.0011 XXZZ=            -99.5082 YYZZ=            -31.7905
 XXYZ=              0.5292 YYXZ=              3.6600 ZZXY=             -1.5769
 N-N= 1.917523033174D+02 E-N=-9.663204095494D+02  KE= 2.483746373384D+02
 Unable to Open any file for archive entry.
 1\1\GINC-NOTCH072\SP\RM062X\def2TZVP\C3H9N1O1\U6032257\21-Feb-2022\0\\
 # M062X/def2tzvp int=(grid=ultrafine) nmr=giao guess=read geom=check\\
 N1.xyz\\0,1\N,0,-0.3213272719,-1.2842380744,-2.1054148757\C,0,0.686993
 929,-0.3183840545,-1.6700493738\C,0,0.8153701868,-0.2867693921,-0.1545
 189522\O,0,-0.3507961673,0.2681997137,0.4124182619\C,0,-0.3123612493,0
 .2785727985,1.8202825844\H,0,-0.4581957211,-1.2123083357,-3.1099966467
 \H,0,0.0103109619,-2.2301958777,-1.9289731259\H,0,1.6977609528,-0.4935
 016289,-2.0828875263\H,0,0.3749732086,0.6779272408,-2.0018746348\H,0,0
 .9852813716,-1.309442699,0.2302195063\H,0,1.7023018419,0.3100942121,0.
 1229440177\H,0,0.5333793703,0.871539817,2.2061418263\H,0,-0.2315877644
 ,-0.7388872555,2.2358582617\H,0,-1.2451036489,0.7276935357,2.169050677
 \\Version=ES64L-G16RevC.01\State=1-A\HF=-249.6669919\RMSD=1.554e-09\Di
 pole=0.7754264,-0.2768281,-0.0537854\Quadrupole=-3.0452631,-0.3247113,
 3.3699743,-0.5254111,-1.0156898,1.1703097\PG=C01 [X(C3H9N1O1)]\\@
 The archive entry for this job was punched.


 ALL MEN WHO EXPLORE
 DEPLORE
 THAT FRUSTRATING HURDLE
 THE GIRDLE.

         -- COLIN FLETCHER
 Job cpu time:       0 days  0 hours  4 minutes 24.1 seconds.
 Elapsed time:       0 days  0 hours  0 minutes 10.0 seconds.
 File lengths (MBytes):  RWF=     30 Int=      0 D2E=      0 Chk=      5 Scr=      1
 Normal termination of Gaussian 16 at Mon Feb 21 19:01:09 2022.
