 Entering Gaussian System, Link 0=/uufs/chpc.utah.edu/sys/installdir/gaussian16/C01/AVX2/g16/g16
 Input=N2_conf-3.com
 Output=N2_conf-3.log
 Initial command:
 /uufs/chpc.utah.edu/sys/installdir/gaussian16/C01/AVX2/g16/l1.exe "/scratch/local/u6032257/4038570/notchpeak.peaks/Gau-13479.inp" -scrdir="/scratch/local/u6032257/4038570/notchpeak.peaks/"
 Entering Link 1 = /uufs/chpc.utah.edu/sys/installdir/gaussian16/C01/AVX2/g16/l1.exe PID=     13481.
  
 Copyright (c) 1988-2019, Gaussian, Inc.  All Rights Reserved.
  
 This is part of the Gaussian(R) 16 program.  It is based on
 the Gaussian(R) 09 system (copyright 2009, Gaussian, Inc.),
 the Gaussian(R) 03 system (copyright 2003, Gaussian, Inc.),
 the Gaussian(R) 98 system (copyright 1998, Gaussian, Inc.),
 the Gaussian(R) 94 system (copyright 1995, Gaussian, Inc.),
 the Gaussian 92(TM) system (copyright 1992, Gaussian, Inc.),
 the Gaussian 90(TM) system (copyright 1990, Gaussian, Inc.),
 the Gaussian 88(TM) system (copyright 1988, Gaussian, Inc.),
 the Gaussian 86(TM) system (copyright 1986, Carnegie Mellon
 University), and the Gaussian 82(TM) system (copyright 1983,
 Carnegie Mellon University). Gaussian is a federally registered
 trademark of Gaussian, Inc.
  
 This software contains proprietary and confidential information,
 including trade secrets, belonging to Gaussian, Inc.
  
 This software is provided under written license and may be
 used, copied, transmitted, or stored only in accord with that
 written license.
  
 The following legend is applicable only to US Government
 contracts under FAR:
  
                    RESTRICTED RIGHTS LEGEND
  
 Use, reproduction and disclosure by the US Government is
 subject to restrictions as set forth in subparagraphs (a)
 and (c) of the Commercial Computer Software - Restricted
 Rights clause in FAR 52.227-19.
  
 Gaussian, Inc.
 340 Quinnipiac St., Bldg. 40, Wallingford CT 06492
  
  
 ---------------------------------------------------------------
 Warning -- This program may not be used in any manner that
 competes with the business of Gaussian, Inc. or will provide
 assistance to any competitor of Gaussian, Inc.  The licensee
 of this program is prohibited from giving any competitor of
 Gaussian, Inc. access to this program.  By using this program,
 the user acknowledges that Gaussian, Inc. is engaged in the
 business of creating and licensing software in the field of
 computational chemistry and represents and warrants to the
 licensee that it is not a competitor of Gaussian, Inc. and that
 it will not use this program in any manner prohibited above.
 ---------------------------------------------------------------
  

 Cite this work as:
 Gaussian 16, Revision C.01,
 M. J. Frisch, G. W. Trucks, H. B. Schlegel, G. E. Scuseria, 
 M. A. Robb, J. R. Cheeseman, G. Scalmani, V. Barone, 
 G. A. Petersson, H. Nakatsuji, X. Li, M. Caricato, A. V. Marenich, 
 J. Bloino, B. G. Janesko, R. Gomperts, B. Mennucci, H. P. Hratchian, 
 J. V. Ortiz, A. F. Izmaylov, J. L. Sonnenberg, D. Williams-Young, 
 F. Ding, F. Lipparini, F. Egidi, J. Goings, B. Peng, A. Petrone, 
 T. Henderson, D. Ranasinghe, V. G. Zakrzewski, J. Gao, N. Rega, 
 G. Zheng, W. Liang, M. Hada, M. Ehara, K. Toyota, R. Fukuda, 
 J. Hasegawa, M. Ishida, T. Nakajima, Y. Honda, O. Kitao, H. Nakai, 
 T. Vreven, K. Throssell, J. A. Montgomery, Jr., J. E. Peralta, 
 F. Ogliaro, M. J. Bearpark, J. J. Heyd, E. N. Brothers, K. N. Kudin, 
 V. N. Staroverov, T. A. Keith, R. Kobayashi, J. Normand, 
 K. Raghavachari, A. P. Rendell, J. C. Burant, S. S. Iyengar, 
 J. Tomasi, M. Cossi, J. M. Millam, M. Klene, C. Adamo, R. Cammi, 
 J. W. Ochterski, R. L. Martin, K. Morokuma, O. Farkas, 
 J. B. Foresman, and D. J. Fox, Gaussian, Inc., Wallingford CT, 2019.
 
 ******************************************
 Gaussian 16:  ES64L-G16RevC.01  3-Jul-2019
                21-Feb-2022 
 ******************************************
 %NProcShared=64
 Will use up to   64 processors via shared memory.
 %mem=16GB
 %chk=N2_conf-3.chk
 ----------------------------------------------------------------------
 # B3LYP/6-31G(d,p) empiricaldispersion=GD3BJ int=(grid=ultrafine) opt 
 freq=noraman
 ----------------------------------------------------------------------
 1/18=20,19=15,26=4,38=1/1,3;
 2/9=110,12=2,17=6,18=5,40=1/2;
 3/5=1,6=6,7=101,11=2,25=1,30=1,71=1,74=-5,75=-5,124=41/1,2,3;
 4//1;
 5/5=2,38=5/2;
 6/7=2,8=2,9=2,10=2,28=1/1;
 7//1,2,3,16;
 1/18=20,19=15,26=4/3(2);
 2/9=110/2;
 99//99;
 2/9=110/2;
 3/5=1,6=6,7=101,11=2,25=1,30=1,71=1,74=-5,75=-5,124=41/1,2,3;
 4/5=5,16=3,69=1/1;
 5/5=2,38=5/2;
 7//1,2,3,16;
 1/18=20,19=15,26=4/3(-5);
 2/9=110/2;
 6/7=2,8=2,9=2,10=2,19=2,28=1/1;
 99/9=1/99;
 ------
 N2.xyz
 ------
 Symbolic Z-matrix:
 Charge =  0 Multiplicity = 1
 N                     3.2351   -0.2338    1.4764 
 C                     2.2914    0.8689    1.4152 
 C                     1.2168    0.6207    0.3283 
 C                     0.3291   -0.6296    0.5674 
 C                    -0.583    -0.4553    1.8018 
 C                    -1.4568    0.813     1.6842 
 C                    -0.63      2.0745    1.3512 
 C                     0.2887    1.8437    0.1304 
 H                     3.6643   -0.3778    0.5732 
 H                     2.7435   -1.0877    1.7 
 H                     2.8425    1.7852    1.1935 
 H                     1.8383    1.011     2.3976 
 H                     1.7308    0.4735   -0.6236 
 H                    -0.2876   -0.8198   -0.3129 
 H                     0.9457   -1.5181    0.7046 
 H                     0.0225   -0.4011    2.7078 
 H                    -1.2199   -1.333     1.9209 
 H                    -2.0159    0.9674    2.6083 
 H                    -2.2041    0.6602    0.9036 
 H                    -0.0339    2.3622    2.2184 
 H                    -1.2989    2.9147    1.1589 
 H                     0.8842    2.741    -0.0453 
 H                    -0.3248    1.7042   -0.7616 
 

 GradGradGradGradGradGradGradGradGradGradGradGradGradGradGradGradGradGrad
 Berny optimization.
 Initialization pass.
                           ----------------------------
                           !    Initial Parameters    !
                           ! (Angstroms and Degrees)  !
 --------------------------                            --------------------------
 ! Name  Definition              Value          Derivative Info.                !
 --------------------------------------------------------------------------------
 ! R1    R(1,2)                  1.4527         estimate D2E/DX2                !
 ! R2    R(1,9)                  1.0103         estimate D2E/DX2                !
 ! R3    R(1,10)                 1.0104         estimate D2E/DX2                !
 ! R4    R(2,3)                  1.5485         estimate D2E/DX2                !
 ! R5    R(2,11)                 1.092          estimate D2E/DX2                !
 ! R6    R(2,12)                 1.0911         estimate D2E/DX2                !
 ! R7    R(3,4)                  1.5519         estimate D2E/DX2                !
 ! R8    R(3,8)                  1.548          estimate D2E/DX2                !
 ! R9    R(3,13)                 1.0918         estimate D2E/DX2                !
 ! R10   R(4,5)                  1.5447         estimate D2E/DX2                !
 ! R11   R(4,14)                 1.0915         estimate D2E/DX2                !
 ! R12   R(4,15)                 1.0902         estimate D2E/DX2                !
 ! R13   R(5,6)                  1.5446         estimate D2E/DX2                !
 ! R14   R(5,16)                 1.0911         estimate D2E/DX2                !
 ! R15   R(5,17)                 1.091          estimate D2E/DX2                !
 ! R16   R(6,7)                  1.5446         estimate D2E/DX2                !
 ! R17   R(6,18)                 1.0911         estimate D2E/DX2                !
 ! R18   R(6,19)                 1.0914         estimate D2E/DX2                !
 ! R19   R(7,8)                  1.5452         estimate D2E/DX2                !
 ! R20   R(7,20)                 1.0909         estimate D2E/DX2                !
 ! R21   R(7,21)                 1.091          estimate D2E/DX2                !
 ! R22   R(8,22)                 1.0912         estimate D2E/DX2                !
 ! R23   R(8,23)                 1.0916         estimate D2E/DX2                !
 ! A1    A(2,1,9)              110.2738         estimate D2E/DX2                !
 ! A2    A(2,1,10)             109.559          estimate D2E/DX2                !
 ! A3    A(9,1,10)             106.5044         estimate D2E/DX2                !
 ! A4    A(1,2,3)              111.0222         estimate D2E/DX2                !
 ! A5    A(1,2,11)             108.521          estimate D2E/DX2                !
 ! A6    A(1,2,12)             109.3103         estimate D2E/DX2                !
 ! A7    A(3,2,11)             110.0124         estimate D2E/DX2                !
 ! A8    A(3,2,12)             111.3871         estimate D2E/DX2                !
 ! A9    A(11,2,12)            106.4439         estimate D2E/DX2                !
 ! A10   A(2,3,4)              114.7054         estimate D2E/DX2                !
 ! A11   A(2,3,8)              112.2827         estimate D2E/DX2                !
 ! A12   A(2,3,13)             107.8716         estimate D2E/DX2                !
 ! A13   A(4,3,8)              108.2559         estimate D2E/DX2                !
 ! A14   A(4,3,13)             107.1576         estimate D2E/DX2                !
 ! A15   A(8,3,13)             106.1004         estimate D2E/DX2                !
 ! A16   A(3,4,5)              111.7136         estimate D2E/DX2                !
 ! A17   A(3,4,14)             109.8348         estimate D2E/DX2                !
 ! A18   A(3,4,15)             110.6392         estimate D2E/DX2                !
 ! A19   A(5,4,14)             109.3013         estimate D2E/DX2                !
 ! A20   A(5,4,15)             108.9879         estimate D2E/DX2                !
 ! A21   A(14,4,15)            106.203          estimate D2E/DX2                !
 ! A22   A(4,5,6)              111.4593         estimate D2E/DX2                !
 ! A23   A(4,5,16)             109.9681         estimate D2E/DX2                !
 ! A24   A(4,5,17)             109.9488         estimate D2E/DX2                !
 ! A25   A(6,5,16)             109.6561         estimate D2E/DX2                !
 ! A26   A(6,5,17)             109.7945         estimate D2E/DX2                !
 ! A27   A(16,5,17)            105.8609         estimate D2E/DX2                !
 ! A28   A(5,6,7)              112.594          estimate D2E/DX2                !
 ! A29   A(5,6,18)             109.9743         estimate D2E/DX2                !
 ! A30   A(5,6,19)             109.0771         estimate D2E/DX2                !
 ! A31   A(7,6,18)             109.9573         estimate D2E/DX2                !
 ! A32   A(7,6,19)             109.0663         estimate D2E/DX2                !
 ! A33   A(18,6,19)            105.9454         estimate D2E/DX2                !
 ! A34   A(6,7,8)              111.5053         estimate D2E/DX2                !
 ! A35   A(6,7,20)             109.663          estimate D2E/DX2                !
 ! A36   A(6,7,21)             109.8018         estimate D2E/DX2                !
 ! A37   A(8,7,20)             110.0324         estimate D2E/DX2                !
 ! A38   A(8,7,21)             109.8945         estimate D2E/DX2                !
 ! A39   A(20,7,21)            105.7844         estimate D2E/DX2                !
 ! A40   A(3,8,7)              111.9297         estimate D2E/DX2                !
 ! A41   A(3,8,22)             110.0642         estimate D2E/DX2                !
 ! A42   A(3,8,23)             109.9058         estimate D2E/DX2                !
 ! A43   A(7,8,22)             109.1998         estimate D2E/DX2                !
 ! A44   A(7,8,23)             109.302          estimate D2E/DX2                !
 ! A45   A(22,8,23)            106.2746         estimate D2E/DX2                !
 ! D1    D(9,1,2,3)             56.7697         estimate D2E/DX2                !
 ! D2    D(9,1,2,11)           -64.2543         estimate D2E/DX2                !
 ! D3    D(9,1,2,12)          -179.9581         estimate D2E/DX2                !
 ! D4    D(10,1,2,3)           -60.1431         estimate D2E/DX2                !
 ! D5    D(10,1,2,11)          178.833          estimate D2E/DX2                !
 ! D6    D(10,1,2,12)           63.1292         estimate D2E/DX2                !
 ! D7    D(1,2,3,4)             62.1319         estimate D2E/DX2                !
 ! D8    D(1,2,3,8)           -173.731          estimate D2E/DX2                !
 ! D9    D(1,2,3,13)           -57.1779         estimate D2E/DX2                !
 ! D10   D(11,2,3,4)          -177.7263         estimate D2E/DX2                !
 ! D11   D(11,2,3,8)           -53.5892         estimate D2E/DX2                !
 ! D12   D(11,2,3,13)           62.9639         estimate D2E/DX2                !
 ! D13   D(12,2,3,4)           -59.9392         estimate D2E/DX2                !
 ! D14   D(12,2,3,8)            64.1979         estimate D2E/DX2                !
 ! D15   D(12,2,3,13)         -179.249          estimate D2E/DX2                !
 ! D16   D(2,3,4,5)             67.4357         estimate D2E/DX2                !
 ! D17   D(2,3,4,14)          -171.1072         estimate D2E/DX2                !
 ! D18   D(2,3,4,15)           -54.1807         estimate D2E/DX2                !
 ! D19   D(8,3,4,5)            -58.8108         estimate D2E/DX2                !
 ! D20   D(8,3,4,14)            62.6462         estimate D2E/DX2                !
 ! D21   D(8,3,4,15)           179.5727         estimate D2E/DX2                !
 ! D22   D(13,3,4,5)          -172.8564         estimate D2E/DX2                !
 ! D23   D(13,3,4,14)          -51.3993         estimate D2E/DX2                !
 ! D24   D(13,3,4,15)           65.5272         estimate D2E/DX2                !
 ! D25   D(2,3,8,7)            -69.0074         estimate D2E/DX2                !
 ! D26   D(2,3,8,22)            52.6249         estimate D2E/DX2                !
 ! D27   D(2,3,8,23)           169.3405         estimate D2E/DX2                !
 ! D28   D(4,3,8,7)             58.6395         estimate D2E/DX2                !
 ! D29   D(4,3,8,22)          -179.7282         estimate D2E/DX2                !
 ! D30   D(4,3,8,23)           -63.0126         estimate D2E/DX2                !
 ! D31   D(13,3,8,7)           173.3813         estimate D2E/DX2                !
 ! D32   D(13,3,8,22)          -64.9864         estimate D2E/DX2                !
 ! D33   D(13,3,8,23)           51.7293         estimate D2E/DX2                !
 ! D34   D(3,4,5,6)             55.8791         estimate D2E/DX2                !
 ! D35   D(3,4,5,16)           -65.9489         estimate D2E/DX2                !
 ! D36   D(3,4,5,17)           177.8693         estimate D2E/DX2                !
 ! D37   D(14,4,5,6)           -65.8861         estimate D2E/DX2                !
 ! D38   D(14,4,5,16)          172.2859         estimate D2E/DX2                !
 ! D39   D(14,4,5,17)           56.1041         estimate D2E/DX2                !
 ! D40   D(15,4,5,6)           178.4443         estimate D2E/DX2                !
 ! D41   D(15,4,5,16)           56.6163         estimate D2E/DX2                !
 ! D42   D(15,4,5,17)          -59.5655         estimate D2E/DX2                !
 ! D43   D(4,5,6,7)            -51.3419         estimate D2E/DX2                !
 ! D44   D(4,5,6,18)          -174.3396         estimate D2E/DX2                !
 ! D45   D(4,5,6,19)            69.8759         estimate D2E/DX2                !
 ! D46   D(16,5,6,7)            70.6665         estimate D2E/DX2                !
 ! D47   D(16,5,6,18)          -52.3311         estimate D2E/DX2                !
 ! D48   D(16,5,6,19)         -168.1157         estimate D2E/DX2                !
 ! D49   D(17,5,6,7)          -173.4212         estimate D2E/DX2                !
 ! D50   D(17,5,6,18)           63.5811         estimate D2E/DX2                !
 ! D51   D(17,5,6,19)          -52.2034         estimate D2E/DX2                !
 ! D52   D(5,6,7,8)             51.0772         estimate D2E/DX2                !
 ! D53   D(5,6,7,20)           -71.0481         estimate D2E/DX2                !
 ! D54   D(5,6,7,21)           173.1237         estimate D2E/DX2                !
 ! D55   D(18,6,7,8)           174.0845         estimate D2E/DX2                !
 ! D56   D(18,6,7,20)           51.9591         estimate D2E/DX2                !
 ! D57   D(18,6,7,21)          -63.8691         estimate D2E/DX2                !
 ! D58   D(19,6,7,8)           -70.1467         estimate D2E/DX2                !
 ! D59   D(19,6,7,20)          167.728          estimate D2E/DX2                !
 ! D60   D(19,6,7,21)           51.8998         estimate D2E/DX2                !
 ! D61   D(6,7,8,3)            -55.5046         estimate D2E/DX2                !
 ! D62   D(6,7,8,22)          -177.6326         estimate D2E/DX2                !
 ! D63   D(6,7,8,23)            66.4939         estimate D2E/DX2                !
 ! D64   D(20,7,8,3)            66.4076         estimate D2E/DX2                !
 ! D65   D(20,7,8,22)          -55.7205         estimate D2E/DX2                !
 ! D66   D(20,7,8,23)         -171.5939         estimate D2E/DX2                !
 ! D67   D(21,7,8,3)          -177.4975         estimate D2E/DX2                !
 ! D68   D(21,7,8,22)           60.3744         estimate D2E/DX2                !
 ! D69   D(21,7,8,23)          -55.499          estimate D2E/DX2                !
 --------------------------------------------------------------------------------
 Trust Radius=3.00D-01 FncErr=1.00D-07 GrdErr=1.00D-06 EigMax=2.50D+02 EigMin=1.00D-04
 Number of steps in this run=    138 maximum allowed number of steps=    138.
 GradGradGradGradGradGradGradGradGradGradGradGradGradGradGradGradGradGrad

                          Input orientation:                          
 ---------------------------------------------------------------------
 Center     Atomic      Atomic             Coordinates (Angstroms)
 Number     Number       Type             X           Y           Z
 ---------------------------------------------------------------------
      1          7           0        3.235100   -0.233800    1.476400
      2          6           0        2.291400    0.868900    1.415200
      3          6           0        1.216800    0.620700    0.328300
      4          6           0        0.329100   -0.629600    0.567400
      5          6           0       -0.583000   -0.455300    1.801800
      6          6           0       -1.456800    0.813000    1.684200
      7          6           0       -0.630000    2.074500    1.351200
      8          6           0        0.288700    1.843700    0.130400
      9          1           0        3.664300   -0.377800    0.573200
     10          1           0        2.743500   -1.087700    1.700000
     11          1           0        2.842500    1.785200    1.193500
     12          1           0        1.838300    1.011000    2.397600
     13          1           0        1.730800    0.473500   -0.623600
     14          1           0       -0.287600   -0.819800   -0.312900
     15          1           0        0.945700   -1.518100    0.704600
     16          1           0        0.022500   -0.401100    2.707800
     17          1           0       -1.219900   -1.333000    1.920900
     18          1           0       -2.015900    0.967400    2.608300
     19          1           0       -2.204100    0.660200    0.903600
     20          1           0       -0.033900    2.362200    2.218400
     21          1           0       -1.298900    2.914700    1.158900
     22          1           0        0.884200    2.741000   -0.045300
     23          1           0       -0.324800    1.704200   -0.761600
 ---------------------------------------------------------------------
                    Distance matrix (angstroms):
                    1          2          3          4          5
     1  N    0.000000
     2  C    1.452674   0.000000
     3  C    2.474235   1.548457   0.000000
     4  C    3.070468   2.610534   1.551912   0.000000
     5  C    3.838338   3.188282   2.562861   1.544685   0.000000
     6  C    4.811746   3.758256   3.003928   2.552993   1.544649
     7  C    4.503657   3.161035   2.563304   2.974285   2.570046
     8  C    3.848246   2.571333   1.547987   2.511934   2.973019
     9  H    1.010306   2.036683   2.654663   3.344697   4.422106
    10  H    1.010353   2.028248   2.670394   2.705913   3.387609
    11  H    2.076181   1.092002   2.178883   3.541248   4.138106
    12  H    2.085470   1.091147   2.195586   2.884248   2.892699
    13  H    2.678281   2.151120   1.091777   2.144778   3.478348
    14  H    3.994297   3.534017   2.179311   1.091523   2.166120
    15  H    2.736139   2.830836   2.188507   1.090161   2.161091
    16  H    3.444580   2.903726   2.851745   2.174288   1.091056
    17  H    4.610081   4.175323   3.505827   2.173968   1.090955
    18  H    5.504278   4.470573   3.971014   3.494954   2.174332
    19  H    5.541862   4.529328   3.469162   2.862467   2.163116
    20  H    4.239828   2.877863   2.858243   3.436341   2.900581
    21  H    5.529106   4.140198   3.504437   3.944910   3.504673
    22  H    4.085552   2.760078   2.178502   3.470516   3.972504
    23  H    4.630051   3.504381   2.176783   2.764136   3.361715
                    6          7          8          9         10
     6  C    0.000000
     7  C    1.544626   0.000000
     8  C    2.554096   1.545196   0.000000
     9  H    5.373825   5.006004   4.065195   0.000000
    10  H    4.610361   4.636990   4.133134   1.619107   0.000000
    11  H    4.435081   3.488097   2.766857   2.395558   2.918886
    12  H    3.377251   2.884179   2.869642   2.931122   2.389681
    13  H    3.949936   3.469353   2.127350   2.428058   2.976915
    14  H    2.832220   3.356105   2.760954   4.074071   3.648439
    15  H    3.487929   3.975889   3.473191   2.950989   2.099560
    16  H    2.170282   2.897363   3.428262   4.221347   2.981765
    17  H    2.171972   3.504796   3.946288   5.155978   3.977123
    18  H    1.091051   2.174095   3.495579   6.181898   5.263111
    19  H    1.091394   2.162957   2.865757   5.968645   5.307368
    20  H    2.170261   1.090936   2.175467   4.887839   4.459204
    21  H    2.172099   1.091028   2.173782   5.984727   5.714280
    22  H    3.491223   2.165003   1.091164   4.223554   4.600219
    23  H    2.838591   2.166609   1.091561   4.693542   4.823758
                   11         12         13         14         15
    11  H    0.000000
    12  H    1.748617   0.000000
    13  H    2.501657   3.070523   0.000000
    14  H    4.341980   3.901037   2.417250   0.000000
    15  H    3.840399   3.171645   2.519319   1.744694   0.000000
    16  H    3.876263   2.321073   3.844664   3.065306   2.472407
    17  H    5.172560   3.882546   4.294712   2.474352   2.490677
    18  H    5.125866   3.860201   4.972613   3.835950   4.309624
    19  H    5.178594   4.323898   4.225001   2.709842   3.834818
    20  H    3.107576   2.315812   3.841656   4.073938   4.278777
    21  H    4.292803   3.873045   4.279702   4.139494   4.989422
    22  H    2.506615   3.141810   2.488517   3.758194   4.325051
    23  H    3.723005   3.891025   2.399825   2.563843   3.761267
                   16         17         18         19         20
    16  H    0.000000
    17  H    1.741036   0.000000
    18  H    2.457187   2.529422   0.000000
    19  H    3.056017   2.444667   1.742353   0.000000
    20  H    2.806870   3.892249   2.454753   3.055368   0.000000
    21  H    3.890979   4.316230   2.531171   2.442813   1.740121
    22  H    4.265546   4.989054   4.312520   3.842881   2.471990
    23  H    4.073038   4.149891   3.841734   2.719301   3.065614
                   21         22         23
    21  H    0.000000
    22  H    2.499239   0.000000
    23  H    2.470324   1.746345   0.000000
 Stoichiometry    C7H15N
 Framework group  C1[X(C7H15N)]
 Deg. of freedom    63
 Full point group                 C1      NOp   1
 Largest Abelian subgroup         C1      NOp   1
 Largest concise Abelian subgroup C1      NOp   1
                         Standard orientation:                         
 ---------------------------------------------------------------------
 Center     Atomic      Atomic             Coordinates (Angstroms)
 Number     Number       Type             X           Y           Z
 ---------------------------------------------------------------------
      1          7           0        2.735529    0.257125   -0.454102
      2          6           0        1.540525   -0.559563   -0.577587
      3          6           0        0.621615   -0.389723    0.657110
      4          6           0        0.081076    1.049299    0.870328
      5          6           0       -0.903074    1.461438   -0.246651
      6          6           0       -2.071257    0.458284   -0.369003
      7          6           0       -1.587846   -1.003903   -0.488139
      8          6           0       -0.583222   -1.361272    0.630185
      9          1           0        3.230312    0.027268    0.396236
     10          1           0        2.474007    1.230221   -0.379918
     11          1           0        1.843011   -1.604070   -0.677463
     12          1           0        1.019395   -0.299333   -1.500249
     13          1           0        1.201324   -0.650816    1.544660
     14          1           0       -0.421473    1.116726    1.836931
     15          1           0        0.901111    1.766878    0.903105
     16          1           0       -0.377016    1.530227   -1.200032
     17          1           0       -1.293434    2.460752   -0.048725
     18          1           0       -2.694991    0.715331   -1.226485
     19          1           0       -2.714274    0.550859    0.507981
     20          1           0       -1.130006   -1.160657   -1.465868
     21          1           0       -2.443033   -1.680266   -0.449015
     22          1           0       -0.235176   -2.385352    0.486090
     23          1           0       -1.095373   -1.345009    1.594002
 ---------------------------------------------------------------------
 Rotational constants (GHZ):           3.1301043           1.5244443           1.2806576
 Standard basis: 6-31G(d,p) (6D, 7F)
 There are   195 symmetry adapted cartesian basis functions of A   symmetry.
 There are   195 symmetry adapted basis functions of A   symmetry.
   195 basis functions,   329 primitive gaussians,   195 cartesian basis functions
    32 alpha electrons       32 beta electrons
       nuclear repulsion energy       411.3880222916 Hartrees.
 NAtoms=   23 NActive=   23 NUniq=   23 SFac= 1.00D+00 NAtFMM=   60 NAOKFM=F Big=F
 Integral buffers will be    131072 words long.
 Raffenetti 2 integral format.
 Two-electron integral symmetry is turned on.
 Nuclear repulsion after empirical dispersion term =      411.3506556330 Hartrees.
 One-electron integrals computed using PRISM.
 NBasis=   195 RedAO= T EigKep=  3.47D-03  NBF=   195
 NBsUse=   195 1.00D-06 EigRej= -1.00D+00 NBFU=   195
 ExpMin= 1.61D-01 ExpMax= 4.17D+03 ExpMxC= 6.27D+02 IAcc=3 IRadAn=         5 AccDes= 0.00D+00
 Harris functional with IExCor=  402 and IRadAn=       5 diagonalized for initial guess.
 HarFok:  IExCor=  402 AccDes= 0.00D+00 IRadAn=         5 IDoV= 1 UseB2=F ITyADJ=14
 ICtDFT=  3500011 ScaDFX=  1.000000  1.000000  1.000000  1.000000
 FoFCou: FMM=F IPFlag=           0 FMFlag=      100000 FMFlg1=           0
         NFxFlg=           0 DoJE=T BraDBF=F KetDBF=T FulRan=T
         wScrn=  0.000000 ICntrl=       500 IOpCl=  0 I1Cent=   200000004 NGrid=           0
         NMat0=    1 NMatS0=      1 NMatT0=    0 NMatD0=    1 NMtDS0=    0 NMtDT0=    0
 Petite list used in FoFCou.
 Requested convergence on RMS density matrix=1.00D-08 within 128 cycles.
 Requested convergence on MAX density matrix=1.00D-06.
 Requested convergence on             energy=1.00D-06.
 No special actions if energy rises.
 Integral accuracy reduced to 1.0D-05 until final iterations.
 Initial convergence to 1.0D-05 achieved.  Increase integral accuracy.
 SCF Done:  E(RB3LYP) =  -330.590294650     A.U. after   12 cycles
            NFock= 12  Conv=0.48D-08     -V/T= 2.0098

 **********************************************************************

            Population analysis using the SCF Density.

 **********************************************************************

 Orbital symmetries:
       Occupied  (A) (A) (A) (A) (A) (A) (A) (A) (A) (A) (A) (A)
                 (A) (A) (A) (A) (A) (A) (A) (A) (A) (A) (A) (A)
                 (A) (A) (A) (A) (A) (A) (A) (A)
       Virtual   (A) (A) (A) (A) (A) (A) (A) (A) (A) (A) (A) (A)
                 (A) (A) (A) (A) (A) (A) (A) (A) (A) (A) (A) (A)
                 (A) (A) (A) (A) (A) (A) (A) (A) (A) (A) (A) (A)
                 (A) (A) (A) (A) (A) (A) (A) (A) (A) (A) (A) (A)
                 (A) (A) (A) (A) (A) (A) (A) (A) (A) (A) (A) (A)
                 (A) (A) (A) (A) (A) (A) (A) (A) (A) (A) (A) (A)
                 (A) (A) (A) (A) (A) (A) (A) (A) (A) (A) (A) (A)
                 (A) (A) (A) (A) (A) (A) (A) (A) (A) (A) (A) (A)
                 (A) (A) (A) (A) (A) (A) (A) (A) (A) (A) (A) (A)
                 (A) (A) (A) (A) (A) (A) (A) (A) (A) (A) (A) (A)
                 (A) (A) (A) (A) (A) (A) (A) (A) (A) (A) (A) (A)
                 (A) (A) (A) (A) (A) (A) (A) (A) (A) (A) (A) (A)
                 (A) (A) (A) (A) (A) (A) (A) (A) (A) (A) (A) (A)
                 (A) (A) (A) (A) (A) (A) (A)
 The electronic state is 1-A.
 Alpha  occ. eigenvalues --  -14.30193 -10.19814 -10.17891 -10.17710 -10.17655
 Alpha  occ. eigenvalues --  -10.17517 -10.17458 -10.17308  -0.87990  -0.81826
 Alpha  occ. eigenvalues --   -0.73979  -0.73394  -0.65361  -0.60399  -0.59225
 Alpha  occ. eigenvalues --   -0.53043  -0.49602  -0.47139  -0.44485  -0.43310
 Alpha  occ. eigenvalues --   -0.42986  -0.40279  -0.38434  -0.37123  -0.36230
 Alpha  occ. eigenvalues --   -0.35123  -0.34793  -0.33657  -0.31255  -0.29125
 Alpha  occ. eigenvalues --   -0.29052  -0.22186
 Alpha virt. eigenvalues --    0.07128   0.09812   0.10076   0.12549   0.14090
 Alpha virt. eigenvalues --    0.14737   0.15683   0.16604   0.16824   0.18002
 Alpha virt. eigenvalues --    0.18470   0.19524   0.20175   0.20863   0.22607
 Alpha virt. eigenvalues --    0.23548   0.25108   0.25547   0.26329   0.26868
 Alpha virt. eigenvalues --    0.27876   0.29370   0.30808   0.50341   0.51307
 Alpha virt. eigenvalues --    0.53310   0.54124   0.55159   0.56765   0.56809
 Alpha virt. eigenvalues --    0.62418   0.63381   0.63671   0.65666   0.67098
 Alpha virt. eigenvalues --    0.69355   0.71809   0.72155   0.72728   0.75393
 Alpha virt. eigenvalues --    0.76232   0.77784   0.81313   0.83392   0.84776
 Alpha virt. eigenvalues --    0.85593   0.85876   0.87911   0.88484   0.88873
 Alpha virt. eigenvalues --    0.90937   0.91494   0.93490   0.94362   0.95210
 Alpha virt. eigenvalues --    0.95754   0.96637   0.99335   1.01914   1.03165
 Alpha virt. eigenvalues --    1.09675   1.13640   1.14490   1.24179   1.27267
 Alpha virt. eigenvalues --    1.29215   1.33554   1.42553   1.44767   1.45768
 Alpha virt. eigenvalues --    1.47994   1.52654   1.55611   1.61883   1.62074
 Alpha virt. eigenvalues --    1.69399   1.71837   1.72284   1.75816   1.77921
 Alpha virt. eigenvalues --    1.80111   1.80653   1.84674   1.85133   1.87375
 Alpha virt. eigenvalues --    1.87917   1.93363   1.95485   1.96249   1.98201
 Alpha virt. eigenvalues --    1.99615   2.03449   2.11741   2.12710   2.14181
 Alpha virt. eigenvalues --    2.15416   2.15747   2.17327   2.18684   2.19421
 Alpha virt. eigenvalues --    2.22522   2.24770   2.25594   2.27098   2.28925
 Alpha virt. eigenvalues --    2.31354   2.33030   2.33787   2.34630   2.36213
 Alpha virt. eigenvalues --    2.37661   2.37927   2.41085   2.45903   2.46863
 Alpha virt. eigenvalues --    2.48311   2.52309   2.54338   2.56692   2.59494
 Alpha virt. eigenvalues --    2.64759   2.65419   2.66735   2.69130   2.71118
 Alpha virt. eigenvalues --    2.74173   2.76343   2.80061   2.80876   2.82941
 Alpha virt. eigenvalues --    2.87566   2.87820   2.89432   2.90393   2.92190
 Alpha virt. eigenvalues --    2.92877   2.94659   2.95930   2.96655   3.01365
 Alpha virt. eigenvalues --    3.24015   3.29155   3.31785   3.32555   3.34344
 Alpha virt. eigenvalues --    3.35174   3.36195   3.38630   3.48250   3.48354
 Alpha virt. eigenvalues --    3.49489   3.50996   3.53976   3.58544   3.61295
 Alpha virt. eigenvalues --    4.01703   4.28320   4.42681   4.47359   4.61162
 Alpha virt. eigenvalues --    4.72777   4.75425   4.77792
          Condensed to atoms (all electrons):
               1          2          3          4          5          6
     1  N    6.706295   0.329141  -0.070576  -0.007913  -0.000643   0.000009
     2  C    0.329141   4.816705   0.375471  -0.042763  -0.004892  -0.001480
     3  C   -0.070576   0.375471   5.009232   0.371293  -0.039119  -0.012619
     4  C   -0.007913  -0.042763   0.371293   4.961172   0.373396  -0.042970
     5  C   -0.000643  -0.004892  -0.039119   0.373396   4.909938   0.381800
     6  C    0.000009  -0.001480  -0.012619  -0.042970   0.381800   4.895727
     7  C    0.000025  -0.006063  -0.037502  -0.017437  -0.042051   0.381614
     8  C    0.005813  -0.040238   0.332627  -0.039220  -0.016849  -0.043721
     9  H    0.348694  -0.048526  -0.002444  -0.001251   0.000075  -0.000003
    10  H    0.354519  -0.047787  -0.004539   0.003225   0.000153   0.000000
    11  H   -0.037397   0.382330  -0.043251   0.005022  -0.000002   0.000040
    12  H   -0.035860   0.385155  -0.044722  -0.007998   0.002714   0.000010
    13  H   -0.003070  -0.044750   0.371417  -0.044327   0.005328   0.000206
    14  H    0.000175   0.004864  -0.032600   0.380149  -0.039768  -0.004482
    15  H    0.007919  -0.007949  -0.039445   0.359887  -0.036069   0.004769
    16  H    0.000358   0.002665  -0.007564  -0.039467   0.384157  -0.039141
    17  H   -0.000008   0.000063   0.004705  -0.032373   0.377777  -0.032522
    18  H    0.000000  -0.000017   0.000201   0.004716  -0.033262   0.376967
    19  H   -0.000001   0.000101  -0.001069  -0.003990  -0.041117   0.382740
    20  H   -0.000064   0.002216  -0.006245  -0.000279  -0.003875  -0.039653
    21  H    0.000000   0.000103   0.004574   0.000199   0.004674  -0.032569
    22  H    0.000111  -0.006241  -0.037288   0.005514   0.000225   0.004805
    23  H   -0.000174   0.004565  -0.027823  -0.005256  -0.000920  -0.004440
               7          8          9         10         11         12
     1  N    0.000025   0.005813   0.348694   0.354519  -0.037397  -0.035860
     2  C   -0.006063  -0.040238  -0.048526  -0.047787   0.382330   0.385155
     3  C   -0.037502   0.332627  -0.002444  -0.004539  -0.043251  -0.044722
     4  C   -0.017437  -0.039220  -0.001251   0.003225   0.005022  -0.007998
     5  C   -0.042051  -0.016849   0.000075   0.000153  -0.000002   0.002714
     6  C    0.381614  -0.043721  -0.000003   0.000000   0.000040   0.000010
     7  C    4.905612   0.375789   0.000010  -0.000010  -0.000449   0.002090
     8  C    0.375789   4.969369   0.000109   0.000105  -0.001594  -0.002037
     9  H    0.000010   0.000109   0.499528  -0.037999  -0.005719   0.006912
    10  H   -0.000010   0.000105  -0.037999   0.487462   0.006824  -0.006349
    11  H   -0.000449  -0.001594  -0.005719   0.006824   0.631504  -0.037429
    12  H    0.002090  -0.002037   0.006912  -0.006349  -0.037429   0.623332
    13  H    0.005281  -0.036837   0.006948  -0.000292  -0.004636   0.006225
    14  H   -0.000816  -0.005037  -0.000053  -0.000190  -0.000135  -0.000014
    15  H    0.000190   0.006547   0.001224   0.006922   0.000079   0.000381
    16  H   -0.003840  -0.000177  -0.000016   0.000441  -0.000057   0.002572
    17  H    0.004583   0.000179   0.000000  -0.000034   0.000001  -0.000133
    18  H   -0.032989   0.004709   0.000000  -0.000000  -0.000001   0.000030
    19  H   -0.040657  -0.003839  -0.000000   0.000001   0.000001  -0.000009
    20  H    0.385349  -0.039708  -0.000001   0.000014   0.000375   0.001763
    21  H    0.377056  -0.032086   0.000000  -0.000000  -0.000032  -0.000088
    22  H   -0.034187   0.375076   0.000005   0.000005   0.005519  -0.000234
    23  H   -0.039978   0.370228  -0.000013   0.000002  -0.000093  -0.000147
              13         14         15         16         17         18
     1  N   -0.003070   0.000175   0.007919   0.000358  -0.000008   0.000000
     2  C   -0.044750   0.004864  -0.007949   0.002665   0.000063  -0.000017
     3  C    0.371417  -0.032600  -0.039445  -0.007564   0.004705   0.000201
     4  C   -0.044327   0.380149   0.359887  -0.039467  -0.032373   0.004716
     5  C    0.005328  -0.039768  -0.036069   0.384157   0.377777  -0.033262
     6  C    0.000206  -0.004482   0.004769  -0.039141  -0.032522   0.376967
     7  C    0.005281  -0.000816   0.000190  -0.003840   0.004583  -0.032989
     8  C   -0.036837  -0.005037   0.006547  -0.000177   0.000179   0.004709
     9  H    0.006948  -0.000053   0.001224  -0.000016   0.000000   0.000000
    10  H   -0.000292  -0.000190   0.006922   0.000441  -0.000034  -0.000000
    11  H   -0.004636  -0.000135   0.000079  -0.000057   0.000001  -0.000001
    12  H    0.006225  -0.000014   0.000381   0.002572  -0.000133   0.000030
    13  H    0.687439  -0.005321  -0.002269  -0.000012  -0.000175   0.000013
    14  H   -0.005321   0.639468  -0.037546   0.005985  -0.004857  -0.000046
    15  H   -0.002269  -0.037546   0.673542  -0.004630  -0.002823  -0.000181
    16  H   -0.000012   0.005985  -0.004630   0.641683  -0.038919  -0.005426
    17  H   -0.000175  -0.004857  -0.002823  -0.038919   0.644040  -0.001945
    18  H    0.000013  -0.000046  -0.000181  -0.005426  -0.001945   0.646455
    19  H   -0.000051   0.004513  -0.000080   0.006062  -0.005984  -0.039063
    20  H   -0.000034   0.000122  -0.000025   0.002859  -0.000064  -0.005491
    21  H   -0.000175  -0.000047   0.000014  -0.000065  -0.000162  -0.001882
    22  H   -0.003067  -0.000034  -0.000186  -0.000017   0.000012  -0.000178
    23  H   -0.006226   0.004586  -0.000184   0.000116  -0.000041  -0.000048
              19         20         21         22         23
     1  N   -0.000001  -0.000064   0.000000   0.000111  -0.000174
     2  C    0.000101   0.002216   0.000103  -0.006241   0.004565
     3  C   -0.001069  -0.006245   0.004574  -0.037288  -0.027823
     4  C   -0.003990  -0.000279   0.000199   0.005514  -0.005256
     5  C   -0.041117  -0.003875   0.004674   0.000225  -0.000920
     6  C    0.382740  -0.039653  -0.032569   0.004805  -0.004440
     7  C   -0.040657   0.385349   0.377056  -0.034187  -0.039978
     8  C   -0.003839  -0.039708  -0.032086   0.375076   0.370228
     9  H   -0.000000  -0.000001   0.000000   0.000005  -0.000013
    10  H    0.000001   0.000014  -0.000000   0.000005   0.000002
    11  H    0.000001   0.000375  -0.000032   0.005519  -0.000093
    12  H   -0.000009   0.001763  -0.000088  -0.000234  -0.000147
    13  H   -0.000051  -0.000034  -0.000175  -0.003067  -0.006226
    14  H    0.004513   0.000122  -0.000047  -0.000034   0.004586
    15  H   -0.000080  -0.000025   0.000014  -0.000186  -0.000184
    16  H    0.006062   0.002859  -0.000065  -0.000017   0.000116
    17  H   -0.005984  -0.000064  -0.000162   0.000012  -0.000041
    18  H   -0.039063  -0.005491  -0.001882  -0.000178  -0.000048
    19  H    0.648393   0.006086  -0.006138  -0.000062   0.004521
    20  H    0.006086   0.640381  -0.038745  -0.004691   0.006028
    21  H   -0.006138  -0.038745   0.645511  -0.002710  -0.005216
    22  H   -0.000062  -0.004691  -0.002710   0.653834  -0.039024
    23  H    0.004521   0.006028  -0.005216  -0.039024   0.654723
 Mulliken charges:
               1
     1  N   -0.597357
     2  C   -0.052673
     3  C   -0.062715
     4  C   -0.179329
     5  C   -0.181669
     6  C   -0.175087
     7  C   -0.181621
     8  C   -0.179205
     9  H    0.232520
    10  H    0.237527
    11  H    0.099100
    12  H    0.103840
    13  H    0.068386
    14  H    0.091085
    15  H    0.069913
    16  H    0.092433
    17  H    0.088679
    18  H    0.087439
    19  H    0.089643
    20  H    0.093681
    21  H    0.087784
    22  H    0.082812
    23  H    0.084814
 Sum of Mulliken charges =  -0.00000
 Mulliken charges with hydrogens summed into heavy atoms:
               1
     1  N   -0.127310
     2  C    0.150267
     3  C    0.005670
     4  C   -0.018330
     5  C   -0.000557
     6  C    0.001994
     7  C   -0.000156
     8  C   -0.011579
 Electronic spatial extent (au):  <R**2>=           1081.5434
 Charge=              0.0000 electrons
 Dipole moment (field-independent basis, Debye):
    X=             -0.8008    Y=              0.2389    Z=              1.0948  Tot=              1.3773
 Quadrupole moment (field-independent basis, Debye-Ang):
   XX=            -56.1583   YY=            -50.8371   ZZ=            -52.7941
   XY=              0.3176   XZ=              4.4832   YZ=              0.0907
 Traceless Quadrupole moment (field-independent basis, Debye-Ang):
   XX=             -2.8951   YY=              2.4260   ZZ=              0.4691
   XY=              0.3176   XZ=              4.4832   YZ=              0.0907
 Octapole moment (field-independent basis, Debye-Ang**2):
  XXX=             -9.3487  YYY=              2.0636  ZZZ=              0.5044  XYY=              5.9312
  XXY=              0.6796  XXZ=             17.5221  XZZ=             -2.2920  YZZ=              0.1934
  YYZ=             -1.0412  XYZ=              0.1468
 Hexadecapole moment (field-independent basis, Debye-Ang**3):
 XXXX=           -893.9080 YYYY=           -394.8933 ZZZZ=           -213.8796 XXXY=              3.0741
 XXXZ=             59.0599 YYYX=              3.9108 YYYZ=              0.5201 ZZZX=              3.6025
 ZZZY=             -0.5092 XXYY=           -195.8972 XXZZ=           -186.9372 YYZZ=           -104.3365
 XXYZ=              1.1699 YYXZ=             -2.0801 ZZXY=             -1.2803
 N-N= 4.113506556330D+02 E-N=-1.587718483009D+03  KE= 3.273906062252D+02
 Calling FoFJK, ICntrl=      2127 FMM=F ISym2X=0 I1Cent= 0 IOpClX= 0 NMat=1 NMatS=1 NMatT=0.
 ***** Axes restored to original set *****
 -------------------------------------------------------------------
 Center     Atomic                   Forces (Hartrees/Bohr)
 Number     Number              X              Y              Z
 -------------------------------------------------------------------
      1        7           0.010705436    0.001184105    0.014303988
      2        6          -0.006997605   -0.011039653   -0.013562395
      3        6          -0.017118173    0.010311388   -0.003335470
      4        6           0.002923670    0.006279433    0.013552125
      5        6          -0.001894711    0.006060032   -0.007701792
      6        6           0.007064621    0.000517747    0.000888298
      7        6          -0.001485577   -0.007766605   -0.005074510
      8        6          -0.000163173   -0.000077228    0.011644120
      9        1           0.001522387   -0.000338230   -0.005409765
     10        1          -0.000768046   -0.004471037    0.001573861
     11        1           0.000032937    0.002792240   -0.001810205
     12        1          -0.000339237   -0.001128296    0.001987413
     13        1           0.006257336   -0.001460518   -0.002319870
     14        1          -0.001093495    0.001513543   -0.003424013
     15        1           0.002902195   -0.003490922   -0.000985983
     16        1           0.002972518    0.001162260    0.002852472
     17        1          -0.002130542   -0.002673568   -0.000057583
     18        1          -0.001573674    0.000491427    0.003161490
     19        1          -0.001939974   -0.000955982   -0.004517831
     20        1           0.002983196   -0.000073136    0.002854763
     21        1          -0.002417869    0.002274675   -0.000894688
     22        1           0.002962031    0.002891695   -0.000956199
     23        1          -0.002404248   -0.002003372   -0.002768226
 -------------------------------------------------------------------
 Cartesian Forces:  Max     0.017118173 RMS     0.005355251

 GradGradGradGradGradGradGradGradGradGradGradGradGradGradGradGradGradGrad
 Berny optimization.
 FormGI is forming the generalized inverse of G from B-inverse, IUseBI=4.
 Internal  Forces:  Max     0.022998777 RMS     0.003114933
 Search for a local minimum.
 Step number   1 out of a maximum of  138
 All quantities printed in internal units (Hartrees-Bohrs-Radians)
 Mixed Optimization -- RFO/linear search
 Second derivative matrix not updated -- first step.
 ITU=  0
     Eigenvalues ---    0.00230   0.00403   0.00415   0.00515   0.00995
     Eigenvalues ---    0.01764   0.01896   0.03422   0.03816   0.03834
     Eigenvalues ---    0.04176   0.04255   0.04320   0.04513   0.04662
     Eigenvalues ---    0.04684   0.04872   0.05343   0.05346   0.05365
     Eigenvalues ---    0.05969   0.06439   0.07863   0.08106   0.08117
     Eigenvalues ---    0.08135   0.08166   0.08283   0.08528   0.09343
     Eigenvalues ---    0.12100   0.12126   0.12735   0.14068   0.15047
     Eigenvalues ---    0.16000   0.16000   0.17358   0.21168   0.21892
     Eigenvalues ---    0.26392   0.26572   0.26983   0.27783   0.27876
     Eigenvalues ---    0.27991   0.28086   0.34582   0.34608   0.34633
     Eigenvalues ---    0.34637   0.34652   0.34679   0.34680   0.34691
     Eigenvalues ---    0.34691   0.34694   0.34702   0.34705   0.34794
     Eigenvalues ---    0.37897   0.45914   0.45921
 RFO step:  Lambda=-6.47000367D-03 EMin= 2.30000000D-03
 Linear search not attempted -- first point.
 Iteration  1 RMS(Cart)=  0.04376365 RMS(Int)=  0.00115372
 Iteration  2 RMS(Cart)=  0.00166036 RMS(Int)=  0.00022882
 Iteration  3 RMS(Cart)=  0.00000145 RMS(Int)=  0.00022881
 Iteration  4 RMS(Cart)=  0.00000000 RMS(Int)=  0.00022881
 Variable       Old X    -DE/DX   Delta X   Delta X   Delta X     New X
                                 (Linear)    (Quad)   (Total)
    R1        2.74516   0.01064   0.00000   0.02760   0.02760   2.77275
    R2        1.90920   0.00553   0.00000   0.01187   0.01187   1.92107
    R3        1.90929   0.00450   0.00000   0.00967   0.00967   1.91896
    R4        2.92616  -0.00124   0.00000  -0.00437  -0.00437   2.92179
    R5        2.06358   0.00273   0.00000   0.00774   0.00774   2.07133
    R6        2.06197   0.00178   0.00000   0.00505   0.00505   2.06702
    R7        2.93269  -0.00639   0.00000  -0.02057  -0.02065   2.91204
    R8        2.92527  -0.00230   0.00000  -0.00445  -0.00453   2.92074
    R9        2.06316   0.00517   0.00000   0.01465   0.01465   2.07781
   R10        2.91903  -0.00398   0.00000  -0.01343  -0.01339   2.90564
   R11        2.06268   0.00311   0.00000   0.00883   0.00883   2.07151
   R12        2.06011   0.00436   0.00000   0.01231   0.01231   2.07242
   R13        2.91896  -0.00385   0.00000  -0.01691  -0.01683   2.90213
   R14        2.06180   0.00408   0.00000   0.01154   0.01154   2.07333
   R15        2.06161   0.00339   0.00000   0.00958   0.00958   2.07119
   R16        2.91892  -0.00433   0.00000  -0.01738  -0.01730   2.90162
   R17        2.06179   0.00355   0.00000   0.01005   0.01005   2.07184
   R18        2.06244   0.00469   0.00000   0.01330   0.01330   2.07574
   R19        2.92000  -0.00389   0.00000  -0.01381  -0.01385   2.90614
   R20        2.06157   0.00388   0.00000   0.01097   0.01097   2.07254
   R21        2.06174   0.00339   0.00000   0.00960   0.00960   2.07134
   R22        2.06200   0.00415   0.00000   0.01174   0.01174   2.07374
   R23        2.06275   0.00387   0.00000   0.01097   0.01097   2.07372
    A1        1.92464  -0.00194   0.00000  -0.01070  -0.01068   1.91396
    A2        1.91217   0.00283   0.00000   0.01796   0.01798   1.93015
    A3        1.85885  -0.00023   0.00000   0.00055   0.00059   1.85944
    A4        1.93770   0.02300   0.00000   0.10970   0.10965   2.04736
    A5        1.89405  -0.00571   0.00000  -0.01403  -0.01360   1.88045
    A6        1.90782  -0.00859   0.00000  -0.03278  -0.03330   1.87453
    A7        1.92008  -0.00801   0.00000  -0.04099  -0.04159   1.87849
    A8        1.94407  -0.00530   0.00000  -0.01832  -0.01880   1.92527
    A9        1.85780   0.00362   0.00000  -0.00905  -0.01028   1.84751
   A10        2.00199  -0.00212   0.00000  -0.02372  -0.02364   1.97835
   A11        1.95970   0.00096   0.00000   0.00142   0.00176   1.96147
   A12        1.88271  -0.00175   0.00000  -0.02951  -0.02957   1.85315
   A13        1.88942   0.00017   0.00000   0.01398   0.01343   1.90285
   A14        1.87025   0.00159   0.00000   0.01484   0.01411   1.88437
   A15        1.85180   0.00146   0.00000   0.02735   0.02720   1.87900
   A16        1.94977   0.00134   0.00000   0.01493   0.01442   1.96419
   A17        1.91698  -0.00183   0.00000  -0.02957  -0.02954   1.88744
   A18        1.93102  -0.00081   0.00000   0.00149   0.00123   1.93225
   A19        1.90767  -0.00046   0.00000  -0.00703  -0.00686   1.90080
   A20        1.90220   0.00138   0.00000   0.01994   0.01987   1.92207
   A21        1.85359   0.00035   0.00000  -0.00038  -0.00047   1.85313
   A22        1.94533   0.00055   0.00000   0.00249   0.00228   1.94761
   A23        1.91930  -0.00048   0.00000  -0.00294  -0.00286   1.91645
   A24        1.91897  -0.00021   0.00000  -0.00352  -0.00348   1.91549
   A25        1.91386  -0.00003   0.00000  -0.00199  -0.00199   1.91187
   A26        1.91628  -0.00038   0.00000  -0.00139  -0.00126   1.91501
   A27        1.84762   0.00055   0.00000   0.00755   0.00752   1.85514
   A28        1.96514  -0.00072   0.00000  -0.01048  -0.01076   1.95438
   A29        1.91941   0.00002   0.00000   0.00074   0.00084   1.92025
   A30        1.90375   0.00007   0.00000  -0.00132  -0.00130   1.90246
   A31        1.91912   0.00032   0.00000   0.00145   0.00149   1.92060
   A32        1.90357  -0.00005   0.00000   0.00002   0.00008   1.90365
   A33        1.84910   0.00044   0.00000   0.01087   0.01082   1.85992
   A34        1.94614   0.00035   0.00000   0.00094   0.00068   1.94682
   A35        1.91398  -0.00032   0.00000  -0.00220  -0.00217   1.91181
   A36        1.91640  -0.00007   0.00000  -0.00169  -0.00158   1.91482
   A37        1.92043  -0.00026   0.00000  -0.00378  -0.00373   1.91670
   A38        1.91802  -0.00026   0.00000  -0.00148  -0.00138   1.91664
   A39        1.84629   0.00057   0.00000   0.00855   0.00851   1.85480
   A40        1.95354   0.00075   0.00000   0.01327   0.01275   1.96629
   A41        1.92098  -0.00048   0.00000  -0.00183  -0.00186   1.91912
   A42        1.91822  -0.00102   0.00000  -0.01721  -0.01711   1.90111
   A43        1.90590   0.00081   0.00000   0.01239   0.01249   1.91839
   A44        1.90768  -0.00061   0.00000  -0.01214  -0.01197   1.89571
   A45        1.85484   0.00055   0.00000   0.00514   0.00509   1.85993
    D1        0.99082  -0.00090   0.00000  -0.02366  -0.02327   0.96755
    D2       -1.12145  -0.00158   0.00000  -0.03201  -0.03219  -1.15364
    D3       -3.14086   0.00190   0.00000   0.00420   0.00395  -3.13691
    D4       -1.04970  -0.00117   0.00000  -0.02874  -0.02831  -1.07801
    D5        3.12122  -0.00184   0.00000  -0.03708  -0.03724   3.08399
    D6        1.10181   0.00164   0.00000  -0.00087  -0.00110   1.10071
    D7        1.08441  -0.00017   0.00000   0.00567   0.00635   1.09076
    D8       -3.03218  -0.00085   0.00000   0.00678   0.00711  -3.02507
    D9       -0.99794   0.00039   0.00000   0.02267   0.02286  -0.97508
   D10       -3.10191   0.00226   0.00000   0.03192   0.03169  -3.07022
   D11       -0.93531   0.00158   0.00000   0.03304   0.03244  -0.90286
   D12        1.09893   0.00282   0.00000   0.04892   0.04820   1.14712
   D13       -1.04614  -0.00162   0.00000  -0.01663  -0.01623  -1.06236
   D14        1.12046  -0.00230   0.00000  -0.01552  -0.01547   1.10499
   D15       -3.12849  -0.00106   0.00000   0.00037   0.00028  -3.12820
   D16        1.17698   0.00228   0.00000   0.04920   0.04930   1.22627
   D17       -2.98638   0.00133   0.00000   0.02991   0.02988  -2.95650
   D18       -0.94563   0.00017   0.00000   0.01243   0.01252  -0.93312
   D19       -1.02644   0.00245   0.00000   0.05367   0.05381  -0.97263
   D20        1.09338   0.00150   0.00000   0.03438   0.03439   1.12778
   D21        3.13414   0.00033   0.00000   0.01689   0.01703  -3.13202
   D22       -3.01691  -0.00012   0.00000   0.00776   0.00769  -3.00922
   D23       -0.89709  -0.00107   0.00000  -0.01152  -0.01173  -0.90882
   D24        1.14366  -0.00223   0.00000  -0.02901  -0.02909   1.11457
   D25       -1.20441  -0.00051   0.00000  -0.03385  -0.03389  -1.23830
   D26        0.91848   0.00069   0.00000  -0.01037  -0.01040   0.90808
   D27        2.95555   0.00047   0.00000  -0.01537  -0.01530   2.94025
   D28        1.02345  -0.00244   0.00000  -0.05299  -0.05314   0.97032
   D29       -3.13685  -0.00124   0.00000  -0.02952  -0.02965   3.11669
   D30       -1.09978  -0.00146   0.00000  -0.03452  -0.03455  -1.13432
   D31        3.02607   0.00019   0.00000  -0.01573  -0.01575   3.01033
   D32       -1.13423   0.00140   0.00000   0.00774   0.00774  -1.12649
   D33        0.90285   0.00118   0.00000   0.00274   0.00284   0.90569
   D34        0.97527  -0.00052   0.00000  -0.01035  -0.01061   0.96467
   D35       -1.15103  -0.00052   0.00000  -0.00748  -0.00765  -1.15868
   D36        3.10440  -0.00079   0.00000  -0.01287  -0.01308   3.09133
   D37       -1.14993   0.00122   0.00000   0.02196   0.02191  -1.12802
   D38        3.00696   0.00122   0.00000   0.02483   0.02486   3.03182
   D39        0.97920   0.00095   0.00000   0.01944   0.01944   0.99864
   D40        3.11444   0.00030   0.00000   0.01523   0.01526   3.12970
   D41        0.98814   0.00030   0.00000   0.01810   0.01821   1.00635
   D42       -1.03961   0.00003   0.00000   0.01271   0.01279  -1.02682
   D43       -0.89609   0.00006   0.00000  -0.02541  -0.02543  -0.92152
   D44       -3.04280   0.00015   0.00000  -0.02045  -0.02044  -3.06324
   D45        1.21956  -0.00043   0.00000  -0.03318  -0.03320   1.18637
   D46        1.23336  -0.00020   0.00000  -0.02884  -0.02889   1.20448
   D47       -0.91335  -0.00011   0.00000  -0.02388  -0.02390  -0.93725
   D48       -2.93417  -0.00069   0.00000  -0.03661  -0.03665  -2.97083
   D49       -3.02677   0.00023   0.00000  -0.02166  -0.02168  -3.04845
   D50        1.10970   0.00032   0.00000  -0.01670  -0.01669   1.09301
   D51       -0.91112  -0.00026   0.00000  -0.02943  -0.02944  -0.94057
   D52        0.89147   0.00021   0.00000   0.02630   0.02623   0.91770
   D53       -1.24002   0.00052   0.00000   0.03197   0.03198  -1.20804
   D54        3.02158   0.00006   0.00000   0.02388   0.02386   3.04543
   D55        3.03835  -0.00005   0.00000   0.02094   0.02087   3.05922
   D56        0.90686   0.00026   0.00000   0.02662   0.02662   0.93348
   D57       -1.11473  -0.00020   0.00000   0.01853   0.01850  -1.09623
   D58       -1.22429   0.00063   0.00000   0.03483   0.03479  -1.18950
   D59        2.92741   0.00094   0.00000   0.04050   0.04054   2.96795
   D60        0.90582   0.00048   0.00000   0.03242   0.03242   0.93824
   D61       -0.96874   0.00077   0.00000   0.01118   0.01136  -0.95738
   D62       -3.10027   0.00031   0.00000  -0.00390  -0.00389  -3.10416
   D63        1.16054  -0.00045   0.00000  -0.01021  -0.01018   1.15035
   D64        1.15903   0.00042   0.00000   0.00641   0.00650   1.16553
   D65       -0.97251  -0.00004   0.00000  -0.00868  -0.00874  -0.98125
   D66       -2.99488  -0.00080   0.00000  -0.01499  -0.01504  -3.00992
   D67       -3.09792   0.00080   0.00000   0.01372   0.01385  -3.08407
   D68        1.05373   0.00035   0.00000  -0.00137  -0.00139   1.05234
   D69       -0.96864  -0.00042   0.00000  -0.00768  -0.00769  -0.97633
         Item               Value     Threshold  Converged?
 Maximum Force            0.022999     0.000450     NO 
 RMS     Force            0.003115     0.000300     NO 
 Maximum Displacement     0.267669     0.001800     NO 
 RMS     Displacement     0.043326     0.001200     NO 
 Predicted change in Energy=-3.453100D-03
 GradGradGradGradGradGradGradGradGradGradGradGradGradGradGradGradGradGrad

                          Input orientation:                          
 ---------------------------------------------------------------------
 Center     Atomic      Atomic             Coordinates (Angstroms)
 Number     Number       Type             X           Y           Z
 ---------------------------------------------------------------------
      1          7           0        3.311998   -0.222318    1.497587
      2          6           0        2.294783    0.827144    1.367932
      3          6           0        1.188670    0.615763    0.308498
      4          6           0        0.310979   -0.621342    0.580294
      5          6           0       -0.604915   -0.437407    1.801571
      6          6           0       -1.478018    0.819028    1.669021
      7          6           0       -0.641700    2.070616    1.366092
      8          6           0        0.278290    1.855038    0.152760
      9          1           0        3.751777   -0.385698    0.595725
     10          1           0        2.885144   -1.101128    1.774472
     11          1           0        2.810270    1.764045    1.127265
     12          1           0        1.850409    0.975917    2.356284
     13          1           0        1.706950    0.460232   -0.648666
     14          1           0       -0.309609   -0.800797   -0.305317
     15          1           0        0.931283   -1.517052    0.705297
     16          1           0        0.001014   -0.368709    2.713652
     17          1           0       -1.243116   -1.320257    1.922196
     18          1           0       -2.061018    0.969390    2.585281
     19          1           0       -2.202991    0.666848    0.857967
     20          1           0       -0.041560    2.332539    2.245905
     21          1           0       -1.305534    2.923240    1.182220
     22          1           0        0.889990    2.750296   -0.016280
     23          1           0       -0.345096    1.728610   -0.741456
 ---------------------------------------------------------------------
                    Distance matrix (angstroms):
                    1          2          3          4          5
     1  N    0.000000
     2  C    1.467278   0.000000
     3  C    2.573875   1.546147   0.000000
     4  C    3.163346   2.579527   1.540987   0.000000
     5  C    3.934575   3.193021   2.560348   1.537599   0.000000
     6  C    4.904899   3.784805   3.000593   2.541751   1.535743
     7  C    4.572369   3.188912   2.566194   2.961707   2.545815
     8  C    3.915016   2.568940   1.545590   2.513227   2.958705
     9  H    1.016589   2.046978   2.766756   3.448891   4.520786
    10  H    1.015468   2.057190   2.823972   2.877947   3.552714
    11  H    2.081948   1.096098   2.149074   3.497957   4.118808
    12  H    2.075902   1.093819   2.181980   2.841692   2.886834
    13  H    2.765583   2.132332   1.099531   2.151483   3.486279
    14  H    4.086702   3.497544   2.151336   1.096194   2.158294
    15  H    2.823448   2.791679   2.184627   1.096677   2.174248
    16  H    3.530278   2.915888   2.857355   2.170511   1.097161
    17  H    4.704767   4.175557   3.502253   2.168962   1.096027
    18  H    5.610039   4.524950   3.983624   3.489523   2.171063
    19  H    5.622707   4.529430   3.436261   2.838412   2.159540
    20  H    4.281778   2.914713   2.866065   3.409392   2.861364
    21  H    5.596034   4.170179   3.508404   3.942016   3.488325
    22  H    4.122420   2.754633   2.179661   3.472620   3.962420
    23  H    4.711026   3.497302   2.166396   2.774839   3.350541
                    6          7          8          9         10
     6  C    0.000000
     7  C    1.535470   0.000000
     8  C    2.541059   1.537865   0.000000
     9  H    5.473032   5.092109   4.157189   0.000000
    10  H    4.768154   4.760815   4.261989   1.628599   0.000000
    11  H    4.424474   3.473776   2.714565   2.406318   2.938315
    12  H    3.402259   2.896455   2.846038   2.927244   2.392341
    13  H    3.955303   3.488372   2.151473   2.538783   3.114094
    14  H    2.808384   3.338997   2.758427   4.180793   3.823894
    15  H    3.491527   3.972692   3.478892   3.040913   2.265767
    16  H    2.165527   2.859948   3.402955   4.307450   3.120369
    17  H    2.166984   3.488406   3.940569   5.251846   4.136711
    18  H    1.096372   2.171079   3.489111   6.291516   5.423004
    19  H    1.098432   2.160182   2.840048   6.052758   5.463958
    20  H    2.164930   1.096741   2.170614   4.949880   4.536288
    21  H    2.166665   1.096108   2.170102   6.072021   5.840212
    22  H    3.489626   2.172323   1.097377   4.289386   4.692643
    23  H    2.814471   2.155620   1.097368   4.800283   4.977124
                   11         12         13         14         15
    11  H    0.000000
    12  H    1.747274   0.000000
    13  H    2.463975   3.052250   0.000000
    14  H    4.285365   3.860894   2.403038   0.000000
    15  H    3.804503   3.128169   2.518834   1.753332   0.000000
    16  H    3.867452   2.314302   3.860381   3.065512   2.493508
    17  H    5.155073   3.876951   4.299112   2.470443   2.499517
    18  H    5.146526   3.918130   4.991516   3.815305   4.320948
    19  H    5.138984   4.332497   4.195268   2.663102   3.823141
    20  H    3.115683   2.330699   3.865406   4.049491   4.259019
    21  H    4.276283   3.889791   4.300420   4.131959   4.994697
    22  H    2.442921   3.114464   2.512316   3.759367   4.328121
    23  H    3.667385   3.870759   2.414185   2.566979   3.775786
                   16         17         18         19         20
    16  H    0.000000
    17  H    1.754910   0.000000
    18  H    2.461496   2.520145   0.000000
    19  H    3.061631   2.450006   1.759346   0.000000
    20  H    2.741776   3.858944   2.459992   3.061483   0.000000
    21  H    3.858663   4.307985   2.521282   2.449872   1.754418
    22  H    4.239221   4.987708   4.318355   3.830351   2.481891
    23  H    4.056638   4.146936   3.819421   2.671566   3.062872
                   21         22         23
    21  H    0.000000
    22  H    2.507316   0.000000
    23  H    2.459697   1.759306   0.000000
 Stoichiometry    C7H15N
 Framework group  C1[X(C7H15N)]
 Deg. of freedom    63
 Full point group                 C1      NOp   1
 Largest Abelian subgroup         C1      NOp   1
 Largest concise Abelian subgroup C1      NOp   1
                         Standard orientation:                         
 ---------------------------------------------------------------------
 Center     Atomic      Atomic             Coordinates (Angstroms)
 Number     Number       Type             X           Y           Z
 ---------------------------------------------------------------------
      1          7           0        2.809002    0.241803   -0.471666
      2          6           0        1.561570   -0.529345   -0.518031
      3          6           0        0.595190   -0.387683    0.680556
      4          6           0        0.056449    1.044250    0.864853
      5          6           0       -0.928303    1.450742   -0.243858
      6          6           0       -2.090094    0.453275   -0.361361
      7          6           0       -1.593662   -0.991573   -0.515100
      8          6           0       -0.597120   -1.367377    0.594270
      9          1           0        3.315046    0.022686    0.382360
     10          1           0        2.612378    1.237662   -0.443731
     11          1           0        1.827110   -1.589072   -0.606906
     12          1           0        1.051093   -0.270009   -1.450017
     13          1           0        1.177371   -0.648880    1.575994
     14          1           0       -0.457272    1.093825    1.831949
     15          1           0        0.881300    1.764877    0.919761
     16          1           0       -0.401228    1.514990   -1.203976
     17          1           0       -1.320997    2.453690   -0.040973
     18          1           0       -2.731603    0.722341   -1.208770
     19          1           0       -2.714858    0.524192    0.539302
     20          1           0       -1.120757   -1.114413   -1.496992
     21          1           0       -2.446800   -1.679524   -0.496872
     22          1           0       -0.231094   -2.389928    0.437263
     23          1           0       -1.126884   -1.368788    1.555292
 ---------------------------------------------------------------------
 Rotational constants (GHZ):           3.1713021           1.4847829           1.2547516
 Standard basis: 6-31G(d,p) (6D, 7F)
 There are   195 symmetry adapted cartesian basis functions of A   symmetry.
 There are   195 symmetry adapted basis functions of A   symmetry.
   195 basis functions,   329 primitive gaussians,   195 cartesian basis functions
    32 alpha electrons       32 beta electrons
       nuclear repulsion energy       410.1653258671 Hartrees.
 NAtoms=   23 NActive=   23 NUniq=   23 SFac= 1.00D+00 NAtFMM=   60 NAOKFM=F Big=F
 Integral buffers will be    131072 words long.
 Raffenetti 2 integral format.
 Two-electron integral symmetry is turned on.
 Nuclear repulsion after empirical dispersion term =      410.1281781278 Hartrees.
 One-electron integrals computed using PRISM.
 NBasis=   195 RedAO= T EigKep=  3.49D-03  NBF=   195
 NBsUse=   195 1.00D-06 EigRej= -1.00D+00 NBFU=   195
 Initial guess from the checkpoint file:  "N2_conf-3.chk"
 B after Tr=     0.000000    0.000000    0.000000
         Rot=    0.999990   -0.003000    0.003298   -0.000541 Ang=  -0.51 deg.
 ExpMin= 1.61D-01 ExpMax= 4.17D+03 ExpMxC= 6.27D+02 IAcc=3 IRadAn=         5 AccDes= 0.00D+00
 Harris functional with IExCor=  402 and IRadAn=       5 diagonalized for initial guess.
 HarFok:  IExCor=  402 AccDes= 0.00D+00 IRadAn=         5 IDoV= 1 UseB2=F ITyADJ=14
 ICtDFT=  3500011 ScaDFX=  1.000000  1.000000  1.000000  1.000000
 FoFCou: FMM=F IPFlag=           0 FMFlag=      100000 FMFlg1=           0
         NFxFlg=           0 DoJE=T BraDBF=F KetDBF=T FulRan=T
         wScrn=  0.000000 ICntrl=       500 IOpCl=  0 I1Cent=   200000004 NGrid=           0
         NMat0=    1 NMatS0=      1 NMatT0=    0 NMatD0=    1 NMtDS0=    0 NMtDT0=    0
 Petite list used in FoFCou.
 Requested convergence on RMS density matrix=1.00D-08 within 128 cycles.
 Requested convergence on MAX density matrix=1.00D-06.
 Requested convergence on             energy=1.00D-06.
 No special actions if energy rises.
 Integral accuracy reduced to 1.0D-05 until final iterations.
 Initial convergence to 1.0D-05 achieved.  Increase integral accuracy.
 SCF Done:  E(RB3LYP) =  -330.593262097     A.U. after   10 cycles
            NFock= 10  Conv=0.49D-08     -V/T= 2.0100
 Calling FoFJK, ICntrl=      2127 FMM=F ISym2X=0 I1Cent= 0 IOpClX= 0 NMat=1 NMatS=1 NMatT=0.
 ***** Axes restored to original set *****
 -------------------------------------------------------------------
 Center     Atomic                   Forces (Hartrees/Bohr)
 Number     Number              X              Y              Z
 -------------------------------------------------------------------
      1        7          -0.001606364    0.003486053   -0.000261782
      2        6          -0.000660157    0.000155345   -0.000384926
      3        6          -0.001313445   -0.000966820   -0.000953516
      4        6           0.000267007    0.000478478    0.001882177
      5        6          -0.000325295   -0.000000781   -0.001472917
      6        6           0.000882002    0.000095316    0.000864677
      7        6          -0.000256649   -0.000789829   -0.000800483
      8        6           0.002083426    0.000568115    0.003099302
      9        1          -0.000007707   -0.000917165   -0.001127230
     10        1          -0.001100426   -0.000767660   -0.000062716
     11        1           0.001166365    0.000484835    0.000418169
     12        1          -0.000158751   -0.000130107    0.000896451
     13        1           0.000042718   -0.000364917   -0.000631137
     14        1          -0.000861608   -0.000826669   -0.000705490
     15        1           0.000699812    0.000206884   -0.000093933
     16        1           0.000171524    0.000348181    0.000288510
     17        1           0.000385238   -0.000369441    0.000340245
     18        1          -0.000484593   -0.000060517   -0.000349589
     19        1           0.000137846   -0.000125254   -0.000605322
     20        1           0.000236276   -0.000197886    0.000361027
     21        1           0.000406399    0.000415087    0.000051145
     22        1           0.000006171   -0.000127914   -0.000178293
     23        1           0.000290211   -0.000593334   -0.000574370
 -------------------------------------------------------------------
 Cartesian Forces:  Max     0.003486053 RMS     0.000889043

 GradGradGradGradGradGradGradGradGradGradGradGradGradGradGradGradGradGrad
 Berny optimization.
 Using GEDIIS/GDIIS optimizer.
 FormGI is forming the generalized inverse of G from B-inverse, IUseBI=4.
 Internal  Forces:  Max     0.003814961 RMS     0.000708448
 Search for a local minimum.
 Step number   2 out of a maximum of  138
 All quantities printed in internal units (Hartrees-Bohrs-Radians)
 Mixed Optimization -- En-DIIS/RFO-DIIS
 Update second derivatives using D2CorX and points    1    2
 DE= -2.97D-03 DEPred=-3.45D-03 R= 8.59D-01
 TightC=F SS=  1.41D+00  RLast= 2.60D-01 DXNew= 5.0454D-01 7.8008D-01
 Trust test= 8.59D-01 RLast= 2.60D-01 DXMaxT set to 5.05D-01
 ITU=  1  0
 Use linear search instead of GDIIS.
     Eigenvalues ---    0.00231   0.00403   0.00410   0.00501   0.00994
     Eigenvalues ---    0.01753   0.01897   0.03433   0.03660   0.03747
     Eigenvalues ---    0.03883   0.04210   0.04362   0.04469   0.04582
     Eigenvalues ---    0.04695   0.04763   0.05363   0.05379   0.05433
     Eigenvalues ---    0.05869   0.06479   0.07903   0.08102   0.08109
     Eigenvalues ---    0.08161   0.08241   0.08282   0.08643   0.10235
     Eigenvalues ---    0.12088   0.12109   0.13377   0.14159   0.15141
     Eigenvalues ---    0.15998   0.16083   0.17404   0.21015   0.24208
     Eigenvalues ---    0.26359   0.26842   0.27054   0.27392   0.27876
     Eigenvalues ---    0.28042   0.28272   0.33929   0.34592   0.34617
     Eigenvalues ---    0.34637   0.34654   0.34669   0.34683   0.34690
     Eigenvalues ---    0.34693   0.34700   0.34703   0.34762   0.34807
     Eigenvalues ---    0.39321   0.45607   0.45918
 RFO step:  Lambda=-5.90459695D-04 EMin= 2.31481543D-03
 Quartic linear search produced a step of -0.05926.
 Iteration  1 RMS(Cart)=  0.03514130 RMS(Int)=  0.00059546
 Iteration  2 RMS(Cart)=  0.00083788 RMS(Int)=  0.00008053
 Iteration  3 RMS(Cart)=  0.00000029 RMS(Int)=  0.00008053
 Variable       Old X    -DE/DX   Delta X   Delta X   Delta X     New X
                                 (Linear)    (Quad)   (Total)
    R1        2.77275  -0.00330  -0.00164  -0.00482  -0.00646   2.76630
    R2        1.92107   0.00114  -0.00070   0.00376   0.00305   1.92413
    R3        1.91896   0.00111  -0.00057   0.00343   0.00286   1.92182
    R4        2.92179  -0.00172   0.00026  -0.00634  -0.00608   2.91572
    R5        2.07133   0.00087  -0.00046   0.00329   0.00284   2.07416
    R6        2.06702   0.00086  -0.00030   0.00293   0.00263   2.06965
    R7        2.91204  -0.00061   0.00122  -0.00118   0.00004   2.91208
    R8        2.92074  -0.00264   0.00027  -0.00688  -0.00664   2.91410
    R9        2.07781   0.00062  -0.00087   0.00345   0.00258   2.08039
   R10        2.90564  -0.00101   0.00079  -0.00532  -0.00454   2.90110
   R11        2.07151   0.00119  -0.00052   0.00429   0.00376   2.07527
   R12        2.07242   0.00022  -0.00073   0.00207   0.00134   2.07376
   R13        2.90213  -0.00012   0.00100  -0.00505  -0.00402   2.89811
   R14        2.07333   0.00036  -0.00068   0.00236   0.00167   2.07501
   R15        2.07119   0.00011  -0.00057   0.00145   0.00089   2.07208
   R16        2.90162   0.00034   0.00103  -0.00430  -0.00327   2.89835
   R17        2.07184  -0.00004  -0.00060   0.00109   0.00050   2.07234
   R18        2.07574   0.00038  -0.00079   0.00262   0.00183   2.07757
   R19        2.90614  -0.00084   0.00082  -0.00406  -0.00322   2.90293
   R20        2.07254   0.00037  -0.00065   0.00232   0.00167   2.07421
   R21        2.07134   0.00007  -0.00057   0.00135   0.00078   2.07212
   R22        2.07374  -0.00007  -0.00070   0.00122   0.00052   2.07426
   R23        2.07372   0.00037  -0.00065   0.00234   0.00169   2.07541
    A1        1.91396   0.00030   0.00063  -0.00241  -0.00180   1.91215
    A2        1.93015  -0.00130  -0.00107  -0.00824  -0.00933   1.92081
    A3        1.85944  -0.00009  -0.00003  -0.00627  -0.00637   1.85307
    A4        2.04736  -0.00381  -0.00650  -0.00463  -0.01113   2.03623
    A5        1.88045   0.00064   0.00081  -0.00076   0.00006   1.88051
    A6        1.87453   0.00092   0.00197  -0.00536  -0.00336   1.87116
    A7        1.87849   0.00180   0.00246   0.00721   0.00970   1.88819
    A8        1.92527   0.00125   0.00111   0.00247   0.00355   1.92882
    A9        1.84751  -0.00056   0.00061   0.00164   0.00228   1.84980
   A10        1.97835  -0.00044   0.00140  -0.00868  -0.00713   1.97122
   A11        1.96147  -0.00123  -0.00010  -0.01144  -0.01145   1.95002
   A12        1.85315   0.00056   0.00175  -0.00259  -0.00090   1.85225
   A13        1.90285   0.00132  -0.00080   0.01795   0.01690   1.91975
   A14        1.88437  -0.00031  -0.00084  -0.00133  -0.00215   1.88221
   A15        1.87900   0.00012  -0.00161   0.00648   0.00491   1.88391
   A16        1.96419  -0.00025  -0.00085   0.00531   0.00414   1.96833
   A17        1.88744   0.00047   0.00175   0.00293   0.00476   1.89220
   A18        1.93225  -0.00036  -0.00007  -0.00806  -0.00799   1.92426
   A19        1.90080  -0.00021   0.00041  -0.00264  -0.00220   1.89860
   A20        1.92207   0.00044  -0.00118   0.00349   0.00247   1.92454
   A21        1.85313  -0.00008   0.00003  -0.00138  -0.00139   1.85174
   A22        1.94761  -0.00011  -0.00014  -0.00551  -0.00594   1.94167
   A23        1.91645   0.00048   0.00017   0.00053   0.00073   1.91718
   A24        1.91549  -0.00045   0.00021   0.00098   0.00131   1.91680
   A25        1.91187  -0.00062   0.00012  -0.00356  -0.00337   1.90850
   A26        1.91501   0.00079   0.00007   0.00716   0.00735   1.92236
   A27        1.85514  -0.00009  -0.00045   0.00072   0.00023   1.85537
   A28        1.95438  -0.00041   0.00064  -0.01007  -0.00971   1.94467
   A29        1.92025   0.00018  -0.00005   0.00482   0.00488   1.92513
   A30        1.90246   0.00007   0.00008  -0.00095  -0.00083   1.90163
   A31        1.92060  -0.00002  -0.00009   0.00469   0.00473   1.92534
   A32        1.90365   0.00028  -0.00000  -0.00044  -0.00043   1.90322
   A33        1.85992  -0.00009  -0.00064   0.00248   0.00179   1.86171
   A34        1.94682   0.00007  -0.00004  -0.00388  -0.00419   1.94263
   A35        1.91181  -0.00033   0.00013  -0.00237  -0.00221   1.90960
   A36        1.91482   0.00048   0.00009   0.00596   0.00618   1.92100
   A37        1.91670   0.00023   0.00022   0.00032   0.00061   1.91731
   A38        1.91664  -0.00043   0.00008  -0.00091  -0.00074   1.91591
   A39        1.85480  -0.00002  -0.00050   0.00114   0.00059   1.85539
   A40        1.96629  -0.00005  -0.00076   0.00472   0.00364   1.96993
   A41        1.91912   0.00007   0.00011   0.00046   0.00069   1.91981
   A42        1.90111  -0.00060   0.00101  -0.01053  -0.00946   1.89165
   A43        1.91839   0.00039  -0.00074   0.00523   0.00458   1.92296
   A44        1.89571   0.00020   0.00071  -0.00024   0.00056   1.89627
   A45        1.85993  -0.00001  -0.00030  -0.00009  -0.00045   1.85948
    D1        0.96755  -0.00030   0.00138  -0.01934  -0.01798   0.94957
    D2       -1.15364  -0.00055   0.00191  -0.02506  -0.02314  -1.17678
    D3       -3.13691  -0.00066  -0.00023  -0.02399  -0.02417   3.12210
    D4       -1.07801   0.00041   0.00168  -0.00531  -0.00369  -1.08170
    D5        3.08399   0.00015   0.00221  -0.01103  -0.00884   3.07515
    D6        1.10071   0.00004   0.00007  -0.00996  -0.00987   1.09084
    D7        1.09076  -0.00047  -0.00038  -0.04940  -0.04974   1.04102
    D8       -3.02507  -0.00003  -0.00042  -0.04127  -0.04178  -3.06685
    D9       -0.97508  -0.00020  -0.00135  -0.04121  -0.04255  -1.01764
   D10       -3.07022  -0.00081  -0.00188  -0.04781  -0.04963  -3.11985
   D11       -0.90286  -0.00037  -0.00192  -0.03968  -0.04167  -0.94454
   D12        1.14712  -0.00055  -0.00286  -0.03962  -0.04245   1.10468
   D13       -1.06236   0.00019   0.00096  -0.04055  -0.03953  -1.10190
   D14        1.10499   0.00063   0.00092  -0.03242  -0.03158   1.07342
   D15       -3.12820   0.00045  -0.00002  -0.03237  -0.03235   3.12263
   D16        1.22627  -0.00031  -0.00292   0.03352   0.03063   1.25690
   D17       -2.95650  -0.00042  -0.00177   0.03550   0.03369  -2.92281
   D18       -0.93312  -0.00044  -0.00074   0.03113   0.03039  -0.90273
   D19       -0.97263   0.00060  -0.00319   0.04093   0.03781  -0.93482
   D20        1.12778   0.00049  -0.00204   0.04291   0.04088   1.16865
   D21       -3.13202   0.00047  -0.00101   0.03853   0.03757  -3.09445
   D22       -3.00922  -0.00008  -0.00046   0.02435   0.02398  -2.98525
   D23       -0.90882  -0.00019   0.00070   0.02633   0.02704  -0.88177
   D24        1.11457  -0.00021   0.00172   0.02196   0.02374   1.13831
   D25       -1.23830  -0.00030   0.00201  -0.03645  -0.03445  -1.27275
   D26        0.90808   0.00021   0.00062  -0.02604  -0.02543   0.88265
   D27        2.94025  -0.00011   0.00091  -0.03195  -0.03100   2.90925
   D28        0.97032  -0.00077   0.00315  -0.04240  -0.03932   0.93100
   D29        3.11669  -0.00026   0.00176  -0.03200  -0.03029   3.08639
   D30       -1.13432  -0.00058   0.00205  -0.03791  -0.03586  -1.17019
   D31        3.01033  -0.00037   0.00093  -0.03088  -0.02995   2.98037
   D32       -1.12649   0.00014  -0.00046  -0.02047  -0.02093  -1.14742
   D33        0.90569  -0.00018  -0.00017  -0.02639  -0.02650   0.87919
   D34        0.96467  -0.00040   0.00063  -0.00395  -0.00338   0.96129
   D35       -1.15868   0.00012   0.00045   0.00386   0.00431  -1.15437
   D36        3.09133   0.00022   0.00077   0.00211   0.00284   3.09417
   D37       -1.12802  -0.00069  -0.00130  -0.00921  -0.01050  -1.13852
   D38        3.03182  -0.00016  -0.00147  -0.00140  -0.00280   3.02901
   D39        0.99864  -0.00007  -0.00115  -0.00314  -0.00427   0.99437
   D40        3.12970  -0.00072  -0.00090  -0.00799  -0.00894   3.12076
   D41        1.00635  -0.00019  -0.00108  -0.00018  -0.00125   1.00511
   D42       -1.02682  -0.00010  -0.00076  -0.00192  -0.00272  -1.02954
   D43       -0.92152  -0.00049   0.00151  -0.03837  -0.03680  -0.95831
   D44       -3.06324  -0.00031   0.00121  -0.04085  -0.03958  -3.10282
   D45        1.18637  -0.00035   0.00197  -0.04603  -0.04404   1.14232
   D46        1.20448  -0.00038   0.00171  -0.04379  -0.04206   1.16241
   D47       -0.93725  -0.00020   0.00142  -0.04627  -0.04485  -0.98210
   D48       -2.97083  -0.00024   0.00217  -0.05145  -0.04931  -3.02014
[...]
   XX=    32.8214   YX=     4.4342   ZX=     2.1454
   XY=     4.8052   YY=    32.5858   ZY=     0.8780
   XZ=     2.0039   YZ=     0.7590   ZZ=    26.2347
   Eigenvalues:    25.5778    28.3677    37.6965
     22  H    Isotropic =    30.4401   Anisotropy =     8.6227
   XX=    29.0903   YX=    -1.0527   ZX=     0.6284
   XY=    -1.4717   YY=    35.8455   ZY=    -1.0201
   XZ=     0.5296   YZ=    -0.9259   ZZ=    26.3846
   Eigenvalues:    26.2112    28.9206    36.1886
     23  H    Isotropic =    30.4245   Anisotropy =     8.8724
   XX=    29.7411   YX=     1.8145   ZX=    -2.4774
   XY=     2.3686   YY=    28.4759   ZY=    -3.9570
   XZ=    -2.4135   YZ=    -2.7660   ZZ=    33.0566
   Eigenvalues:    26.4615    28.4726    36.3395
 End of Minotr F.D. properties file   721 does not exist.
 End of Minotr F.D. properties file   722 does not exist.
 End of Minotr F.D. properties file   788 does not exist.

 **********************************************************************

            Population analysis using the SCF Density.

 **********************************************************************

 Orbital symmetries:
       Occupied  (A) (A) (A) (A) (A) (A) (A) (A) (A) (A) (A) (A)
                 (A) (A) (A) (A) (A) (A) (A) (A) (A) (A) (A) (A)
                 (A) (A) (A) (A) (A) (A) (A) (A)
       Virtual   (A) (A) (A) (A) (A) (A) (A) (A) (A) (A) (A) (A)
                 (A) (A) (A) (A) (A) (A) (A) (A) (A) (A) (A) (A)
                 (A) (A) (A) (A) (A) (A) (A) (A) (A) (A) (A) (A)
                 (A) (A) (A) (A) (A) (A) (A) (A) (A) (A) (A) (A)
                 (A) (A) (A) (A) (A) (A) (A) (A) (A) (A) (A) (A)
                 (A) (A) (A) (A) (A) (A) (A) (A) (A) (A) (A) (A)
                 (A) (A) (A) (A) (A) (A) (A) (A) (A) (A) (A) (A)
                 (A) (A) (A) (A) (A) (A) (A) (A) (A) (A) (A) (A)
                 (A) (A) (A) (A) (A) (A) (A) (A) (A) (A) (A) (A)
                 (A) (A) (A) (A) (A) (A) (A) (A) (A) (A) (A) (A)
                 (A) (A) (A) (A) (A) (A) (A) (A) (A) (A) (A) (A)
                 (A) (A) (A) (A) (A) (A) (A) (A) (A) (A) (A) (A)
                 (A) (A) (A) (A) (A) (A) (A) (A) (A) (A) (A) (A)
                 (A) (A) (A) (A) (A) (A) (A) (A) (A) (A) (A) (A)
                 (A) (A) (A) (A) (A) (A) (A) (A) (A) (A) (A) (A)
                 (A) (A) (A) (A) (A) (A) (A) (A) (A) (A) (A) (A)
                 (A) (A) (A) (A) (A) (A) (A) (A) (A) (A) (A) (A)
                 (A) (A) (A) (A) (A) (A) (A) (A) (A) (A) (A) (A)
                 (A) (A) (A) (A) (A) (A) (A) (A) (A) (A) (A) (A)
                 (A) (A) (A) (A) (A) (A) (A) (A) (A) (A) (A) (A)
                 (A) (A) (A) (A) (A) (A) (A) (A) (A) (A) (A) (A)
                 (A) (A) (A) (A) (A) (A) (A) (A) (A) (A) (A) (A)
                 (A) (A) (A) (A) (A) (A) (A) (A) (A) (A) (A) (A)
                 (A) (A) (A) (A) (A) (A) (A) (A) (A) (A) (A) (A)
                 (A) (A) (A) (A) (A) (A) (A) (A) (A) (A) (A) (A)
                 (A) (A) (A) (A) (A) (A)
 The electronic state is 1-A.
 Alpha  occ. eigenvalues --  -14.72265 -10.55145 -10.53284 -10.52867 -10.52815
 Alpha  occ. eigenvalues --  -10.52801 -10.52771 -10.52733  -0.98601  -0.92735
 Alpha  occ. eigenvalues --   -0.84224  -0.83390  -0.74420  -0.69148  -0.67740
 Alpha  occ. eigenvalues --   -0.61044  -0.57226  -0.54709  -0.51769  -0.50577
 Alpha  occ. eigenvalues --   -0.50417  -0.46908  -0.45390  -0.43958  -0.43025
 Alpha  occ. eigenvalues --   -0.41459  -0.41113  -0.39607  -0.37315  -0.35208
 Alpha  occ. eigenvalues --   -0.35046  -0.30134
 Alpha virt. eigenvalues --    0.05489   0.07399   0.07760   0.09340   0.11195
 Alpha virt. eigenvalues --    0.11319   0.12636   0.13166   0.13631   0.14278
 Alpha virt. eigenvalues --    0.15647   0.16638   0.17663   0.18515   0.19588
 Alpha virt. eigenvalues --    0.20934   0.22210   0.22672   0.23145   0.24561
 Alpha virt. eigenvalues --    0.25442   0.26154   0.26346   0.27330   0.27400
 Alpha virt. eigenvalues --    0.27839   0.30479   0.30714   0.33318   0.34104
 Alpha virt. eigenvalues --    0.35685   0.36752   0.38795   0.40072   0.41181
 Alpha virt. eigenvalues --    0.42700   0.43242   0.43399   0.44076   0.44570
 Alpha virt. eigenvalues --    0.44861   0.46018   0.46963   0.47356   0.47741
 Alpha virt. eigenvalues --    0.48375   0.48658   0.49332   0.49861   0.51251
 Alpha virt. eigenvalues --    0.52071   0.52567   0.53042   0.54038   0.54770
 Alpha virt. eigenvalues --    0.55526   0.57066   0.58111   0.60420   0.61116
 Alpha virt. eigenvalues --    0.63309   0.64712   0.65832   0.67705   0.69958
 Alpha virt. eigenvalues --    0.75648   0.77261   0.78440   0.80063   0.80442
 Alpha virt. eigenvalues --    0.81102   0.83686   0.84162   0.86094   0.88603
 Alpha virt. eigenvalues --    0.88901   0.92386   0.94370   0.96230   0.97143
 Alpha virt. eigenvalues --    0.99213   1.00405   1.05765   1.06345   1.07376
 Alpha virt. eigenvalues --    1.08385   1.10237   1.12780   1.15495   1.16456
 Alpha virt. eigenvalues --    1.17430   1.19809   1.20576   1.21295   1.22792
 Alpha virt. eigenvalues --    1.26721   1.27592   1.28155   1.28822   1.31184
 Alpha virt. eigenvalues --    1.32120   1.33465   1.34337   1.34936   1.36918
 Alpha virt. eigenvalues --    1.42417   1.45651   1.46542   1.49063   1.50639
 Alpha virt. eigenvalues --    1.54965   1.57487   1.58953   1.61264   1.62826
 Alpha virt. eigenvalues --    1.64579   1.65406   1.66250   1.66910   1.68633
 Alpha virt. eigenvalues --    1.69672   1.71149   1.71429   1.74117   1.76551
 Alpha virt. eigenvalues --    1.77871   1.80495   1.81522   1.84509   1.85384
 Alpha virt. eigenvalues --    1.86246   1.90013   1.90960   1.91458   1.93527
 Alpha virt. eigenvalues --    1.94726   1.95693   1.98246   2.00195   2.01738
 Alpha virt. eigenvalues --    2.02569   2.03212   2.06893   2.07539   2.08445
 Alpha virt. eigenvalues --    2.09229   2.13648   2.16201   2.17458   2.18468
 Alpha virt. eigenvalues --    2.21047   2.21441   2.23979   2.25771   2.28962
 Alpha virt. eigenvalues --    2.29899   2.32353   2.34234   2.38575   2.42925
 Alpha virt. eigenvalues --    2.44101   2.45481   2.46812   2.47436   2.49266
 Alpha virt. eigenvalues --    2.51317   2.53055   2.53546   2.54341   2.56019
 Alpha virt. eigenvalues --    2.57521   2.58297   2.59104   2.61405   2.62271
 Alpha virt. eigenvalues --    2.63566   2.63777   2.65436   2.66064   2.67497
 Alpha virt. eigenvalues --    2.67931   2.69323   2.70539   2.71224   2.72725
 Alpha virt. eigenvalues --    2.75262   2.75395   2.77418   2.77897   2.81308
 Alpha virt. eigenvalues --    2.81760   2.83126   2.83867   2.85794   2.86042
 Alpha virt. eigenvalues --    2.89597   2.90998   2.91690   2.94596   2.96719
 Alpha virt. eigenvalues --    3.00482   3.01100   3.03434   3.04633   3.06304
 Alpha virt. eigenvalues --    3.11178   3.13578   3.13912   3.15369   3.18153
 Alpha virt. eigenvalues --    3.19150   3.19683   3.23085   3.23211   3.24847
 Alpha virt. eigenvalues --    3.26916   3.28300   3.31954   3.32301   3.33130
 Alpha virt. eigenvalues --    3.34610   3.36500   3.37729   3.39625   3.41291
 Alpha virt. eigenvalues --    3.41971   3.42824   3.44802   3.46586   3.47883
 Alpha virt. eigenvalues --    3.49294   3.50143   3.52326   3.52507   3.56074
 Alpha virt. eigenvalues --    3.56552   3.58329   3.59149   3.60173   3.64044
 Alpha virt. eigenvalues --    3.64299   3.66277   3.71696   3.72845   3.78432
 Alpha virt. eigenvalues --    3.80400   3.85500   3.86791   3.89661   3.91564
 Alpha virt. eigenvalues --    3.92290   3.94786   3.98523   3.99273   4.01944
 Alpha virt. eigenvalues --    4.02574   4.04632   4.06082   4.07230   4.10283
 Alpha virt. eigenvalues --    4.12464   4.15692   4.17946   4.20062   4.22749
 Alpha virt. eigenvalues --    4.25069   4.29418   4.31865   4.32590   4.33707
 Alpha virt. eigenvalues --    4.37667   4.38739   4.40419   4.48633   4.49858
 Alpha virt. eigenvalues --    4.53838   4.57612   4.62329   4.67619   4.69859
 Alpha virt. eigenvalues --    4.71984   4.75661   4.78129   4.79188   4.81750
 Alpha virt. eigenvalues --    4.85691   4.87174   4.92364   4.94899   4.98699
 Alpha virt. eigenvalues --    4.99865   5.00405   5.09652   5.13128   5.21723
 Alpha virt. eigenvalues --    5.29106   5.49581   5.77291  22.53843  22.56173
 Alpha virt. eigenvalues --   22.61520  22.61885  22.66099  22.71345  22.76865
 Alpha virt. eigenvalues --   32.10549
          Condensed to atoms (all electrons):
               1          2          3          4          5          6
     1  N    6.624579   0.237559  -0.094002   0.017707  -0.004897  -0.000786
     2  C    0.237559   5.117877   0.317553  -0.075940   0.029477  -0.010738
     3  C   -0.094002   0.317553   5.432913   0.196683  -0.054097   0.025640
     4  C    0.017707  -0.075940   0.196683   5.372082   0.170805  -0.027713
     5  C   -0.004897   0.029477  -0.054097   0.170805   5.274604   0.210174
     6  C   -0.000786  -0.010738   0.025640  -0.027713   0.210174   5.225022
     7  C   -0.000874   0.014822  -0.037818  -0.019972  -0.028342   0.219063
     8  C    0.020754  -0.068748   0.167726  -0.009683   0.000349  -0.049490
     9  H    0.379565  -0.070279   0.008876  -0.009490   0.001825  -0.000224
    10  H    0.389313  -0.060708  -0.008146   0.013686  -0.003196   0.000068
    11  H   -0.022950   0.417496  -0.073916   0.014412  -0.001399   0.000460
    12  H   -0.037039   0.428449  -0.051995  -0.019447   0.012841  -0.006340
    13  H   -0.004419  -0.041385   0.441401  -0.072377   0.013204  -0.003854
    14  H    0.000930   0.007233  -0.055316   0.435105  -0.043296  -0.003832
    15  H    0.019115  -0.022994  -0.055940   0.436490  -0.056953   0.006013
    16  H    0.001984   0.001030  -0.013238  -0.044253   0.431289  -0.052625
    17  H    0.000120  -0.000889   0.008779  -0.047279   0.434424  -0.041647
    18  H   -0.000023   0.000207  -0.001485   0.008218  -0.042675   0.429496
    19  H    0.000006   0.000397  -0.002037  -0.000077  -0.053404   0.429444
    20  H    0.000051  -0.001285  -0.003336   0.003293  -0.004944  -0.053287
    21  H    0.000029  -0.000170   0.008261  -0.001349   0.009189  -0.044202
    22  H    0.000515  -0.009034  -0.045933   0.007576  -0.001229   0.009300
    23  H   -0.000821   0.008971  -0.042445  -0.002225  -0.001860  -0.000344
               7          8          9         10         11         12
     1  N   -0.000874   0.020754   0.379565   0.389313  -0.022950  -0.037039
     2  C    0.014822  -0.068748  -0.070279  -0.060708   0.417496   0.428449
     3  C   -0.037818   0.167726   0.008876  -0.008146  -0.073916  -0.051995
     4  C   -0.019972  -0.009683  -0.009490   0.013686   0.014412  -0.019447
     5  C   -0.028342   0.000349   0.001825  -0.003196  -0.001399   0.012841
     6  C    0.219063  -0.049490  -0.000224   0.000068   0.000460  -0.006340
     7  C    5.249496   0.222586   0.000084  -0.000011  -0.003349   0.009437
     8  C    0.222586   5.286381   0.001489  -0.000632   0.004976  -0.003305
     9  H    0.000084   0.001489   0.492991  -0.039962  -0.005810   0.009440
    10  H   -0.000011  -0.000632  -0.039962   0.482815   0.007967  -0.009950
    11  H   -0.003349   0.004976  -0.005810   0.007967   0.541586  -0.023553
    12  H    0.009437  -0.003305   0.009440  -0.009950  -0.023553   0.537680
    13  H    0.011097  -0.034526   0.005446   0.000166  -0.004030   0.007162
    14  H    0.000521   0.000113  -0.000195   0.000245  -0.000202  -0.000536
    15  H   -0.001005   0.011915   0.004668  -0.000683  -0.000029   0.002930
    16  H   -0.004048   0.004254  -0.000241   0.002022   0.000564  -0.007491
    17  H    0.007904  -0.001384   0.000015  -0.000040   0.000034   0.000089
    18  H   -0.042221   0.008539  -0.000000   0.000001  -0.000011   0.000137
    19  H   -0.052291  -0.000489  -0.000002   0.000006   0.000025  -0.000145
    20  H    0.439718  -0.055046  -0.000032   0.000069   0.000956  -0.004948
    21  H    0.433548  -0.044730   0.000001  -0.000003  -0.000177   0.000168
    22  H   -0.056353   0.443814   0.000110   0.000001   0.003469   0.001047
    23  H   -0.046664   0.420310  -0.000089   0.000028  -0.000160  -0.000696
              13         14         15         16         17         18
     1  N   -0.004419   0.000930   0.019115   0.001984   0.000120  -0.000023
     2  C   -0.041385   0.007233  -0.022994   0.001030  -0.000889   0.000207
     3  C    0.441401  -0.055316  -0.055940  -0.013238   0.008779  -0.001485
     4  C   -0.072377   0.435105   0.436490  -0.044253  -0.047279   0.008218
     5  C    0.013204  -0.043296  -0.056953   0.431289   0.434424  -0.042675
     6  C   -0.003854  -0.003832   0.006013  -0.052625  -0.041647   0.429496
     7  C    0.011097   0.000521  -0.001005  -0.004048   0.007904  -0.042221
     8  C   -0.034526   0.000113   0.011915   0.004254  -0.001384   0.008539
     9  H    0.005446  -0.000195   0.004668  -0.000241   0.000015  -0.000000
    10  H    0.000166   0.000245  -0.000683   0.002022  -0.000040   0.000001
    11  H   -0.004030  -0.000202  -0.000029   0.000564   0.000034  -0.000011
    12  H    0.007162  -0.000536   0.002930  -0.007491   0.000089   0.000137
    13  H    0.571814  -0.007802  -0.001547  -0.000687  -0.000346   0.000152
    14  H   -0.007802   0.518090  -0.012013   0.006018  -0.003530  -0.000164
    15  H   -0.001547  -0.012013   0.542017  -0.000689  -0.005700  -0.000382
    16  H   -0.000687   0.006018  -0.000689   0.538358  -0.018054  -0.003481
    17  H   -0.000346  -0.003530  -0.005700  -0.018054   0.534082  -0.006012
    18  H    0.000152  -0.000164  -0.000382  -0.003481  -0.006012   0.537325
    19  H   -0.000341   0.002333  -0.000179   0.007127  -0.003443  -0.018983
    20  H   -0.000582   0.000051  -0.000241   0.002339  -0.000168  -0.003267
    21  H   -0.000287  -0.000076   0.000159  -0.000091  -0.000326  -0.005812
    22  H   -0.003663  -0.000188  -0.000251  -0.000140   0.000146  -0.000365
    23  H   -0.009494   0.001787  -0.000805  -0.000028  -0.000122  -0.000112
              19         20         21         22         23
     1  N    0.000006   0.000051   0.000029   0.000515  -0.000821
     2  C    0.000397  -0.001285  -0.000170  -0.009034   0.008971
     3  C   -0.002037  -0.003336   0.008261  -0.045933  -0.042445
     4  C   -0.000077   0.003293  -0.001349   0.007576  -0.002225
     5  C   -0.053404  -0.004944   0.009189  -0.001229  -0.001860
     6  C    0.429444  -0.053287  -0.044202   0.009300  -0.000344
     7  C   -0.052291   0.439718   0.433548  -0.056353  -0.046664
     8  C   -0.000489  -0.055046  -0.044730   0.443814   0.420310
     9  H   -0.000002  -0.000032   0.000001   0.000110  -0.000089
    10  H    0.000006   0.000069  -0.000003   0.000001   0.000028
    11  H    0.000025   0.000956  -0.000177   0.003469  -0.000160
    12  H   -0.000145  -0.004948   0.000168   0.001047  -0.000696
    13  H   -0.000341  -0.000582  -0.000287  -0.003663  -0.009494
    14  H    0.002333   0.000051  -0.000076  -0.000188   0.001787
    15  H   -0.000179  -0.000241   0.000159  -0.000251  -0.000805
    16  H    0.007127   0.002339  -0.000091  -0.000140  -0.000028
    17  H   -0.003443  -0.000168  -0.000326   0.000146  -0.000122
    18  H   -0.018983  -0.003267  -0.005812  -0.000365  -0.000112
    19  H    0.544570   0.006978  -0.003117  -0.000156   0.002259
    20  H    0.006978   0.531245  -0.017467  -0.001221   0.006211
    21  H   -0.003117  -0.017467   0.532622  -0.006360  -0.003897
    22  H   -0.000156  -0.001221  -0.006360   0.523890  -0.016125
    23  H    0.002259   0.006211  -0.003897  -0.016125   0.534836
 Mulliken charges:
               1
     1  N   -0.526416
     2  C   -0.218900
     3  C   -0.068129
     4  C   -0.346253
     5  C   -0.291889
     6  C   -0.259599
     7  C   -0.315328
     8  C   -0.325173
     9  H    0.221814
    10  H    0.226945
    11  H    0.143640
    12  H    0.156065
    13  H    0.134899
    14  H    0.154725
    15  H    0.136103
    16  H    0.150081
    17  H    0.143347
    18  H    0.140918
    19  H    0.141519
    20  H    0.154910
    21  H    0.144089
    22  H    0.151148
    23  H    0.151485
 Sum of Mulliken charges =  -0.00000
 Mulliken charges with hydrogens summed into heavy atoms:
               1
     1  N   -0.077658
     2  C    0.080804
     3  C    0.066770
     4  C   -0.055425
     5  C    0.001539
     6  C    0.022838
     7  C   -0.016329
     8  C   -0.022540
 Electronic spatial extent (au):  <R**2>=           1093.8328
 Charge=              0.0000 electrons
 Dipole moment (field-independent basis, Debye):
    X=             -0.9584    Y=              0.3451    Z=              1.0864  Tot=              1.4893
 Quadrupole moment (field-independent basis, Debye-Ang):
   XX=            -57.4213   YY=            -51.5605   ZZ=            -53.6204
   XY=              0.9774   XZ=              4.5402   YZ=             -0.3793
 Traceless Quadrupole moment (field-independent basis, Debye-Ang):
   XX=             -3.2206   YY=              2.6402   ZZ=              0.5804
   XY=              0.9774   XZ=              4.5402   YZ=             -0.3793
 Octapole moment (field-independent basis, Debye-Ang**2):
  XXX=            -13.0834  YYY=              1.9715  ZZZ=              0.8165  XYY=              5.8977
  XXY=              2.7135  XXZ=             18.2158  XZZ=             -2.5623  YZZ=              0.5273
  YYZ=             -1.0703  XYZ=             -0.7546
 Hexadecapole moment (field-independent basis, Debye-Ang**3):
 XXXX=           -951.3789 YYYY=           -400.5288 ZZZZ=           -215.8613 XXXY=             11.3072
 XXXZ=             65.3285 YYYX=              4.2543 YYYZ=             -0.0862 ZZZX=              4.2833
 ZZZY=             -1.7851 XXYY=           -202.3347 XXZZ=           -194.2507 YYZZ=           -106.8670
 XXYZ=             -1.9687 YYXZ=             -2.7798 ZZXY=             -0.5400
 N-N= 4.108522235152D+02 E-N=-1.587636835707D+03  KE= 3.285866827866D+02
 Unable to Open any file for archive entry.
 1\1\GINC-NOTCH237\SP\RM062X\def2TZVP\C7H15N1\U6032257\21-Feb-2022\0\\#
  M062X/def2tzvp int=(grid=ultrafine) nmr=giao guess=read geom=check\\N
 2.xyz\\0,1\N,0,3.2915770127,-0.2311297702,1.4780273125\C,0,2.305731450
 4,0.8426816389,1.3426253668\C,0,1.1835739991,0.6265524649,0.303136145\
 C,0,0.3247764467,-0.6190696166,0.5935959454\C,0,-0.5953680379,-0.43460
 81664,1.8086011768\C,0,-1.4855316409,0.8045052172,1.6450245045\C,0,-0.
 6466630943,2.0621484836,1.3827850014\C,0,0.2827093262,1.871057063,0.17
 43513068\H,0,3.6654366043,-0.4711577522,0.5615961578\H,0,2.8431734924,
 -1.0741605614,1.8278599823\H,0,2.8444803376,1.7614670788,1.0779669211\
 H,0,1.8792856292,1.0204273151,2.3355703566\H,0,1.6845974714,0.47108809
 55,-0.6642286741\H,0,-0.2941918381,-0.8317693659,-0.2881262381\H,0,0.9
 691587841,-1.4959542333,0.7302545421\H,0,0.0062211899,-0.3294217958,2.
 7212881722\H,0,-1.2113754825,-1.3303009851,1.9488778724\H,0,-2.1153747
 818,0.9432835707,2.531313098\H,0,-2.1669299428,0.64481118,0.7972677495
 \H,0,-0.0543387313,2.2948149339,2.2770298086\H,0,-1.300017873,2.926097
 9662,1.2148559924\H,0,0.9011556023,2.7652742317,0.0270878656\H,0,-0.33
 40859238,1.7673630075,-0.7284603655\\Version=ES64L-G16RevC.01\State=1-
 A\HF=-330.4934677\RMSD=1.425e-09\Dipole=-0.4473271,-0.1441213,-0.34991
 55\Quadrupole=-3.2473573,2.2398199,1.0075374,-0.3936501,-2.9004744,0.1
 787594\PG=C01 [X(C7H15N1)]\\@
 The archive entry for this job was punched.


 THEREFORE SHALL EVIL COME UPON THEE...
 THOU SHALT NOT KNOW FROM WHENCE IT RISETH...
 AND MISCHIEF SHALL FALL UPON THEE...
 THOU SHALT NOT BE ABLE TO PUT IT OFF...
 AND DESOLATION SHALL COME UPON THEE SUDDENLY...
 WHICH THOU SHALT NOT KNOW...

                                         ISAIAH 47.11
 Job cpu time:       0 days  0 hours 22 minutes 41.4 seconds.
 Elapsed time:       0 days  0 hours  0 minutes 25.5 seconds.
 File lengths (MBytes):  RWF=     70 Int=      0 D2E=      0 Chk=     12 Scr=      1
 Normal termination of Gaussian 16 at Mon Feb 21 19:08:01 2022.
