 Entering Gaussian System, Link 0=/uufs/chpc.utah.edu/sys/installdir/gaussian16/C01/AVX2/g16/g16
 Input=N2_conf-4.com
 Output=N2_conf-4.log
 Initial command:
 /uufs/chpc.utah.edu/sys/installdir/gaussian16/C01/AVX2/g16/l1.exe "/scratch/local/u6032257/4038571/notchpeak.peaks/Gau-124109.inp" -scrdir="/scratch/local/u6032257/4038571/notchpeak.peaks/"
 Entering Link 1 = /uufs/chpc.utah.edu/sys/installdir/gaussian16/C01/AVX2/g16/l1.exe PID=    124111.
  
 Copyright (c) 1988-2019, Gaussian, Inc.  All Rights Reserved.
  
 This is part of the Gaussian(R) 16 program.  It is based on
 the Gaussian(R) 09 system (copyright 2009, Gaussian, Inc.),
 the Gaussian(R) 03 system (copyright 2003, Gaussian, Inc.),
 the Gaussian(R) 98 system (copyright 1998, Gaussian, Inc.),
 the Gaussian(R) 94 system (copyright 1995, Gaussian, Inc.),
 the Gaussian 92(TM) system (copyright 1992, Gaussian, Inc.),
 the Gaussian 90(TM) system (copyright 1990, Gaussian, Inc.),
 the Gaussian 88(TM) system (copyright 1988, Gaussian, Inc.),
 the Gaussian 86(TM) system (copyright 1986, Carnegie Mellon
 University), and the Gaussian 82(TM) system (copyright 1983,
 Carnegie Mellon University). Gaussian is a federally registered
 trademark of Gaussian, Inc.
  
 This software contains proprietary and confidential information,
 including trade secrets, belonging to Gaussian, Inc.
  
 This software is provided under written license and may be
 used, copied, transmitted, or stored only in accord with that
 written license.
  
 The following legend is applicable only to US Government
 contracts under FAR:
  
                    RESTRICTED RIGHTS LEGEND
  
 Use, reproduction and disclosure by the US Government is
 subject to restrictions as set forth in subparagraphs (a)
 and (c) of the Commercial Computer Software - Restricted
 Rights clause in FAR 52.227-19.
  
 Gaussian, Inc.
 340 Quinnipiac St., Bldg. 40, Wallingford CT 06492
  
  
 ---------------------------------------------------------------
 Warning -- This program may not be used in any manner that
 competes with the business of Gaussian, Inc. or will provide
 assistance to any competitor of Gaussian, Inc.  The licensee
 of this program is prohibited from giving any competitor of
 Gaussian, Inc. access to this program.  By using this program,
 the user acknowledges that Gaussian, Inc. is engaged in the
 business of creating and licensing software in the field of
 computational chemistry and represents and warrants to the
 licensee that it is not a competitor of Gaussian, Inc. and that
 it will not use this program in any manner prohibited above.
 ---------------------------------------------------------------
  

 Cite this work as:
 Gaussian 16, Revision C.01,
 M. J. Frisch, G. W. Trucks, H. B. Schlegel, G. E. Scuseria, 
 M. A. Robb, J. R. Cheeseman, G. Scalmani, V. Barone, 
 G. A. Petersson, H. Nakatsuji, X. Li, M. Caricato, A. V. Marenich, 
 J. Bloino, B. G. Janesko, R. Gomperts, B. Mennucci, H. P. Hratchian, 
 J. V. Ortiz, A. F. Izmaylov, J. L. Sonnenberg, D. Williams-Young, 
 F. Ding, F. Lipparini, F. Egidi, J. Goings, B. Peng, A. Petrone, 
 T. Henderson, D. Ranasinghe, V. G. Zakrzewski, J. Gao, N. Rega, 
 G. Zheng, W. Liang, M. Hada, M. Ehara, K. Toyota, R. Fukuda, 
 J. Hasegawa, M. Ishida, T. Nakajima, Y. Honda, O. Kitao, H. Nakai, 
 T. Vreven, K. Throssell, J. A. Montgomery, Jr., J. E. Peralta, 
 F. Ogliaro, M. J. Bearpark, J. J. Heyd, E. N. Brothers, K. N. Kudin, 
 V. N. Staroverov, T. A. Keith, R. Kobayashi, J. Normand, 
 K. Raghavachari, A. P. Rendell, J. C. Burant, S. S. Iyengar, 
 J. Tomasi, M. Cossi, J. M. Millam, M. Klene, C. Adamo, R. Cammi, 
 J. W. Ochterski, R. L. Martin, K. Morokuma, O. Farkas, 
 J. B. Foresman, and D. J. Fox, Gaussian, Inc., Wallingford CT, 2019.
 
 ******************************************
 Gaussian 16:  ES64L-G16RevC.01  3-Jul-2019
                21-Feb-2022 
 ******************************************
 %NProcShared=64
 Will use up to   64 processors via shared memory.
 %mem=16GB
 %chk=N2_conf-4.chk
 ----------------------------------------------------------------------
 # B3LYP/6-31G(d,p) empiricaldispersion=GD3BJ int=(grid=ultrafine) opt 
 freq=noraman
 ----------------------------------------------------------------------
 1/18=20,19=15,26=4,38=1/1,3;
 2/9=110,12=2,17=6,18=5,40=1/2;
 3/5=1,6=6,7=101,11=2,25=1,30=1,71=1,74=-5,75=-5,124=41/1,2,3;
 4//1;
 5/5=2,38=5/2;
 6/7=2,8=2,9=2,10=2,28=1/1;
 7//1,2,3,16;
 1/18=20,19=15,26=4/3(2);
 2/9=110/2;
 99//99;
 2/9=110/2;
 3/5=1,6=6,7=101,11=2,25=1,30=1,71=1,74=-5,75=-5,124=41/1,2,3;
 4/5=5,16=3,69=1/1;
 5/5=2,38=5/2;
 7//1,2,3,16;
 1/18=20,19=15,26=4/3(-5);
 2/9=110/2;
 6/7=2,8=2,9=2,10=2,19=2,28=1/1;
 99/9=1/99;
 ------
 N2.xyz
 ------
 Symbolic Z-matrix:
 Charge =  0 Multiplicity = 1
 N                     2.364    -0.0782   -0.095 
 C                     2.6387    0.5584    1.1817 
 C                     1.3459    0.9959    1.919 
 C                     0.5973    2.0792    1.078 
 C                    -0.5728    1.617     0.1867 
 C                    -1.4861    0.609     0.8909 
 C                    -0.6805   -0.6192    1.3249 
 C                     0.4847   -0.2599    2.2686 
 H                     1.7551   -0.8678    0.0678 
 H                     1.8239    0.5621   -0.6599 
 H                     3.2874    1.4215    1.0177 
 H                     3.2128   -0.1289    1.8068 
 H                     1.636     1.4624    2.8629 
 H                     1.2917    2.737     0.5523 
 H                     0.1462    2.7539    1.808 
 H                    -0.1797    1.1694   -0.7269 
 H                    -1.1543    2.482    -0.1364 
 H                    -2.2951    0.3082    0.2233 
 H                    -1.9598    1.0731    1.7579 
 H                    -0.2902   -1.1244    0.4406 
 H                    -1.3385   -1.3421    1.81 
 H                     1.1059   -1.1223    2.5167 
 H                     0.012    -0.0314    3.2257 
 

 GradGradGradGradGradGradGradGradGradGradGradGradGradGradGradGradGradGrad
 Berny optimization.
 Initialization pass.
                           ----------------------------
                           !    Initial Parameters    !
                           ! (Angstroms and Degrees)  !
 --------------------------                            --------------------------
 ! Name  Definition              Value          Derivative Info.                !
 --------------------------------------------------------------------------------
 ! R1    R(1,2)                  1.4528         estimate D2E/DX2                !
 ! R2    R(1,9)                  1.0103         estimate D2E/DX2                !
 ! R3    R(1,10)                 1.0103         estimate D2E/DX2                !
 ! R4    R(2,3)                  1.5512         estimate D2E/DX2                !
 ! R5    R(2,11)                 1.0921         estimate D2E/DX2                !
 ! R6    R(2,12)                 1.0921         estimate D2E/DX2                !
 ! R7    R(3,4)                  1.5624         estimate D2E/DX2                !
 ! R8    R(3,8)                  1.5623         estimate D2E/DX2                !
 ! R9    R(3,13)                 1.0921         estimate D2E/DX2                !
 ! R10   R(4,5)                  1.5418         estimate D2E/DX2                !
 ! R11   R(4,14)                 1.0914         estimate D2E/DX2                !
 ! R12   R(4,15)                 1.0916         estimate D2E/DX2                !
 ! R13   R(5,6)                  1.5317         estimate D2E/DX2                !
 ! R14   R(5,16)                 1.0907         estimate D2E/DX2                !
 ! R15   R(5,17)                 1.0912         estimate D2E/DX2                !
 ! R16   R(6,7)                  1.5316         estimate D2E/DX2                !
 ! R17   R(6,18)                 1.0912         estimate D2E/DX2                !
 ! R18   R(6,19)                 1.0915         estimate D2E/DX2                !
 ! R19   R(7,8)                  1.5419         estimate D2E/DX2                !
 ! R20   R(7,20)                 1.0907         estimate D2E/DX2                !
 ! R21   R(7,21)                 1.0913         estimate D2E/DX2                !
 ! R22   R(8,22)                 1.0914         estimate D2E/DX2                !
 ! R23   R(8,23)                 1.0916         estimate D2E/DX2                !
 ! A1    A(2,1,9)              108.3493         estimate D2E/DX2                !
 ! A2    A(2,1,10)             108.3437         estimate D2E/DX2                !
 ! A3    A(9,1,10)             105.2608         estimate D2E/DX2                !
 ! A4    A(1,2,3)              112.5619         estimate D2E/DX2                !
 ! A5    A(1,2,11)             109.0658         estimate D2E/DX2                !
 ! A6    A(1,2,12)             109.0639         estimate D2E/DX2                !
 ! A7    A(3,2,11)             110.0914         estimate D2E/DX2                !
 ! A8    A(3,2,12)             110.0927         estimate D2E/DX2                !
 ! A9    A(11,2,12)            105.7282         estimate D2E/DX2                !
 ! A10   A(2,3,4)              109.8165         estimate D2E/DX2                !
 ! A11   A(2,3,8)              109.8189         estimate D2E/DX2                !
 ! A12   A(2,3,13)             108.0523         estimate D2E/DX2                !
 ! A13   A(4,3,8)              114.4338         estimate D2E/DX2                !
 ! A14   A(4,3,13)             107.2366         estimate D2E/DX2                !
 ! A15   A(8,3,13)             107.2394         estimate D2E/DX2                !
 ! A16   A(3,4,5)              117.8349         estimate D2E/DX2                !
 ! A17   A(3,4,14)             111.8572         estimate D2E/DX2                !
 ! A18   A(3,4,15)             105.4606         estimate D2E/DX2                !
 ! A19   A(5,4,14)             112.6481         estimate D2E/DX2                !
 ! A20   A(5,4,15)             104.9668         estimate D2E/DX2                !
 ! A21   A(14,4,15)            102.2693         estimate D2E/DX2                !
 ! A22   A(4,5,6)              112.583          estimate D2E/DX2                !
 ! A23   A(4,5,16)             109.4957         estimate D2E/DX2                !
 ! A24   A(4,5,17)             109.7522         estimate D2E/DX2                !
 ! A25   A(6,5,16)             109.2656         estimate D2E/DX2                !
 ! A26   A(6,5,17)             109.8799         estimate D2E/DX2                !
 ! A27   A(16,5,17)            105.6261         estimate D2E/DX2                !
 ! A28   A(5,6,7)              110.1438         estimate D2E/DX2                !
 ! A29   A(5,6,18)             110.0114         estimate D2E/DX2                !
 ! A30   A(5,6,19)             110.1289         estimate D2E/DX2                !
 ! A31   A(7,6,18)             110.0156         estimate D2E/DX2                !
 ! A32   A(7,6,19)             110.1294         estimate D2E/DX2                !
 ! A33   A(18,6,19)            106.3449         estimate D2E/DX2                !
 ! A34   A(6,7,8)              112.585          estimate D2E/DX2                !
 ! A35   A(6,7,20)             109.2641         estimate D2E/DX2                !
 ! A36   A(6,7,21)             109.8783         estimate D2E/DX2                !
 ! A37   A(8,7,20)             109.4966         estimate D2E/DX2                !
 ! A38   A(8,7,21)             109.7527         estimate D2E/DX2                !
 ! A39   A(20,7,21)            105.6256         estimate D2E/DX2                !
 ! A40   A(3,8,7)              117.8341         estimate D2E/DX2                !
 ! A41   A(3,8,22)             111.855          estimate D2E/DX2                !
 ! A42   A(3,8,23)             105.4637         estimate D2E/DX2                !
 ! A43   A(7,8,22)             112.6515         estimate D2E/DX2                !
 ! A44   A(7,8,23)             104.9608         estimate D2E/DX2                !
 ! A45   A(22,8,23)            102.272          estimate D2E/DX2                !
 ! D1    D(9,1,2,3)            -56.8558         estimate D2E/DX2                !
 ! D2    D(9,1,2,11)          -179.3472         estimate D2E/DX2                !
 ! D3    D(9,1,2,12)            65.6359         estimate D2E/DX2                !
 ! D4    D(10,1,2,3)            56.8556         estimate D2E/DX2                !
 ! D5    D(10,1,2,11)          -65.6358         estimate D2E/DX2                !
 ! D6    D(10,1,2,12)          179.3474         estimate D2E/DX2                !
 ! D7    D(1,2,3,4)            -63.3365         estimate D2E/DX2                !
 ! D8    D(1,2,3,8)             63.335          estimate D2E/DX2                !
 ! D9    D(1,2,3,13)          -179.9984         estimate D2E/DX2                !
 ! D10   D(11,2,3,4)            58.5757         estimate D2E/DX2                !
 ! D11   D(11,2,3,8)          -174.7528         estimate D2E/DX2                !
 ! D12   D(11,2,3,13)          -58.0863         estimate D2E/DX2                !
 ! D13   D(12,2,3,4)           174.7528         estimate D2E/DX2                !
 ! D14   D(12,2,3,8)           -58.5757         estimate D2E/DX2                !
 ! D15   D(12,2,3,13)           58.0908         estimate D2E/DX2                !
 ! D16   D(2,3,4,5)             97.9368         estimate D2E/DX2                !
 ! D17   D(2,3,4,14)           -34.9838         estimate D2E/DX2                !
 ! D18   D(2,3,4,15)          -145.38           estimate D2E/DX2                !
 ! D19   D(8,3,4,5)            -26.0884         estimate D2E/DX2                !
 ! D20   D(8,3,4,14)          -159.0091         estimate D2E/DX2                !
 ! D21   D(8,3,4,15)            90.5948         estimate D2E/DX2                !
 ! D22   D(13,3,4,5)          -144.8902         estimate D2E/DX2                !
 ! D23   D(13,3,4,14)           82.1891         estimate D2E/DX2                !
 ! D24   D(13,3,4,15)          -28.207          estimate D2E/DX2                !
 ! D25   D(2,3,8,7)            -97.9367         estimate D2E/DX2                !
 ! D26   D(2,3,8,22)            34.9861         estimate D2E/DX2                !
 ! D27   D(2,3,8,23)           145.386          estimate D2E/DX2                !
 ! D28   D(4,3,8,7)             26.0873         estimate D2E/DX2                !
 ! D29   D(4,3,8,22)           159.0101         estimate D2E/DX2                !
 ! D30   D(4,3,8,23)           -90.59           estimate D2E/DX2                !
 ! D31   D(13,3,8,7)           144.8876         estimate D2E/DX2                !
 ! D32   D(13,3,8,22)          -82.1897         estimate D2E/DX2                !
 ! D33   D(13,3,8,23)           28.2102         estimate D2E/DX2                !
 ! D34   D(3,4,5,6)             42.9764         estimate D2E/DX2                !
 ! D35   D(3,4,5,16)           -78.7813         estimate D2E/DX2                !
 ! D36   D(3,4,5,17)           165.7048         estimate D2E/DX2                !
 ! D37   D(14,4,5,6)           175.5469         estimate D2E/DX2                !
 ! D38   D(14,4,5,16)           53.7893         estimate D2E/DX2                !
 ! D39   D(14,4,5,17)          -61.7247         estimate D2E/DX2                !
 ! D40   D(15,4,5,6)           -73.9725         estimate D2E/DX2                !
 ! D41   D(15,4,5,16)          164.2698         estimate D2E/DX2                !
 ! D42   D(15,4,5,17)           48.7559         estimate D2E/DX2                !
 ! D43   D(4,5,6,7)            -58.3515         estimate D2E/DX2                !
 ! D44   D(4,5,6,18)          -179.7908         estimate D2E/DX2                !
 ! D45   D(4,5,6,19)            63.307          estimate D2E/DX2                !
 ! D46   D(16,5,6,7)            63.5366         estimate D2E/DX2                !
 ! D47   D(16,5,6,18)          -57.9027         estimate D2E/DX2                !
 ! D48   D(16,5,6,19)         -174.8049         estimate D2E/DX2                !
 ! D49   D(17,5,6,7)           178.9918         estimate D2E/DX2                !
 ! D50   D(17,5,6,18)           57.5526         estimate D2E/DX2                !
 ! D51   D(17,5,6,19)          -59.3497         estimate D2E/DX2                !
 ! D52   D(5,6,7,8)             58.3519         estimate D2E/DX2                !
 ! D53   D(5,6,7,20)           -63.5377         estimate D2E/DX2                !
 ! D54   D(5,6,7,21)          -178.9905         estimate D2E/DX2                !
 ! D55   D(18,6,7,8)           179.7887         estimate D2E/DX2                !
 ! D56   D(18,6,7,20)           57.8991         estimate D2E/DX2                !
 ! D57   D(18,6,7,21)          -57.5537         estimate D2E/DX2                !
 ! D58   D(19,6,7,8)           -63.3063         estimate D2E/DX2                !
 ! D59   D(19,6,7,20)          174.8041         estimate D2E/DX2                !
 ! D60   D(19,6,7,21)           59.3513         estimate D2E/DX2                !
 ! D61   D(6,7,8,3)            -42.9778         estimate D2E/DX2                !
 ! D62   D(6,7,8,22)          -175.5479         estimate D2E/DX2                !
 ! D63   D(6,7,8,23)            73.9701         estimate D2E/DX2                !
 ! D64   D(20,7,8,3)            78.78           estimate D2E/DX2                !
 ! D65   D(20,7,8,22)          -53.7901         estimate D2E/DX2                !
 ! D66   D(20,7,8,23)         -164.2721         estimate D2E/DX2                !
 ! D67   D(21,7,8,3)          -165.7059         estimate D2E/DX2                !
 ! D68   D(21,7,8,22)           61.724          estimate D2E/DX2                !
 ! D69   D(21,7,8,23)          -48.758          estimate D2E/DX2                !
 --------------------------------------------------------------------------------
 Trust Radius=3.00D-01 FncErr=1.00D-07 GrdErr=1.00D-06 EigMax=2.50D+02 EigMin=1.00D-04
 Number of steps in this run=    138 maximum allowed number of steps=    138.
 GradGradGradGradGradGradGradGradGradGradGradGradGradGradGradGradGradGrad

                          Input orientation:                          
 ---------------------------------------------------------------------
 Center     Atomic      Atomic             Coordinates (Angstroms)
 Number     Number       Type             X           Y           Z
 ---------------------------------------------------------------------
      1          7           0        2.364000   -0.078200   -0.095000
      2          6           0        2.638700    0.558400    1.181700
      3          6           0        1.345900    0.995900    1.919000
      4          6           0        0.597300    2.079200    1.078000
      5          6           0       -0.572800    1.617000    0.186700
      6          6           0       -1.486100    0.609000    0.890900
      7          6           0       -0.680500   -0.619200    1.324900
      8          6           0        0.484700   -0.259900    2.268600
      9          1           0        1.755100   -0.867800    0.067800
     10          1           0        1.823900    0.562100   -0.659900
     11          1           0        3.287400    1.421500    1.017700
     12          1           0        3.212800   -0.128900    1.806800
     13          1           0        1.636000    1.462400    2.862900
     14          1           0        1.291700    2.737000    0.552300
     15          1           0        0.146200    2.753900    1.808000
     16          1           0       -0.179700    1.169400   -0.726900
     17          1           0       -1.154300    2.482000   -0.136400
     18          1           0       -2.295100    0.308200    0.223300
     19          1           0       -1.959800    1.073100    1.757900
     20          1           0       -0.290200   -1.124400    0.440600
     21          1           0       -1.338500   -1.342100    1.810000
     22          1           0        1.105900   -1.122300    2.516700
     23          1           0        0.012000   -0.031400    3.225700
 ---------------------------------------------------------------------
                    Distance matrix (angstroms):
                    1          2          3          4          5
     1  N    0.000000
     2  C    1.452819   0.000000
     3  C    2.499283   1.551241   0.000000
     4  C    3.025150   2.547725   1.562441   0.000000
     5  C    3.402624   3.524825   2.658578   1.541810   0.000000
     6  C    4.033300   4.135348   3.037582   2.556766   1.531691
     7  C    3.402613   3.524817   2.658533   2.995846   2.511511
     8  C    3.025126   2.547682   1.562344   2.627089   2.995892
     9  H    1.010312   2.013844   2.658527   3.323524   3.406976
    10  H    1.010349   2.013803   2.658457   2.612745   2.752039
    11  H    2.083235   1.092085   2.182407   2.769990   3.953470
    12  H    2.083237   1.092118   2.182448   3.499671   4.472545
    13  H    3.413591   2.156167   1.092121   2.155274   3.473434
    14  H    3.081262   2.637584   2.214099   1.091445   2.205544
    15  H    4.069501   3.380093   2.131236   1.091609   2.106684
    16  H    2.902794   3.458244   3.059141   2.165440   1.090660
    17  H    4.351410   4.452468   3.561483   2.169128   1.091220
    18  H    4.685919   5.032247   4.074949   3.497561   2.163473
    19  H    4.842931   4.662952   3.310523   2.830771   2.165240
    20  H    2.902788   3.458251   3.059111   3.384817   2.767599
    21  H    4.351434   4.452503   3.561478   3.998555   3.460877
    22  H    3.081223   2.637509   2.213959   3.546566   3.968715
    23  H    4.069538   3.380141   2.131220   3.067544   3.506385
                    6          7          8          9         10
     6  C    0.000000
     7  C    1.531608   0.000000
     8  C    2.556775   1.541868   0.000000
     9  H    3.655654   2.752135   2.612849   0.000000
    10  H    3.655582   3.406893   3.323440   1.605894   0.000000
    11  H    4.843814   4.472478   3.499569   2.913957   2.386366
    12  H    4.843865   3.953531   2.770009   2.386416   2.913955
    13  H    3.790064   3.473424   2.155227   3.640962   3.640874
    14  H    3.515566   3.968698   3.546596   3.666615   2.546145
    15  H    2.847116   3.506369   3.067528   4.328229   3.702593
    16  H    2.153603   2.767630   3.384870   2.919792   2.094687
    17  H    2.161843   3.460827   3.998545   4.441561   3.581863
    18  H    1.091170   2.163452   3.497610   4.220341   4.220269
    19  H    1.091545   2.165174   2.830774   4.519293   4.519210
    20  H    2.153514   1.090664   2.165506   2.094773   2.919726
    21  H    2.161787   1.091270   2.169223   3.581980   4.441526
    22  H    3.515550   2.205611   1.091410   2.546241   3.666540
    23  H    2.847052   2.106681   1.091649   3.702742   4.328176
                   11         12         13         14         15
    11  H    0.000000
    12  H    1.741259   0.000000
    13  H    2.476602   2.476667   0.000000
    14  H    2.435150   3.671209   2.661206   0.000000
    15  H    3.502428   4.208868   2.236133   1.699776   0.000000
    16  H    3.889469   4.428801   4.033519   2.501747   3.007086
    17  H    4.710128   5.446502   4.221511   2.553869   2.354978
    18  H    5.747592   5.747651   4.873727   4.344243   3.801667
    19  H    5.310592   5.310648   3.781846   3.846334   2.694965
    20  H    4.428755   3.889541   4.033524   4.174362   4.135389
    21  H    5.446483   4.710223   4.221548   5.013863   4.356783
    22  H    3.671085   2.435124   2.661115   4.334465   4.055639
    23  H    4.208851   3.502557   2.236166   4.055704   3.128223
                   16         17         18         19         20
    16  H    0.000000
    17  H    1.738233   0.000000
    18  H    2.473755   2.481172   0.000000
    19  H    3.058147   2.494434   1.747139   0.000000
    20  H    2.576196   3.753095   2.473699   3.058079   0.000000
    21  H    3.753173   4.294897   2.481167   2.494378   1.738270
    22  H    4.174398   5.013823   4.344285   3.846307   2.501857
    23  H    4.135422   4.356736   3.801637   2.694875   3.007118
                   21         22         23
    21  H    0.000000
    22  H    2.553983   0.000000
    23  H    2.354993   1.699812   0.000000
 Stoichiometry    C7H15N
 Framework group  C1[X(C7H15N)]
 Deg. of freedom    63
 Full point group                 C1      NOp   1
 Largest Abelian subgroup         C1      NOp   1
 Largest concise Abelian subgroup C1      NOp   1
                         Standard orientation:                         
 ---------------------------------------------------------------------
 Center     Atomic      Atomic             Coordinates (Angstroms)
 Number     Number       Type             X           Y           Z
 ---------------------------------------------------------------------
      1          7           0       -1.817388    0.000029    1.302814
      2          6           0       -2.050693    0.000009   -0.131150
      3          6           0       -0.732346   -0.000046   -0.948652
      4          6           0        0.065474    1.313539   -0.667226
      5          6           0        1.204447    1.255774    0.370359
      6          6           0        2.069276   -0.000038    0.225154
      7          6           0        1.204438   -1.255738    0.370403
      8          6           0        0.065409   -1.313550   -0.667204
      9          1           0       -1.248841   -0.802904    1.532561
     10          1           0       -1.248768    0.802990    1.532443
     11          1           0       -2.655216    0.870636   -0.394230
     12          1           0       -2.655292   -0.870624   -0.394170
     13          1           0       -0.991938   -0.000030   -2.009472
     14          1           0       -0.597593    2.167257   -0.516362
     15          1           0        0.555399    1.564085   -1.609994
     16          1           0        0.782926    1.288153    1.375750
     17          1           0        1.827535    2.147439    0.284020
     18          1           0        2.857386    0.000005    0.979829
     19          1           0        2.571835   -0.000064   -0.743817
     20          1           0        0.782943   -1.288043    1.375811
     21          1           0        1.827544   -2.147458    0.284116
     22          1           0       -0.597679   -2.167208   -0.516342
     23          1           0        0.555443   -1.564138   -1.609950
 ---------------------------------------------------------------------
 Rotational constants (GHZ):           2.8265253           1.6750263           1.4813646
 Standard basis: 6-31G(d,p) (6D, 7F)
 There are   195 symmetry adapted cartesian basis functions of A   symmetry.
 There are   195 symmetry adapted basis functions of A   symmetry.
   195 basis functions,   329 primitive gaussians,   195 cartesian basis functions
    32 alpha electrons       32 beta electrons
       nuclear repulsion energy       415.5882643496 Hartrees.
 NAtoms=   23 NActive=   23 NUniq=   23 SFac= 1.00D+00 NAtFMM=   60 NAOKFM=F Big=F
 Integral buffers will be    131072 words long.
 Raffenetti 2 integral format.
 Two-electron integral symmetry is turned on.
 Nuclear repulsion after empirical dispersion term =      415.5501984904 Hartrees.
 One-electron integrals computed using PRISM.
 NBasis=   195 RedAO= T EigKep=  3.66D-03  NBF=   195
 NBsUse=   195 1.00D-06 EigRej= -1.00D+00 NBFU=   195
 ExpMin= 1.61D-01 ExpMax= 4.17D+03 ExpMxC= 6.27D+02 IAcc=3 IRadAn=         5 AccDes= 0.00D+00
 Harris functional with IExCor=  402 and IRadAn=       5 diagonalized for initial guess.
 HarFok:  IExCor=  402 AccDes= 0.00D+00 IRadAn=         5 IDoV= 1 UseB2=F ITyADJ=14
 ICtDFT=  3500011 ScaDFX=  1.000000  1.000000  1.000000  1.000000
 FoFCou: FMM=F IPFlag=           0 FMFlag=      100000 FMFlg1=           0
         NFxFlg=           0 DoJE=T BraDBF=F KetDBF=T FulRan=T
         wScrn=  0.000000 ICntrl=       500 IOpCl=  0 I1Cent=   200000004 NGrid=           0
         NMat0=    1 NMatS0=      1 NMatT0=    0 NMatD0=    1 NMtDS0=    0 NMtDT0=    0
 Petite list used in FoFCou.
 Requested convergence on RMS density matrix=1.00D-08 within 128 cycles.
 Requested convergence on MAX density matrix=1.00D-06.
 Requested convergence on             energy=1.00D-06.
 No special actions if energy rises.
 Integral accuracy reduced to 1.0D-05 until final iterations.
 Initial convergence to 1.0D-05 achieved.  Increase integral accuracy.
 SCF Done:  E(RB3LYP) =  -330.580524604     A.U. after   12 cycles
            NFock= 12  Conv=0.44D-08     -V/T= 2.0097

 **********************************************************************

            Population analysis using the SCF Density.

 **********************************************************************

 Orbital symmetries:
       Occupied  (A) (A) (A) (A) (A) (A) (A) (A) (A) (A) (A) (A)
                 (A) (A) (A) (A) (A) (A) (A) (A) (A) (A) (A) (A)
                 (A) (A) (A) (A) (A) (A) (A) (A)
       Virtual   (A) (A) (A) (A) (A) (A) (A) (A) (A) (A) (A) (A)
                 (A) (A) (A) (A) (A) (A) (A) (A) (A) (A) (A) (A)
                 (A) (A) (A) (A) (A) (A) (A) (A) (A) (A) (A) (A)
                 (A) (A) (A) (A) (A) (A) (A) (A) (A) (A) (A) (A)
                 (A) (A) (A) (A) (A) (A) (A) (A) (A) (A) (A) (A)
                 (A) (A) (A) (A) (A) (A) (A) (A) (A) (A) (A) (A)
                 (A) (A) (A) (A) (A) (A) (A) (A) (A) (A) (A) (A)
                 (A) (A) (A) (A) (A) (A) (A) (A) (A) (A) (A) (A)
                 (A) (A) (A) (A) (A) (A) (A) (A) (A) (A) (A) (A)
                 (A) (A) (A) (A) (A) (A) (A) (A) (A) (A) (A) (A)
                 (A) (A) (A) (A) (A) (A) (A) (A) (A) (A) (A) (A)
                 (A) (A) (A) (A) (A) (A) (A) (A) (A) (A) (A) (A)
                 (A) (A) (A) (A) (A) (A) (A) (A) (A) (A) (A) (A)
                 (A) (A) (A) (A) (A) (A) (A)
 The electronic state is 1-A.
 Alpha  occ. eigenvalues --  -14.30082 -10.19350 -10.18296 -10.18077 -10.18075
 Alpha  occ. eigenvalues --  -10.17992 -10.17885 -10.17884  -0.88120  -0.81782
 Alpha  occ. eigenvalues --   -0.74617  -0.74092  -0.65408  -0.61339  -0.58913
 Alpha  occ. eigenvalues --   -0.53364  -0.49071  -0.47496  -0.45611  -0.42773
 Alpha  occ. eigenvalues --   -0.42410  -0.41415  -0.39433  -0.37603  -0.35862
 Alpha  occ. eigenvalues --   -0.34972  -0.34692  -0.32832  -0.31315  -0.30207
 Alpha  occ. eigenvalues --   -0.29614  -0.22147
 Alpha virt. eigenvalues --    0.06881   0.09412   0.11064   0.12236   0.12658
 Alpha virt. eigenvalues --    0.14308   0.15391   0.16447   0.16879   0.17356
 Alpha virt. eigenvalues --    0.17452   0.19670   0.20386   0.21333   0.22058
 Alpha virt. eigenvalues --    0.23549   0.24559   0.25027   0.26627   0.27736
 Alpha virt. eigenvalues --    0.28152   0.31670   0.33016   0.51247   0.52027
 Alpha virt. eigenvalues --    0.52659   0.54399   0.55114   0.56199   0.57129
 Alpha virt. eigenvalues --    0.60041   0.62550   0.63694   0.65131   0.70040
 Alpha virt. eigenvalues --    0.70046   0.71794   0.71956   0.73258   0.75459
 Alpha virt. eigenvalues --    0.77191   0.78569   0.81327   0.82914   0.83861
 Alpha virt. eigenvalues --    0.84599   0.85487   0.86307   0.87611   0.88512
 Alpha virt. eigenvalues --    0.92351   0.92432   0.93952   0.94424   0.94708
 Alpha virt. eigenvalues --    0.95543   0.96378   0.99525   1.00683   1.06044
 Alpha virt. eigenvalues --    1.06841   1.11538   1.15248   1.16025   1.28503
 Alpha virt. eigenvalues --    1.30505   1.33438   1.39631   1.42002   1.47313
 Alpha virt. eigenvalues --    1.50699   1.53254   1.59927   1.61410   1.63445
 Alpha virt. eigenvalues --    1.69676   1.70930   1.71180   1.74123   1.76866
 Alpha virt. eigenvalues --    1.81196   1.81322   1.83434   1.84224   1.86040
 Alpha virt. eigenvalues --    1.89544   1.91246   1.94016   1.95316   1.98027
 Alpha virt. eigenvalues --    2.03634   2.05740   2.07373   2.11118   2.12842
 Alpha virt. eigenvalues --    2.14032   2.14776   2.16325   2.17701   2.19835
 Alpha virt. eigenvalues --    2.23436   2.24850   2.26273   2.26945   2.29159
 Alpha virt. eigenvalues --    2.29747   2.31854   2.33742   2.34259   2.36826
 Alpha virt. eigenvalues --    2.38770   2.40281   2.41821   2.44872   2.46884
 Alpha virt. eigenvalues --    2.49260   2.49917   2.53643   2.56838   2.59140
 Alpha virt. eigenvalues --    2.61791   2.65489   2.66581   2.68922   2.72498
 Alpha virt. eigenvalues --    2.74566   2.78621   2.80496   2.81963   2.84990
 Alpha virt. eigenvalues --    2.85810   2.86679   2.89066   2.91407   2.91489
 Alpha virt. eigenvalues --    2.92032   2.94430   2.94861   2.97966   3.00582
 Alpha virt. eigenvalues --    3.24128   3.29038   3.30646   3.32844   3.35506
 Alpha virt. eigenvalues --    3.36930   3.38180   3.41142   3.43360   3.48028
 Alpha virt. eigenvalues --    3.48448   3.52512   3.54124   3.59547   3.62893
 Alpha virt. eigenvalues --    4.00359   4.26368   4.44652   4.46611   4.61344
 Alpha virt. eigenvalues --    4.72600   4.74232   4.77198
          Condensed to atoms (all electrons):
               1          2          3          4          5          6
     1  N    6.706361   0.340889  -0.079978  -0.003620  -0.002047  -0.000547
     2  C    0.340889   4.817680   0.366343  -0.045172  -0.001006   0.000055
     3  C   -0.079978   0.366343   5.002161   0.365001  -0.033197  -0.014445
     4  C   -0.003620  -0.045172   0.365001   4.965841   0.373632  -0.040841
     5  C   -0.002047  -0.001006  -0.033197   0.373632   4.912108   0.381698
     6  C   -0.000547   0.000055  -0.014445  -0.040841   0.381698   4.897058
     7  C   -0.002047  -0.001007  -0.033200  -0.014392  -0.046263   0.381709
     8  C   -0.003618  -0.045175   0.365010  -0.042885  -0.014391  -0.040839
     9  H    0.354893  -0.047862  -0.005415  -0.000835   0.000443  -0.000467
    10  H    0.354888  -0.047869  -0.005416   0.007807  -0.000817  -0.000467
    11  H   -0.039269   0.381733  -0.046794  -0.007507   0.000021  -0.000007
    12  H   -0.039272   0.381726  -0.046791   0.005561  -0.000130  -0.000007
    13  H    0.006060  -0.032461   0.362265  -0.041407   0.004543   0.000179
    14  H   -0.000426  -0.007966  -0.038233   0.377659  -0.031649   0.004398
    15  H    0.000280   0.005075  -0.033953   0.371193  -0.041501  -0.005156
    16  H    0.001198   0.000986  -0.001754  -0.049179   0.377608  -0.040891
    17  H    0.000141  -0.000055   0.003833  -0.031088   0.375279  -0.033484
    18  H    0.000001  -0.000018   0.000374   0.004506  -0.031315   0.376843
    19  H   -0.000036   0.000076  -0.000870  -0.004324  -0.041497   0.382450
    20  H    0.001198   0.000986  -0.001754  -0.000092  -0.006946  -0.040897
    21  H    0.000141  -0.000055   0.003833   0.000233   0.005131  -0.033491
    22  H   -0.000426  -0.007969  -0.038242   0.003990   0.000207   0.004397
    23  H    0.000279   0.005076  -0.033953   0.000700  -0.000375  -0.005156
               7          8          9         10         11         12
     1  N   -0.002047  -0.003618   0.354893   0.354888  -0.039269  -0.039272
     2  C   -0.001007  -0.045175  -0.047862  -0.047869   0.381733   0.381726
     3  C   -0.033200   0.365010  -0.005415  -0.005416  -0.046794  -0.046791
     4  C   -0.014392  -0.042885  -0.000835   0.007807  -0.007507   0.005561
     5  C   -0.046263  -0.014391   0.000443  -0.000817   0.000021  -0.000130
     6  C    0.381709  -0.040839  -0.000467  -0.000467  -0.000007  -0.000007
     7  C    4.912109   0.373628  -0.000816   0.000443  -0.000130   0.000021
     8  C    0.373628   4.965821   0.007806  -0.000836   0.005562  -0.007508
     9  H   -0.000816   0.007806   0.486015  -0.042368   0.007061  -0.006359
    10  H    0.000443  -0.000836  -0.042368   0.486032  -0.006360   0.007062
    11  H   -0.000130   0.005562   0.007061  -0.006360   0.645853  -0.037487
    12  H    0.000021  -0.007508  -0.006359   0.007062  -0.037487   0.645869
    13  H    0.004543  -0.041410   0.000082   0.000082  -0.000622  -0.000622
    14  H    0.000207   0.003989   0.000118   0.000942   0.005463   0.000228
    15  H   -0.000375   0.000700  -0.000016  -0.000112   0.000161  -0.000248
    16  H   -0.006945  -0.000092   0.000612   0.006773   0.000090  -0.000034
    17  H    0.005130   0.000233   0.000003   0.000005  -0.000002   0.000005
    18  H   -0.031314   0.004506  -0.000001  -0.000001  -0.000000  -0.000000
    19  H   -0.041503  -0.004325   0.000015   0.000015  -0.000002  -0.000002
    20  H    0.377604  -0.049174   0.006773   0.000612  -0.000034   0.000090
    21  H    0.375275  -0.031084   0.000005   0.000003   0.000005  -0.000002
    22  H   -0.031642   0.377664   0.000942   0.000118   0.000228   0.005465
    23  H   -0.041505   0.371189  -0.000112  -0.000016  -0.000248   0.000161
              13         14         15         16         17         18
     1  N    0.006060  -0.000426   0.000280   0.001198   0.000141   0.000001
     2  C   -0.032461  -0.007966   0.005075   0.000986  -0.000055  -0.000018
     3  C    0.362265  -0.038233  -0.033953  -0.001754   0.003833   0.000374
     4  C   -0.041407   0.377659   0.371193  -0.049179  -0.031088   0.004506
     5  C    0.004543  -0.031649  -0.041501   0.377608   0.375279  -0.031315
     6  C    0.000179   0.004398  -0.005156  -0.040891  -0.033484   0.376843
     7  C    0.004543   0.000207  -0.000375  -0.006945   0.005130  -0.031314
     8  C   -0.041410   0.003989   0.000700  -0.000092   0.000233   0.004506
     9  H    0.000082   0.000118  -0.000016   0.000612   0.000003  -0.000001
    10  H    0.000082   0.000942  -0.000112   0.006773   0.000005  -0.000001
    11  H   -0.000622   0.005463   0.000161   0.000090  -0.000002  -0.000000
    12  H   -0.000622   0.000228  -0.000248  -0.000034   0.000005  -0.000000
    13  H    0.677838   0.001891  -0.011129  -0.000110  -0.000118   0.000010
    14  H    0.001891   0.641016  -0.040984  -0.006097  -0.000805  -0.000166
    15  H   -0.011129  -0.040984   0.659765   0.007476  -0.008475  -0.000047
    16  H   -0.000110  -0.006097   0.007476   0.659688  -0.037563  -0.004913
    17  H   -0.000118  -0.000805  -0.008475  -0.037563   0.643493  -0.002916
    18  H    0.000010  -0.000166  -0.000047  -0.004913  -0.002916   0.640062
    19  H   -0.000285  -0.000090   0.005038   0.006329  -0.004751  -0.038666
    20  H   -0.000110  -0.000058   0.000129   0.006021   0.000037  -0.004915
    21  H   -0.000118   0.000012  -0.000016   0.000037  -0.000192  -0.002916
    22  H    0.001892  -0.000102  -0.000175  -0.000058   0.000012  -0.000166
    23  H   -0.011131  -0.000174   0.001072   0.000129  -0.000016  -0.000047
              19         20         21         22         23
     1  N   -0.000036   0.001198   0.000141  -0.000426   0.000279
     2  C    0.000076   0.000986  -0.000055  -0.007969   0.005076
     3  C   -0.000870  -0.001754   0.003833  -0.038242  -0.033953
     4  C   -0.004324  -0.000092   0.000233   0.003990   0.000700
     5  C   -0.041497  -0.006946   0.005131   0.000207  -0.000375
     6  C    0.382450  -0.040897  -0.033491   0.004397  -0.005156
     7  C   -0.041503   0.377604   0.375275  -0.031642  -0.041505
     8  C   -0.004325  -0.049174  -0.031084   0.377664   0.371189
     9  H    0.000015   0.006773   0.000005   0.000942  -0.000112
    10  H    0.000015   0.000612   0.000003   0.000118  -0.000016
    11  H   -0.000002  -0.000034   0.000005   0.000228  -0.000248
    12  H   -0.000002   0.000090  -0.000002   0.005465   0.000161
    13  H   -0.000285  -0.000110  -0.000118   0.001892  -0.011131
    14  H   -0.000090  -0.000058   0.000012  -0.000102  -0.000174
    15  H    0.005038   0.000129  -0.000016  -0.000175   0.001072
    16  H    0.006329   0.006021   0.000037  -0.000058   0.000129
    17  H   -0.004751   0.000037  -0.000192   0.000012  -0.000016
    18  H   -0.038666  -0.004915  -0.002916  -0.000166  -0.000047
    19  H    0.644290   0.006330  -0.004753  -0.000090   0.005039
    20  H    0.006330   0.659692  -0.037561  -0.006095   0.007475
    21  H   -0.004753  -0.037561   0.643509  -0.000805  -0.008474
    22  H   -0.000090  -0.006095  -0.000805   0.640997  -0.040979
    23  H    0.005039   0.007475  -0.008474  -0.040979   0.659776
 Mulliken charges:
               1
     1  N   -0.595043
     2  C   -0.064010
     3  C   -0.054825
     4  C   -0.194782
     5  C   -0.179534
     6  C   -0.172093
     7  C   -0.179531
     8  C   -0.194770
     9  H    0.239484
    10  H    0.239478
    11  H    0.092286
    12  H    0.092276
    13  H    0.080137
    14  H    0.090829
    15  H    0.091297
    16  H    0.080691
    17  H    0.091293
    18  H    0.091099
    19  H    0.091612
    20  H    0.080689
    21  H    0.091285
    22  H    0.090839
    23  H    0.091290
 Sum of Mulliken charges =  -0.00000
 Mulliken charges with hydrogens summed into heavy atoms:
               1
     1  N   -0.116080
     2  C    0.120552
     3  C    0.025312
     4  C   -0.012655
     5  C   -0.007550
     6  C    0.010618
     7  C   -0.007557
     8  C   -0.012640
 Electronic spatial extent (au):  <R**2>=           1016.3466
 Charge=             -0.0000 electrons
 Dipole moment (field-independent basis, Debye):
    X=              1.5760    Y=             -0.0000    Z=             -0.8647  Tot=              1.7976
 Quadrupole moment (field-independent basis, Debye-Ang):
   XX=            -56.9397   YY=            -50.4938   ZZ=            -53.4906
   XY=              0.0004   XZ=              4.0122   YZ=             -0.0003
 Traceless Quadrupole moment (field-independent basis, Debye-Ang):
   XX=             -3.2983   YY=              3.1475   ZZ=              0.1507
   XY=              0.0004   XZ=              4.0122   YZ=             -0.0003
 Octapole moment (field-independent basis, Debye-Ang**2):
  XXX=             12.7777  YYY=              0.0012  ZZZ=             -0.8786  XYY=             -3.2014
  XXY=             -0.0007  XXZ=            -11.8109  XZZ=              6.6945  YZZ=             -0.0004
  YYZ=              2.2833  XYZ=              0.0008
 Hexadecapole moment (field-independent basis, Debye-Ang**3):
 XXXX=           -756.2897 YYYY=           -386.7440 ZZZZ=           -268.5193 XXXY=              0.0022
 XXXZ=             32.0781 YYYX=              0.0015 YYYZ=             -0.0001 ZZZX=              9.5787
 ZZZY=             -0.0019 XXYY=           -178.4628 XXZZ=           -185.7384 YYZZ=           -108.3701
 XXYZ=             -0.0016 YYXZ=             -3.4578 ZZXY=              0.0015
 N-N= 4.155501984904D+02 E-N=-1.595980773845D+03  KE= 3.274190064295D+02
 Calling FoFJK, ICntrl=      2127 FMM=F ISym2X=0 I1Cent= 0 IOpClX= 0 NMat=1 NMatS=1 NMatT=0.
 ***** Axes restored to original set *****
 -------------------------------------------------------------------
 Center     Atomic                   Forces (Hartrees/Bohr)
 Number     Number              X              Y              Z
 -------------------------------------------------------------------
      1        7           0.009696817   -0.003022601   -0.005095785
      2        6          -0.009351631    0.003814357    0.006660780
      3        6           0.008900814   -0.009210699   -0.017325916
      4        6          -0.014984331    0.002758798    0.019656703
      5        6           0.006272325   -0.000973291   -0.000333554
      6        6           0.008561913   -0.001850228   -0.002900173
      7        6           0.006323199   -0.000231713   -0.000715451
      8        6          -0.014439003    0.015389163    0.013232697
      9        1          -0.001411941   -0.005941275   -0.001001756
     10        1          -0.000975786    0.002753196   -0.005429019
     11        1           0.000887219    0.003421269   -0.001820942
     12        1           0.000540570   -0.003525914    0.001715019
     13        1           0.001863706    0.001045411    0.002230797
     14        1           0.004643459   -0.004350607   -0.005978327
     15        1          -0.003392358    0.003036210    0.004184019
     16        1          -0.000739366   -0.004202395   -0.004355306
     17        1          -0.000199469    0.003879974   -0.000079391
     18        1          -0.001995776   -0.000948271   -0.002044171
     19        1          -0.000442232    0.002262359    0.004398268
     20        1          -0.000581979   -0.000999829   -0.005981288
     21        1          -0.000474423   -0.002302108    0.003065041
     22        1           0.004729950   -0.002653799   -0.006847761
     23        1          -0.003431676    0.001851995    0.004765515
 -------------------------------------------------------------------
 Cartesian Forces:  Max     0.019656703 RMS     0.006172419

 GradGradGradGradGradGradGradGradGradGradGradGradGradGradGradGradGradGrad
 Berny optimization.
 FormGI is forming the generalized inverse of G from B-inverse, IUseBI=4.
 Internal  Forces:  Max     0.023071618 RMS     0.003544350
 Search for a local minimum.
 Step number   1 out of a maximum of  138
 All quantities printed in internal units (Hartrees-Bohrs-Radians)
 Mixed Optimization -- RFO/linear search
 Second derivative matrix not updated -- first step.
 ITU=  0
     Eigenvalues ---    0.00230   0.00279   0.00357   0.00591   0.00993
     Eigenvalues ---    0.01613   0.01848   0.02905   0.03228   0.03666
     Eigenvalues ---    0.04091   0.04099   0.04515   0.04704   0.04757
     Eigenvalues ---    0.04802   0.04916   0.05198   0.05230   0.05348
     Eigenvalues ---    0.05719   0.06620   0.07936   0.08324   0.08327
     Eigenvalues ---    0.08510   0.09051   0.09505   0.09544   0.10143
     Eigenvalues ---    0.12158   0.12695   0.12905   0.15260   0.15985
     Eigenvalues ---    0.16000   0.16000   0.18074   0.20337   0.21901
     Eigenvalues ---    0.25853   0.26298   0.27428   0.27546   0.28353
     Eigenvalues ---    0.28436   0.28649   0.34569   0.34569   0.34573
     Eigenvalues ---    0.34623   0.34627   0.34635   0.34646   0.34650
     Eigenvalues ---    0.34666   0.34672   0.34678   0.34736   0.34737
     Eigenvalues ---    0.37878   0.45914   0.45920
 RFO step:  Lambda=-1.25339821D-02 EMin= 2.30000000D-03
 Linear search not attempted -- first point.
 Iteration  1 RMS(Cart)=  0.06586793 RMS(Int)=  0.00258346
 Iteration  2 RMS(Cart)=  0.00296308 RMS(Int)=  0.00074730
 Iteration  3 RMS(Cart)=  0.00000793 RMS(Int)=  0.00074725
 Iteration  4 RMS(Cart)=  0.00000000 RMS(Int)=  0.00074725
 Variable       Old X    -DE/DX   Delta X   Delta X   Delta X     New X
                                 (Linear)    (Quad)   (Total)
    R1        2.74543   0.01148   0.00000   0.02934   0.02934   2.77477
    R2        1.90921   0.00534   0.00000   0.01131   0.01131   1.92053
    R3        1.90928   0.00530   0.00000   0.01125   0.01125   1.92053
    R4        2.93142   0.00256   0.00000   0.00891   0.00891   2.94033
    R5        2.06374   0.00350   0.00000   0.00978   0.00978   2.07352
    R6        2.06380   0.00348   0.00000   0.00972   0.00972   2.07353
    R7        2.95259  -0.00353   0.00000  -0.01575  -0.01568   2.93690
    R8        2.95240  -0.00349   0.00000  -0.01562  -0.01554   2.93686
    R9        2.06381   0.00287   0.00000   0.00801   0.00801   2.07182
   R10        2.91360  -0.00304   0.00000  -0.01013  -0.01013   2.90347
   R11        2.06253   0.00321   0.00000   0.00895   0.00895   2.07148
   R12        2.06284   0.00608   0.00000   0.01693   0.01693   2.07978
   R13        2.89448  -0.00266   0.00000  -0.00596  -0.00603   2.88844
   R14        2.06105   0.00510   0.00000   0.01418   0.01418   2.07523
   R15        2.06211   0.00321   0.00000   0.00892   0.00892   2.07103
   R16        2.89432  -0.00262   0.00000  -0.00584  -0.00591   2.88841
   R17        2.06201   0.00299   0.00000   0.00832   0.00832   2.07033
   R18        2.06272   0.00465   0.00000   0.01296   0.01296   2.07568
   R19        2.91371  -0.00306   0.00000  -0.01022  -0.01022   2.90348
   R20        2.06106   0.00510   0.00000   0.01417   0.01417   2.07523
   R21        2.06220   0.00317   0.00000   0.00884   0.00884   2.07104
   R22        2.06247   0.00323   0.00000   0.00901   0.00901   2.07147
   R23        2.06292   0.00605   0.00000   0.01687   0.01687   2.07978
    A1        1.89105   0.00387   0.00000   0.03119   0.03056   1.92161
    A2        1.89095   0.00389   0.00000   0.03129   0.03066   1.92161
    A3        1.83715  -0.00070   0.00000   0.01613   0.01482   1.85197
    A4        1.96458   0.02307   0.00000   0.10404   0.10423   2.06880
    A5        1.90356  -0.00769   0.00000  -0.03040  -0.03054   1.87302
    A6        1.90352  -0.00769   0.00000  -0.03036  -0.03050   1.87302
    A7        1.92146  -0.00655   0.00000  -0.02628  -0.02633   1.89513
    A8        1.92148  -0.00655   0.00000  -0.02631  -0.02636   1.89512
    A9        1.84531   0.00413   0.00000   0.00256   0.00147   1.84677
   A10        1.91666   0.00333   0.00000   0.04585   0.04548   1.96214
   A11        1.91670   0.00332   0.00000   0.04583   0.04546   1.96216
   A12        1.88587  -0.00284   0.00000  -0.03093  -0.02997   1.85589
   A13        1.99725  -0.00290   0.00000  -0.01527  -0.01813   1.97911
   A14        1.87163  -0.00062   0.00000  -0.02560  -0.02569   1.84594
   A15        1.87168  -0.00061   0.00000  -0.02560  -0.02569   1.84599
   A16        2.05661   0.00185   0.00000  -0.01376  -0.01647   2.04014
   A17        1.95228  -0.00303   0.00000  -0.04318  -0.04581   1.90647
   A18        1.84064   0.00126   0.00000   0.04045   0.04069   1.88132
   A19        1.96608  -0.00226   0.00000  -0.03994  -0.04268   1.92339
   A20        1.83202   0.00057   0.00000   0.03797   0.03816   1.87018
   A21        1.78494   0.00243   0.00000   0.04360   0.04496   1.82990
   A22        1.96494  -0.00307   0.00000  -0.01780  -0.01831   1.94664
   A23        1.91106   0.00374   0.00000   0.02926   0.02934   1.94040
   A24        1.91554  -0.00126   0.00000  -0.01481  -0.01461   1.90092
   A25        1.90704  -0.00135   0.00000  -0.01356  -0.01328   1.89377
   A26        1.91777   0.00235   0.00000   0.01215   0.01212   1.92989
   A27        1.84352  -0.00020   0.00000   0.00648   0.00649   1.85001
   A28        1.92237   0.00209   0.00000   0.00628   0.00575   1.92812
   A29        1.92006  -0.00047   0.00000   0.00138   0.00156   1.92162
   A30        1.92211  -0.00105   0.00000  -0.00839  -0.00827   1.91384
   A31        1.92013  -0.00048   0.00000   0.00133   0.00152   1.92165
   A32        1.92212  -0.00105   0.00000  -0.00836  -0.00825   1.91388
   A33        1.85607   0.00089   0.00000   0.00767   0.00760   1.86367
   A34        1.96498  -0.00308   0.00000  -0.01784  -0.01835   1.94663
   A35        1.90702  -0.00134   0.00000  -0.01351  -0.01322   1.89380
   A36        1.91774   0.00235   0.00000   0.01219   0.01216   1.92990
   A37        1.91108   0.00374   0.00000   0.02924   0.02932   1.94039
   A38        1.91555  -0.00126   0.00000  -0.01484  -0.01465   1.90090
   A39        1.84351  -0.00020   0.00000   0.00648   0.00648   1.85000
   A40        2.05659   0.00185   0.00000  -0.01375  -0.01645   2.04014
   A41        1.95224  -0.00302   0.00000  -0.04313  -0.04576   1.90648
   A42        1.84069   0.00126   0.00000   0.04043   0.04066   1.88135
   A43        1.96614  -0.00227   0.00000  -0.04001  -0.04275   1.92339
   A44        1.83191   0.00058   0.00000   0.03802   0.03822   1.87013
   A45        1.78498   0.00243   0.00000   0.04356   0.04492   1.82991
    D1       -0.99232  -0.00156   0.00000  -0.02529  -0.02565  -1.01797
    D2       -3.13020  -0.00328   0.00000  -0.04026  -0.04029   3.11269
    D3        1.14556   0.00016   0.00000  -0.01033  -0.01101   1.13455
    D4        0.99232   0.00156   0.00000   0.02531   0.02567   1.01798
    D5       -1.14556  -0.00016   0.00000   0.01034   0.01102  -1.13454
    D6        3.13020   0.00328   0.00000   0.04026   0.04030  -3.11268
    D7       -1.10543  -0.00053   0.00000  -0.02310  -0.02394  -1.12937
    D8        1.10540   0.00053   0.00000   0.02311   0.02395   1.12936
    D9       -3.14157   0.00000   0.00000  -0.00000  -0.00000  -3.14157
   D10        1.02234   0.00081   0.00000  -0.00923  -0.01021   1.01213
   D11       -3.05001   0.00187   0.00000   0.03699   0.03769  -3.01232
   D12       -1.01380   0.00134   0.00000   0.01387   0.01373  -1.00006
   D13        3.05001  -0.00187   0.00000  -0.03700  -0.03770   3.01231
   D14       -1.02234  -0.00081   0.00000   0.00921   0.01020  -1.01214
   D15        1.01388  -0.00134   0.00000  -0.01390  -0.01376   1.00012
   D16        1.70932  -0.00060   0.00000  -0.05242  -0.05206   1.65726
   D17       -0.61058   0.00427   0.00000   0.07045   0.06967  -0.54092
   D18       -2.53736   0.00210   0.00000   0.01736   0.01747  -2.51989
   D19       -0.45533  -0.00549   0.00000  -0.13813  -0.13735  -0.59268
   D20       -2.77523  -0.00062   0.00000  -0.01526  -0.01562  -2.79085
   D21        1.58118  -0.00278   0.00000  -0.06835  -0.06782   1.51336
   D22       -2.52881  -0.00255   0.00000  -0.07918  -0.07891  -2.60772
   D23        1.43447   0.00232   0.00000   0.04369   0.04282   1.47729
   D24       -0.49231   0.00016   0.00000  -0.00940  -0.00938  -0.50169
   D25       -1.70932   0.00061   0.00000   0.05245   0.05209  -1.65723
   D26        0.61062  -0.00427   0.00000  -0.07046  -0.06968   0.54095
   D27        2.53746  -0.00211   0.00000  -0.01740  -0.01751   2.51996
   D28        0.45531   0.00550   0.00000   0.13817   0.13738   0.59269
   D29        2.77525   0.00063   0.00000   0.01526   0.01562   2.79087
   D30       -1.58109   0.00278   0.00000   0.06832   0.06779  -1.51330
   D31        2.52876   0.00255   0.00000   0.07922   0.07894   2.60771
   D32       -1.43448  -0.00232   0.00000  -0.04369  -0.04282  -1.47730
   D33        0.49236  -0.00016   0.00000   0.00937   0.00935   0.50171
   D34        0.75008   0.00275   0.00000   0.07309   0.07246   0.82254
   D35       -1.37499   0.00389   0.00000   0.08166   0.08132  -1.29367
   D36        2.89209   0.00272   0.00000   0.06563   0.06525   2.95734
   D37        3.06387  -0.00248   0.00000  -0.05201  -0.05160   3.01227
   D38        0.93880  -0.00134   0.00000  -0.04344  -0.04274   0.89606
   D39       -1.07730  -0.00251   0.00000  -0.05948  -0.05881  -1.13611
   D40       -1.29106  -0.00032   0.00000   0.00207   0.00170  -1.28937
   D41        2.86705   0.00082   0.00000   0.01064   0.01055   2.87760
   D42        0.85095  -0.00035   0.00000  -0.00539  -0.00552   0.84543
   D43       -1.01843  -0.00093   0.00000  -0.01088  -0.01082  -1.02925
   D44       -3.13794  -0.00139   0.00000  -0.01753  -0.01752   3.12772
   D45        1.10492  -0.00157   0.00000  -0.02272  -0.02279   1.08213
   D46        1.10892   0.00081   0.00000   0.00487   0.00495   1.11388
   D47       -1.01059   0.00036   0.00000  -0.00179  -0.00175  -1.01234
   D48       -3.05092   0.00018   0.00000  -0.00698  -0.00701  -3.05794
   D49        3.12400   0.00113   0.00000   0.01176   0.01189   3.13589
   D50        1.00448   0.00067   0.00000   0.00510   0.00519   1.00967
   D51       -1.03585   0.00049   0.00000  -0.00009  -0.00008  -1.03593
   D52        1.01843   0.00093   0.00000   0.01088   0.01083   1.02926
   D53       -1.10894  -0.00081   0.00000  -0.00485  -0.00494  -1.11388
   D54       -3.12397  -0.00113   0.00000  -0.01179  -0.01192  -3.13589
   D55        3.13790   0.00139   0.00000   0.01756   0.01756  -3.12772
   D56        1.01053  -0.00035   0.00000   0.00183   0.00179   1.01232
   D57       -1.00450  -0.00067   0.00000  -0.00511  -0.00519  -1.00969
   D58       -1.10490   0.00158   0.00000   0.02274   0.02281  -1.08209
   D59        3.05091  -0.00017   0.00000   0.00701   0.00705   3.05796
   D60        1.03588  -0.00049   0.00000   0.00007   0.00006   1.03594
   D61       -0.75010  -0.00274   0.00000  -0.07311  -0.07248  -0.82258
   D62       -3.06389   0.00248   0.00000   0.05198   0.05156  -3.01233
   D63        1.29102   0.00032   0.00000  -0.00207  -0.00170   1.28933
   D64        1.37497  -0.00388   0.00000  -0.08165  -0.08130   1.29367
   D65       -0.93881   0.00134   0.00000   0.04344   0.04274  -0.89608
   D66       -2.86709  -0.00082   0.00000  -0.01061  -0.01052  -2.87761
   D67       -2.89211  -0.00272   0.00000  -0.06565  -0.06526  -2.95738
   D68        1.07729   0.00250   0.00000   0.05944   0.05877   1.13606
   D69       -0.85099   0.00035   0.00000   0.00539   0.00552  -0.84547
         Item               Value     Threshold  Converged?
 Maximum Force            0.023072     0.000450     NO 
 RMS     Force            0.003544     0.000300     NO 
 Maximum Displacement     0.323260     0.001800     NO 
 RMS     Displacement     0.065539     0.001200     NO 
 Predicted change in Energy=-7.328796D-03
 GradGradGradGradGradGradGradGradGradGradGradGradGradGradGradGradGradGrad

                          Input orientation:                          
 ---------------------------------------------------------------------
 Center     Atomic      Atomic             Coordinates (Angstroms)
 Number     Number       Type             X           Y           Z
 ---------------------------------------------------------------------
      1          7           0        2.489555   -0.111195   -0.147980
      2          6           0        2.618507    0.547348    1.158058
      3          6           0        1.323359    0.987213    1.899746
      4          6           0        0.546475    2.092355    1.131323
      5          6           0       -0.590073    1.628281    0.207438
      6          6           0       -1.499859    0.615507    0.902337
      7          6           0       -0.697749   -0.607783    1.345544
      8          6           0        0.435085   -0.220702    2.308641
      9          1           0        1.925309   -0.951980   -0.060986
     10          1           0        1.994962    0.494424   -0.797187
     11          1           0        3.257538    1.428252    1.017965
     12          1           0        3.182492   -0.130324    1.811258
     13          1           0        1.648023    1.449791    2.839222
     14          1           0        1.257906    2.712768    0.574038
     15          1           0        0.103105    2.771112    1.875612
     16          1           0       -0.194462    1.170211   -0.708873
     17          1           0       -1.164647    2.503608   -0.116227
     18          1           0       -2.308656    0.311611    0.228711
     19          1           0       -1.973681    1.083050    1.776058
     20          1           0       -0.304212   -1.109258    0.451330
     21          1           0       -1.349604   -1.337693    1.838916
     22          1           0        1.074846   -1.088060    2.508635
     23          1           0       -0.029618    0.016365    3.277720
 ---------------------------------------------------------------------
                    Distance matrix (angstroms):
                    1          2          3          4          5
     1  N    0.000000
     2  C    1.468346   0.000000
     3  C    2.599941   1.555954   0.000000
     4  C    3.204342   2.584778   1.554143   0.000000
     5  C    3.554744   3.516687   2.633647   1.536448   0.000000
     6  C    4.188876   4.126861   3.017209   2.533969   1.528498
     7  C    3.554732   3.516679   2.633634   2.980726   2.511347
     8  C    3.204344   2.584777   1.554118   2.597829   2.980729
     9  H    1.016298   2.052943   2.822638   3.548346   3.613440
    10  H    1.016300   2.052947   2.822648   2.893208   2.996216
    11  H    2.078249   1.097259   2.170968   2.793518   3.937141
    12  H    2.078254   1.097264   2.170967   3.514427   4.460626
    13  H    3.473935   2.140691   1.096358   2.131482   3.459367
    14  H    3.164338   2.623234   2.176999   1.096181   2.173830
    15  H    4.254146   3.433258   2.161456   1.100570   2.137607
    16  H    3.026640   3.433101   3.023601   2.187615   1.098163
    17  H    4.493483   4.445560   3.543130   2.157185   1.095943
    18  H    4.831510   5.019581   4.054667   3.483896   2.165087
    19  H    5.004859   4.664450   3.300750   2.790263   2.161531
    20  H    3.026621   3.433088   3.023588   3.381772   2.763208
    21  H    4.493461   4.445543   3.543109   3.982591   3.469238
    22  H    3.164375   2.623263   2.176986   3.505882   3.930137
    23  H    4.254166   3.433290   2.161460   3.041158   3.512694
                    6          7          8          9         10
     6  C    0.000000
     7  C    1.528480   0.000000
     8  C    2.533959   1.536458   0.000000
     9  H    3.888030   2.996202   2.893210   0.000000
    10  H    3.888035   3.613426   3.548350   1.624478   0.000000
    11  H    4.827707   4.460610   3.514418   2.933338   2.400190
    12  H    4.827714   3.937148   2.793529   2.400193   2.933347
    13  H    3.789026   3.459383   2.131496   3.775791   3.775787
    14  H    3.480166   3.930123   3.505870   3.778764   2.710085
    15  H    2.857165   3.512730   3.041163   4.575178   3.988269
    16  H    2.146569   2.763186   3.381769   3.068694   2.293047
    17  H    2.171351   3.469225   3.982586   4.635943   3.805740
    18  H    1.095571   2.165092   3.483904   4.427984   4.427981
    19  H    1.098404   2.161541   2.790263   4.766361   4.766361
    20  H    2.146577   1.098165   2.187623   2.293026   3.068679
    21  H    2.171347   1.095947   2.157181   3.805713   4.635926
    22  H    3.480150   2.173831   1.096176   2.710121   3.778800
    23  H    2.857101   2.137584   1.100574   3.988281   4.575187
                   11         12         13         14         15
    11  H    0.000000
    12  H    1.750458   0.000000
    13  H    2.430634   2.430652   0.000000
    14  H    2.417763   3.649372   2.622663   0.000000
    15  H    3.534018   4.231441   2.249712   1.740995   0.000000
    16  H    3.868444   4.409793   4.007729   2.476836   3.054668
    17  H    4.690256   5.436029   4.213825   2.527642   2.376168
    18  H    5.731695   5.731707   4.874990   4.313371   3.818117
    19  H    5.297124   5.297135   3.792302   3.813658   2.678153
    20  H    4.409772   3.868439   4.007739   4.130757   4.153523
    21  H    5.436007   4.690245   4.213840   4.980488   4.358209
    22  H    3.649393   2.417802   2.622691   4.268779   4.029666
    23  H    4.231467   3.534075   2.249771   4.029666   3.093890
                   16         17         18         19         20
    16  H    0.000000
    17  H    1.752266   0.000000
    18  H    2.466998   2.496516   0.000000
    19  H    3.057467   2.500653   1.761138   0.000000
    20  H    2.560097   3.757029   2.467027   3.057489   0.000000
    21  H    3.757016   4.314208   2.496546   2.500684   1.752261
    22  H    4.130774   4.980493   4.313377   3.813647   2.476844
    23  H    4.153488   4.358159   3.818068   2.678094   3.054653
                   21         22         23
    21  H    0.000000
    22  H    2.527607   0.000000
    23  H    2.376130   1.741002   0.000000
 Stoichiometry    C7H15N
 Framework group  C1[X(C7H15N)]
 Deg. of freedom    63
 Full point group                 C1      NOp   1
 Largest Abelian subgroup         C1      NOp   1
 Largest concise Abelian subgroup C1      NOp   1
                         Standard orientation:                         
 ---------------------------------------------------------------------
 Center     Atomic      Atomic             Coordinates (Angstroms)
 Number     Number       Type             X           Y           Z
 ---------------------------------------------------------------------
      1          7           0       -2.014542   -0.000004    1.264649
      2          6           0       -2.026843    0.000001   -0.203646
      3          6           0       -0.666154   -0.000008   -0.958309
      4          6           0        0.149951    1.298920   -0.709072
      5          6           0        1.199841    1.255677    0.411879
      6          6           0        2.066578   -0.000010    0.320645
      7          6           0        1.199834   -1.255670    0.411884
      8          6           0        0.149951   -1.298910   -0.709088
      9          1           0       -1.510488   -0.812243    1.609697
     10          1           0       -1.510487    0.812234    1.609706
     11          1           0       -2.605135    0.875231   -0.525402
     12          1           0       -2.605146   -0.875226   -0.525410
     13          1           0       -0.906785    0.000025   -2.027934
     14          1           0       -0.541258    2.134385   -0.548320
     15          1           0        0.680197    1.546960   -1.641043
     16          1           0        0.724668    1.280043    1.401615
     17          1           0        1.820324    2.157098    0.352450
     18          1           0        2.814829    0.000005    1.120893
     19          1           0        2.618151    0.000006   -0.629228
     20          1           0        0.724646   -1.280054    1.401615
     21          1           0        1.820296   -2.157110    0.352453
     22          1           0       -0.541232   -2.134394   -0.548361
     23          1           0        0.680259   -1.546930   -1.641034
 ---------------------------------------------------------------------
 Rotational constants (GHZ):           2.7926926           1.6087318           1.4481900
 Standard basis: 6-31G(d,p) (6D, 7F)
 There are   195 symmetry adapted cartesian basis functions of A   symmetry.
 There are   195 symmetry adapted basis functions of A   symmetry.
   195 basis functions,   329 primitive gaussians,   195 cartesian basis functions
    32 alpha electrons       32 beta electrons
       nuclear repulsion energy       412.4468501063 Hartrees.
 NAtoms=   23 NActive=   23 NUniq=   23 SFac= 1.00D+00 NAtFMM=   60 NAOKFM=F Big=F
 Integral buffers will be    131072 words long.
 Raffenetti 2 integral format.
 Two-electron integral symmetry is turned on.
 Nuclear repulsion after empirical dispersion term =      412.4094841180 Hartrees.
 One-electron integrals computed using PRISM.
 NBasis=   195 RedAO= T EigKep=  3.81D-03  NBF=   195
 NBsUse=   195 1.00D-06 EigRej= -1.00D+00 NBFU=   195
 Initial guess from the checkpoint file:  "N2_conf-4.chk"
 B after Tr=    -0.000000   -0.000000    0.000000
         Rot=    0.999685   -0.000010    0.025086   -0.000004 Ang=  -2.87 deg.
 ExpMin= 1.61D-01 ExpMax= 4.17D+03 ExpMxC= 6.27D+02 IAcc=3 IRadAn=         5 AccDes= 0.00D+00
 Harris functional with IExCor=  402 and IRadAn=       5 diagonalized for initial guess.
 HarFok:  IExCor=  402 AccDes= 0.00D+00 IRadAn=         5 IDoV= 1 UseB2=F ITyADJ=14
 ICtDFT=  3500011 ScaDFX=  1.000000  1.000000  1.000000  1.000000
 FoFCou: FMM=F IPFlag=           0 FMFlag=      100000 FMFlg1=           0
         NFxFlg=           0 DoJE=T BraDBF=F KetDBF=T FulRan=T
         wScrn=  0.000000 ICntrl=       500 IOpCl=  0 I1Cent=   200000004 NGrid=           0
         NMat0=    1 NMatS0=      1 NMatT0=    0 NMatD0=    1 NMtDS0=    0 NMtDT0=    0
 Petite list used in FoFCou.
 Requested convergence on RMS density matrix=1.00D-08 within 128 cycles.
 Requested convergence on MAX density matrix=1.00D-06.
 Requested convergence on             energy=1.00D-06.
 No special actions if energy rises.
 Integral accuracy reduced to 1.0D-05 until final iterations.
 Initial convergence to 1.0D-05 achieved.  Increase integral accuracy.
 SCF Done:  E(RB3LYP) =  -330.587219992     A.U. after   11 cycles
            NFock= 11  Conv=0.34D-08     -V/T= 2.0101
 Calling FoFJK, ICntrl=      2127 FMM=F ISym2X=0 I1Cent= 0 IOpClX= 0 NMat=1 NMatS=1 NMatT=0.
 ***** Axes restored to original set *****
 -------------------------------------------------------------------
 Center     Atomic                   Forces (Hartrees/Bohr)
 Number     Number              X              Y              Z
 -------------------------------------------------------------------
      1        7          -0.000740095    0.001266215    0.002415730
      2        6          -0.003643667    0.000708277    0.001054689
      3        6           0.000738662   -0.004096009   -0.008000211
      4        6          -0.001854726    0.003025373    0.005299209
      5        6           0.002046450   -0.000520582   -0.000737407
      6        6          -0.001587412   -0.000515512   -0.001182869
      7        6           0.002054928   -0.000455578   -0.000768468
      8        6          -0.001885001    0.002642557    0.005493168
      9        1          -0.000247147   -0.000663648    0.000383697
     10        1          -0.000179985    0.000716420   -0.000317614
     11        1          -0.000642433    0.000600766   -0.000329339
     12        1          -0.000699663   -0.000567208    0.000263646
     13        1           0.004335327   -0.000381053   -0.000332988
     14        1           0.000826917   -0.000128108   -0.000910413
     15        1          -0.000536671   -0.001754501   -0.000778921
     16        1           0.001340835   -0.000425694    0.000513148
     17        1          -0.000174410    0.000054524   -0.000188041
     18        1          -0.000718241    0.000112684    0.000156175
     19        1          -0.000010365    0.000270092    0.000534494
     20        1           0.001387158    0.000563506    0.000010152
     21        1          -0.000184879   -0.000168336   -0.000074881
     22        1           0.000800310   -0.000724767   -0.000606668
     23        1          -0.000425893    0.000440581   -0.001896288
 -------------------------------------------------------------------
 Cartesian Forces:  Max     0.008000211 RMS     0.001858965

 GradGradGradGradGradGradGradGradGradGradGradGradGradGradGradGradGradGrad
 Berny optimization.
 Using GEDIIS/GDIIS optimizer.
 FormGI is forming the generalized inverse of G from B-inverse, IUseBI=4.
 Internal  Forces:  Max     0.007353343 RMS     0.001021815
 Search for a local minimum.
 Step number   2 out of a maximum of  138
 All quantities printed in internal units (Hartrees-Bohrs-Radians)
 Mixed Optimization -- RFO/linear search
 Update second derivatives using D2CorX and points    1    2
 DE= -6.70D-03 DEPred=-7.33D-03 R= 9.14D-01
 TightC=F SS=  1.41D+00  RLast= 4.34D-01 DXNew= 5.0454D-01 1.3032D+00
 Trust test= 9.14D-01 RLast= 4.34D-01 DXMaxT set to 5.05D-01
 ITU=  1  0
 Use linear search instead of GDIIS.
     Eigenvalues ---    0.00230   0.00296   0.00378   0.00596   0.00993
     Eigenvalues ---    0.01722   0.01814   0.03025   0.03496   0.03552
     Eigenvalues ---    0.03636   0.04169   0.04511   0.04644   0.04670
     Eigenvalues ---    0.04690   0.04786   0.05151   0.05249   0.05393
     Eigenvalues ---    0.05772   0.06548   0.07972   0.08141   0.08154
     Eigenvalues ---    0.08398   0.09003   0.09051   0.09542   0.10417
     Eigenvalues ---    0.12062   0.12594   0.13471   0.15192   0.15895
     Eigenvalues ---    0.16000   0.16057   0.18053   0.20842   0.23290
     Eigenvalues ---    0.25839   0.26253   0.27319   0.28222   0.28505
     Eigenvalues ---    0.28537   0.29155   0.34351   0.34570   0.34573
     Eigenvalues ---    0.34594   0.34625   0.34639   0.34648   0.34662
     Eigenvalues ---    0.34670   0.34676   0.34715   0.34736   0.35110
     Eigenvalues ---    0.38827   0.45787   0.45917
 RFO step:  Lambda=-3.61703710D-03 EMin= 2.30000000D-03
 Quartic linear search produced a step of  0.09193.
 Iteration  1 RMS(Cart)=  0.09418958 RMS(Int)=  0.00256941
 Iteration  2 RMS(Cart)=  0.00379807 RMS(Int)=  0.00086005
 Iteration  3 RMS(Cart)=  0.00000401 RMS(Int)=  0.00086004
 Iteration  4 RMS(Cart)=  0.00000000 RMS(Int)=  0.00086004
 Variable       Old X    -DE/DX   Delta X   Delta X   Delta X     New X
                                 (Linear)    (Quad)   (Total)
    R1        2.77477  -0.00269   0.00270  -0.00349  -0.00079   2.77398
    R2        1.92053   0.00072   0.00104   0.00314   0.00418   1.92471
    R3        1.92053   0.00072   0.00103   0.00313   0.00416   1.92469
    R4        2.94033  -0.00735   0.00082  -0.02650  -0.02568   2.91464
    R5        2.07352   0.00015   0.00090   0.00174   0.00264   2.07616
    R6        2.07353   0.00015   0.00089   0.00173   0.00262   2.07615
    R7        2.93690  -0.00117  -0.00144  -0.01087  -0.01335   2.92355
    R8        2.93686  -0.00116  -0.00143  -0.01083  -0.01329   2.92356
    R9        2.07182   0.00084   0.00074   0.00358   0.00431   2.07613
   R10        2.90347  -0.00086  -0.00093  -0.00433  -0.00524   2.89823
   R11        2.07148   0.00093   0.00082   0.00397   0.00479   2.07627
   R12        2.07978  -0.00139   0.00156  -0.00194  -0.00038   2.07939
   R13        2.88844   0.00022  -0.00055   0.00380   0.00427   2.89271
   R14        2.07523   0.00023   0.00130   0.00257   0.00387   2.07910
   R15        2.07103   0.00019   0.00082   0.00175   0.00257   2.07361
   R16        2.88841   0.00023  -0.00054   0.00383   0.00432   2.89273
   R17        2.07033   0.00040   0.00076   0.00230   0.00307   2.07340
   R18        2.07568   0.00055   0.00119   0.00336   0.00455   2.08023
   R19        2.90348  -0.00086  -0.00094  -0.00435  -0.00526   2.89822
   R20        2.07523   0.00023   0.00130   0.00256   0.00387   2.07910
   R21        2.07104   0.00019   0.00081   0.00174   0.00255   2.07359
   R22        2.07147   0.00093   0.00083   0.00398   0.00481   2.07628
   R23        2.07978  -0.00140   0.00155  -0.00196  -0.00041   2.07938
    A1        1.92161  -0.00036   0.00281   0.00159   0.00432   1.92592
    A2        1.92161  -0.00036   0.00282   0.00159   0.00433   1.92594
    A3        1.85197   0.00039   0.00136   0.00437   0.00557   1.85754
    A4        2.06880  -0.00261   0.00958  -0.00121   0.00840   2.07720
    A5        1.87302   0.00094  -0.00281  -0.00072  -0.00353   1.86949
    A6        1.87302   0.00094  -0.00280  -0.00072  -0.00352   1.86950
    A7        1.89513   0.00038  -0.00242  -0.00360  -0.00602   1.88910
    A8        1.89512   0.00038  -0.00242  -0.00360  -0.00602   1.88910
    A9        1.84677   0.00026   0.00013   0.01168   0.01170   1.85848
   A10        1.96214  -0.00055   0.00418   0.00096   0.00668   1.96882
   A11        1.96216  -0.00055   0.00418   0.00095   0.00666   1.96882
   A12        1.85589  -0.00048  -0.00276  -0.01491  -0.01850   1.83740
   A13        1.97911   0.00117  -0.00167  -0.01428  -0.01991   1.95921
   A14        1.84594   0.00020  -0.00236   0.01458   0.01307   1.85902
   A15        1.84599   0.00020  -0.00236   0.01454   0.01304   1.85903
   A16        2.04014  -0.00134  -0.00151  -0.02904  -0.03508   2.00506
   A17        1.90647   0.00019  -0.00421  -0.01343  -0.01783   1.88864
   A18        1.88132   0.00070   0.00374   0.02404   0.02881   1.91013
   A19        1.92339  -0.00058  -0.00392  -0.01724  -0.02163   1.90177
   A20        1.87018   0.00091   0.00351   0.02190   0.02685   1.89703
   A21        1.82990   0.00037   0.00413   0.02148   0.02555   1.85545
   A22        1.94664   0.00123  -0.00168  -0.00108  -0.00394   1.94269
   A23        1.94040  -0.00132   0.00270  -0.00984  -0.00677   1.93362
   A24        1.90092  -0.00001  -0.00134   0.00313   0.00210   1.90303
   A25        1.89377   0.00015  -0.00122   0.00095  -0.00038   1.89339
   A26        1.92989  -0.00059   0.00111   0.00141   0.00330   1.93319
   A27        1.85001   0.00047   0.00060   0.00571   0.00614   1.85615
   A28        1.92812  -0.00160   0.00053  -0.00005  -0.00068   1.92744
   A29        1.92162   0.00062   0.00014   0.00645   0.00688   1.92850
   A30        1.91384   0.00039  -0.00076  -0.00605  -0.00647   1.90737
   A31        1.92165   0.00061   0.00014   0.00642   0.00685   1.92850
   A32        1.91388   0.00039  -0.00076  -0.00608  -0.00650   1.90737
   A33        1.86367  -0.00035   0.00070  -0.00084  -0.00028   1.86339
   A34        1.94663   0.00123  -0.00169  -0.00109  -0.00395   1.94268
   A35        1.89380   0.00015  -0.00122   0.00093  -0.00039   1.89340
   A36        1.92990  -0.00059   0.00112   0.00142   0.00331   1.93321
   A37        1.94039  -0.00132   0.00270  -0.00984  -0.00677   1.93362
   A38        1.90090  -0.00001  -0.00135   0.00314   0.00211   1.90301
   A39        1.85000   0.00047   0.00060   0.00572   0.00615   1.85615
   A40        2.04014  -0.00134  -0.00151  -0.02904  -0.03507   2.00507
   A41        1.90648   0.00019  -0.00421  -0.01343  -0.01782   1.88866
   A42        1.88135   0.00069   0.00374   0.02402   0.02878   1.91013
   A43        1.92339  -0.00058  -0.00393  -0.01725  -0.02164   1.90175
   A44        1.87013   0.00091   0.00351   0.02195   0.02690   1.89704
   A45        1.82991   0.00037   0.00413   0.02146   0.02554   1.85544
    D1       -1.01797  -0.00003  -0.00236  -0.00361  -0.00601  -1.02398
    D2        3.11269   0.00057  -0.00370   0.00276  -0.00096   3.11174
    D3        1.13455  -0.00062  -0.00101  -0.00998  -0.01107   1.12348
    D4        1.01798   0.00003   0.00236   0.00360   0.00601   1.02399
    D5       -1.13454   0.00062   0.00101   0.00998   0.01106  -1.12348
    D6       -3.11268  -0.00057   0.00370  -0.00276   0.00095  -3.11173
    D7       -1.12937  -0.00033  -0.00220   0.00911   0.00804  -1.12133
    D8        1.12936   0.00033   0.00220  -0.00908  -0.00801   1.12135
    D9       -3.14157  -0.00000  -0.00000  -0.00001  -0.00001  -3.14158
   D10        1.01213  -0.00069  -0.00094   0.00411   0.00429   1.01642
   D11       -3.01232  -0.00002   0.00346  -0.01407  -0.01176  -3.02409
   D12       -1.00006  -0.00035   0.00126  -0.00501  -0.00376  -1.00382
   D13        3.01231   0.00002  -0.00347   0.01410   0.01178   3.02410
   D14       -1.01214   0.00069   0.00094  -0.00409  -0.00427  -1.01641
   D15        1.00012   0.00035  -0.00126   0.00498   0.00373   1.00385
   D16        1.65726  -0.00163  -0.00479  -0.16368  -0.16781   1.48945
   D17       -0.54092   0.00008   0.00640  -0.10494  -0.09865  -0.63957
   D18       -2.51989  -0.00080   0.00161  -0.13585  -0.13457  -2.65446
   D19       -0.59268  -0.00140  -0.01263  -0.15330  -0.16553  -0.75821
   D20       -2.79085   0.00031  -0.00144  -0.09456  -0.09638  -2.88723
   D21        1.51336  -0.00058  -0.00623  -0.12547  -0.13230   1.38106
   D22       -2.60772  -0.00236  -0.00725  -0.17239  -0.17874  -2.78646
   D23        1.47729  -0.00065   0.00394  -0.11364  -0.10959   1.36770
   D24       -0.50169  -0.00154  -0.00086  -0.14455  -0.14550  -0.64719
   D25       -1.65723   0.00163   0.00479   0.16367   0.16780  -1.48944
   D26        0.54095  -0.00008  -0.00641   0.10492   0.09863   0.63958
   D27        2.51996   0.00080  -0.00161   0.13580   0.13451   2.65447
   D28        0.59269   0.00140   0.01263   0.15330   0.16553   0.75823
   D29        2.79087  -0.00031   0.00144   0.09455   0.09637   2.88724
   D30       -1.51330   0.00057   0.00623   0.12543   0.13225  -1.38105
   D31        2.60771   0.00236   0.00726   0.17240   0.17876   2.78647
   D32       -1.47730   0.00065  -0.00394   0.11365   0.10960  -1.36770
   D33        0.50171   0.00154   0.00086   0.14453   0.14548   0.64719
   D34        0.82254   0.00089   0.00666   0.07141   0.07662   0.89916
   D35       -1.29367   0.00076   0.00748   0.07780   0.08446  -1.20922
   D36        2.95734   0.00095   0.00600   0.07462   0.07963   3.03697
   D37        3.01227  -0.00046  -0.00474   0.01393   0.00878   3.02106
   D38        0.89606  -0.00059  -0.00393   0.02033   0.01662   0.91268
   D39       -1.13611  -0.00040  -0.00541   0.01715   0.01179  -1.12432
   D40       -1.28937   0.00017   0.00016   0.04235   0.04223  -1.24714
   D41        2.87760   0.00004   0.00097   0.04875   0.05006   2.92767
   D42        0.84543   0.00023  -0.00051   0.04557   0.04523   0.89066
   D43       -1.02925   0.00045  -0.00099   0.01574   0.01483  -1.01442
   D44        3.12772   0.00033  -0.00161   0.00340   0.00201   3.12973
   D45        1.08213   0.00016  -0.00210   0.00422   0.00218   1.08431
   D46        1.11388  -0.00030   0.00046   0.00331   0.00354   1.11741
   D47       -1.01234  -0.00042  -0.00016  -0.00903  -0.00928  -1.02162
[...]
   XX=    30.0676   YX=    -4.1674   ZX=     1.8567
   XY=    -3.8485   YY=    34.4137   ZY=    -1.0722
   XZ=     1.6965   YZ=    -0.8249   ZZ=    26.4178
   Eigenvalues:    25.6247    28.1929    37.0814
     22  H    Isotropic =    30.1719   Anisotropy =     8.0919
   XX=    29.7060   YX=     2.5279   ZX=     1.4753
   XY=     2.7827   YY=    33.7153   ZY=     1.4049
   XZ=     1.3040   YZ=     1.9302   ZZ=    27.0942
   Eigenvalues:    26.4457    28.5034    35.5665
     23  H    Isotropic =    30.3281   Anisotropy =     8.9848
   XX=    28.8482   YX=    -2.3751   ZX=    -1.5388
   XY=    -2.9610   YY=    28.7229   ZY=     3.6400
   XZ=    -2.4228   YZ=     2.8960   ZZ=    33.4133
   Eigenvalues:    25.9347    28.7317    36.3180
 End of Minotr F.D. properties file   721 does not exist.
 End of Minotr F.D. properties file   722 does not exist.
 End of Minotr F.D. properties file   788 does not exist.

 **********************************************************************

            Population analysis using the SCF Density.

 **********************************************************************

 Orbital symmetries:
       Occupied  (A) (A) (A) (A) (A) (A) (A) (A) (A) (A) (A) (A)
                 (A) (A) (A) (A) (A) (A) (A) (A) (A) (A) (A) (A)
                 (A) (A) (A) (A) (A) (A) (A) (A)
       Virtual   (A) (A) (A) (A) (A) (A) (A) (A) (A) (A) (A) (A)
                 (A) (A) (A) (A) (A) (A) (A) (A) (A) (A) (A) (A)
                 (A) (A) (A) (A) (A) (A) (A) (A) (A) (A) (A) (A)
                 (A) (A) (A) (A) (A) (A) (A) (A) (A) (A) (A) (A)
                 (A) (A) (A) (A) (A) (A) (A) (A) (A) (A) (A) (A)
                 (A) (A) (A) (A) (A) (A) (A) (A) (A) (A) (A) (A)
                 (A) (A) (A) (A) (A) (A) (A) (A) (A) (A) (A) (A)
                 (A) (A) (A) (A) (A) (A) (A) (A) (A) (A) (A) (A)
                 (A) (A) (A) (A) (A) (A) (A) (A) (A) (A) (A) (A)
                 (A) (A) (A) (A) (A) (A) (A) (A) (A) (A) (A) (A)
                 (A) (A) (A) (A) (A) (A) (A) (A) (A) (A) (A) (A)
                 (A) (A) (A) (A) (A) (A) (A) (A) (A) (A) (A) (A)
                 (A) (A) (A) (A) (A) (A) (A) (A) (A) (A) (A) (A)
                 (A) (A) (A) (A) (A) (A) (A) (A) (A) (A) (A) (A)
                 (A) (A) (A) (A) (A) (A) (A) (A) (A) (A) (A) (A)
                 (A) (A) (A) (A) (A) (A) (A) (A) (A) (A) (A) (A)
                 (A) (A) (A) (A) (A) (A) (A) (A) (A) (A) (A) (A)
                 (A) (A) (A) (A) (A) (A) (A) (A) (A) (A) (A) (A)
                 (A) (A) (A) (A) (A) (A) (A) (A) (A) (A) (A) (A)
                 (A) (A) (A) (A) (A) (A) (A) (A) (A) (A) (A) (A)
                 (A) (A) (A) (A) (A) (A) (A) (A) (A) (A) (A) (A)
                 (A) (A) (A) (A) (A) (A) (A) (A) (A) (A) (A) (A)
                 (A) (A) (A) (A) (A) (A) (A) (A) (A) (A) (A) (A)
                 (A) (A) (A) (A) (A) (A) (A) (A) (A) (A) (A) (A)
                 (A) (A) (A) (A) (A) (A) (A) (A) (A) (A) (A) (A)
                 (A) (A) (A) (A) (A) (A)
 The electronic state is 1-A.
 Alpha  occ. eigenvalues --  -14.72097 -10.55227 -10.53338 -10.53004 -10.52998
 Alpha  occ. eigenvalues --  -10.52931 -10.52931 -10.52907  -0.98423  -0.92523
 Alpha  occ. eigenvalues --   -0.84653  -0.83578  -0.74761  -0.69448  -0.67133
 Alpha  occ. eigenvalues --   -0.61465  -0.56825  -0.55200  -0.52015  -0.50077
 Alpha  occ. eigenvalues --   -0.49846  -0.48148  -0.45894  -0.43841  -0.42240
 Alpha  occ. eigenvalues --   -0.41787  -0.41183  -0.38955  -0.38589  -0.35379
 Alpha  occ. eigenvalues --   -0.35047  -0.29516
 Alpha virt. eigenvalues --    0.05346   0.07175   0.08738   0.08963   0.11486
 Alpha virt. eigenvalues --    0.11633   0.12516   0.12836   0.13441   0.14155
 Alpha virt. eigenvalues --    0.15038   0.16353   0.17822   0.18128   0.19136
 Alpha virt. eigenvalues --    0.20418   0.21685   0.23691   0.24179   0.25307
 Alpha virt. eigenvalues --    0.26380   0.26399   0.26611   0.26798   0.27727
 Alpha virt. eigenvalues --    0.28953   0.29292   0.30205   0.32894   0.33823
 Alpha virt. eigenvalues --    0.35493   0.35999   0.38388   0.38605   0.40725
 Alpha virt. eigenvalues --    0.41572   0.43592   0.43671   0.44004   0.44655
 Alpha virt. eigenvalues --    0.44790   0.45611   0.47090   0.47168   0.47602
 Alpha virt. eigenvalues --    0.48238   0.48845   0.50023   0.50056   0.51369
 Alpha virt. eigenvalues --    0.51911   0.52316   0.52545   0.53173   0.54672
 Alpha virt. eigenvalues --    0.54672   0.58930   0.59707   0.60281   0.62432
 Alpha virt. eigenvalues --    0.64236   0.65824   0.66516   0.70034   0.70651
 Alpha virt. eigenvalues --    0.71285   0.74211   0.79519   0.80018   0.80713
 Alpha virt. eigenvalues --    0.81425   0.82618   0.86075   0.87541   0.89208
 Alpha virt. eigenvalues --    0.89913   0.93091   0.94082   0.95349   0.96650
 Alpha virt. eigenvalues --    0.99464   1.03791   1.04619   1.05135   1.06857
 Alpha virt. eigenvalues --    1.07589   1.07880   1.13043   1.15719   1.15999
 Alpha virt. eigenvalues --    1.17805   1.18206   1.19074   1.22563   1.23472
 Alpha virt. eigenvalues --    1.25393   1.27107   1.27617   1.29927   1.32325
 Alpha virt. eigenvalues --    1.33276   1.33648   1.34112   1.36461   1.38946
 Alpha virt. eigenvalues --    1.39302   1.43833   1.48945   1.49045   1.53421
 Alpha virt. eigenvalues --    1.54435   1.57740   1.59416   1.61844   1.62969
 Alpha virt. eigenvalues --    1.64890   1.66154   1.66534   1.66657   1.68841
 Alpha virt. eigenvalues --    1.69727   1.71043   1.71981   1.73426   1.76824
 Alpha virt. eigenvalues --    1.78565   1.80434   1.81022   1.82143   1.83739
 Alpha virt. eigenvalues --    1.84115   1.86507   1.88740   1.91103   1.93046
 Alpha virt. eigenvalues --    1.95110   1.96645   1.99367   1.99551   2.00065
 Alpha virt. eigenvalues --    2.04873   2.05051   2.08213   2.08823   2.10162
 Alpha virt. eigenvalues --    2.10966   2.11875   2.17196   2.17822   2.19349
 Alpha virt. eigenvalues --    2.21074   2.21369   2.22669   2.24413   2.25706
 Alpha virt. eigenvalues --    2.31315   2.31603   2.38382   2.40345   2.42309
 Alpha virt. eigenvalues --    2.42945   2.43106   2.45202   2.48073   2.49824
 Alpha virt. eigenvalues --    2.50913   2.51441   2.53814   2.54366   2.55576
 Alpha virt. eigenvalues --    2.57203   2.59299   2.59385   2.61138   2.62267
 Alpha virt. eigenvalues --    2.62694   2.62841   2.64668   2.65286   2.65744
 Alpha virt. eigenvalues --    2.67059   2.70883   2.71038   2.71481   2.72120
 Alpha virt. eigenvalues --    2.75582   2.76172   2.76726   2.78763   2.80830
 Alpha virt. eigenvalues --    2.83152   2.83850   2.86170   2.86701   2.88198
 Alpha virt. eigenvalues --    2.89075   2.89498   2.93784   2.95288   2.96651
 Alpha virt. eigenvalues --    2.98502   3.02723   3.04739   3.07323   3.09673
 Alpha virt. eigenvalues --    3.11600   3.11845   3.13722   3.16378   3.16592
 Alpha virt. eigenvalues --    3.18435   3.19138   3.21884   3.22224   3.25283
 Alpha virt. eigenvalues --    3.26624   3.28642   3.29006   3.31035   3.31553
 Alpha virt. eigenvalues --    3.33903   3.34168   3.37768   3.38955   3.41520
 Alpha virt. eigenvalues --    3.42145   3.42491   3.44542   3.44805   3.47348
 Alpha virt. eigenvalues --    3.48214   3.48267   3.51663   3.55386   3.55954
 Alpha virt. eigenvalues --    3.56303   3.58551   3.59937   3.61641   3.63667
 Alpha virt. eigenvalues --    3.65676   3.67163   3.72066   3.74245   3.75534
 Alpha virt. eigenvalues --    3.79151   3.80079   3.87370   3.89109   3.89597
 Alpha virt. eigenvalues --    3.91727   3.95388   3.98263   3.99502   4.00470
 Alpha virt. eigenvalues --    4.02406   4.03902   4.05949   4.07188   4.09418
 Alpha virt. eigenvalues --    4.11959   4.12437   4.18025   4.21884   4.22909
 Alpha virt. eigenvalues --    4.28528   4.28821   4.31132   4.33886   4.35604
 Alpha virt. eigenvalues --    4.36026   4.37245   4.39939   4.46978   4.49488
 Alpha virt. eigenvalues --    4.51849   4.58225   4.60905   4.66939   4.68172
 Alpha virt. eigenvalues --    4.73482   4.74069   4.78433   4.79755   4.82532
 Alpha virt. eigenvalues --    4.87345   4.89104   4.92884   4.96582   5.01309
 Alpha virt. eigenvalues --    5.02290   5.03396   5.11308   5.12774   5.18987
 Alpha virt. eigenvalues --    5.28833   5.49837   5.79593  22.53642  22.56960
 Alpha virt. eigenvalues --   22.59721  22.60854  22.64502  22.71207  22.76091
 Alpha virt. eigenvalues --   32.13496
          Condensed to atoms (all electrons):
               1          2          3          4          5          6
     1  N    6.636373   0.251514  -0.119218   0.018895   0.002894  -0.014285
     2  C    0.251514   5.011169   0.267693  -0.039915  -0.001490   0.001906
     3  C   -0.119218   0.267693   5.511406   0.196338  -0.034276   0.018643
     4  C    0.018895  -0.039915   0.196338   5.280787   0.222660  -0.039729
     5  C    0.002894  -0.001490  -0.034276   0.222660   5.230068   0.224278
     6  C   -0.014285   0.001906   0.018643  -0.039729   0.224278   5.242014
     7  C    0.002894  -0.001490  -0.034276  -0.006999  -0.039058   0.224279
     8  C    0.018895  -0.039915   0.196339  -0.044786  -0.006998  -0.039729
     9  H    0.386802  -0.044313  -0.004603  -0.002027  -0.000545  -0.000823
    10  H    0.386802  -0.044313  -0.004603   0.007112  -0.000601  -0.000823
    11  H   -0.037216   0.448834  -0.079777  -0.007671  -0.000201  -0.000229
    12  H   -0.037216   0.448834  -0.079776   0.013083  -0.000208  -0.000229
    13  H    0.010069  -0.048211   0.437646  -0.047406   0.010137  -0.003237
    14  H   -0.000742   0.000431  -0.051177   0.437579  -0.055197   0.009341
    15  H   -0.000353   0.006676  -0.053740   0.432280  -0.044597  -0.004394
    16  H    0.004636   0.002538  -0.012384  -0.057025   0.440251  -0.065691
    17  H    0.001125  -0.000312   0.006505  -0.044414   0.430673  -0.046661
    18  H    0.000259  -0.000338  -0.001445   0.008841  -0.042175   0.427398
    19  H   -0.000279   0.000238  -0.001424  -0.000408  -0.052358   0.430361
    20  H    0.004636   0.002538  -0.012384   0.004257  -0.002964  -0.065691
    21  H    0.001125  -0.000312   0.006505  -0.002107   0.009682  -0.046661
    22  H   -0.000742   0.000431  -0.051177   0.007816  -0.001284   0.009341
    23  H   -0.000353   0.006676  -0.053740   0.002589   0.000149  -0.004394
               7          8          9         10         11         12
     1  N    0.002894   0.018895   0.386802   0.386802  -0.037216  -0.037216
     2  C   -0.001490  -0.039915  -0.044313  -0.044313   0.448834   0.448834
     3  C   -0.034276   0.196339  -0.004603  -0.004603  -0.079777  -0.079776
     4  C   -0.006999  -0.044786  -0.002027   0.007112  -0.007671   0.013083
     5  C   -0.039058  -0.006998  -0.000545  -0.000601  -0.000201  -0.000208
     6  C    0.224279  -0.039729  -0.000823  -0.000823  -0.000229  -0.000229
     7  C    5.230068   0.222660  -0.000601  -0.000545  -0.000208  -0.000201
     8  C    0.222660   5.280786   0.007112  -0.002026   0.013083  -0.007671
     9  H   -0.000601   0.007112   0.478899  -0.046528   0.007423  -0.008780
    10  H   -0.000545  -0.002026  -0.046528   0.478899  -0.008780   0.007423
    11  H   -0.000208   0.013083   0.007423  -0.008780   0.536974  -0.019225
    12  H   -0.000201  -0.007671  -0.008780   0.007423  -0.019225   0.536974
    13  H    0.010137  -0.047407  -0.000657  -0.000657  -0.003829  -0.003829
    14  H   -0.001284   0.007816   0.000133  -0.000147   0.003056  -0.000039
    15  H    0.000149   0.002589   0.000011   0.000029  -0.000121  -0.000452
    16  H   -0.002964   0.004257   0.001461   0.002645   0.000853   0.000079
    17  H    0.009682  -0.002107  -0.000078   0.000677  -0.000024   0.000058
    18  H   -0.042175   0.008841   0.000001   0.000001  -0.000000  -0.000000
    19  H   -0.052358  -0.000408   0.000007   0.000007  -0.000008  -0.000008
    20  H    0.440251  -0.057025   0.002645   0.001461   0.000079   0.000853
    21  H    0.430673  -0.044414   0.000677  -0.000078   0.000058  -0.000024
    22  H   -0.055197   0.437579  -0.000147   0.000133  -0.000039   0.003056
    23  H   -0.044597   0.432280   0.000029   0.000011  -0.000452  -0.000121
              13         14         15         16         17         18
     1  N    0.010069  -0.000742  -0.000353   0.004636   0.001125   0.000259
     2  C   -0.048211   0.000431   0.006676   0.002538  -0.000312  -0.000338
     3  C    0.437646  -0.051177  -0.053740  -0.012384   0.006505  -0.001445
     4  C   -0.047406   0.437579   0.432280  -0.057025  -0.044414   0.008841
     5  C    0.010137  -0.055197  -0.044597   0.440251   0.430673  -0.042175
     6  C   -0.003237   0.009341  -0.004394  -0.065691  -0.046661   0.427398
     7  C    0.010137  -0.001284   0.000149  -0.002964   0.009682  -0.042175
     8  C   -0.047407   0.007816   0.002589   0.004257  -0.002107   0.008841
     9  H   -0.000657   0.000133   0.000011   0.001461  -0.000078   0.000001
    10  H   -0.000657  -0.000147   0.000029   0.002645   0.000677   0.000001
    11  H   -0.003829   0.003056  -0.000121   0.000853  -0.000024  -0.000000
    12  H   -0.003829  -0.000039  -0.000452   0.000079   0.000058  -0.000000
    13  H    0.580190  -0.003480  -0.009571  -0.000354  -0.000297   0.000150
    14  H   -0.003480   0.522041  -0.013813  -0.001746  -0.005738  -0.000342
    15  H   -0.009571  -0.013813   0.526258   0.006396  -0.005337  -0.000112
    16  H   -0.000354  -0.001746   0.006396   0.565425  -0.015018  -0.002963
    17  H   -0.000297  -0.005738  -0.005337  -0.015018   0.536777  -0.005663
    18  H    0.000150  -0.000342  -0.000112  -0.002963  -0.005663   0.534800
    19  H   -0.000374  -0.000202   0.002568   0.007045  -0.003598  -0.018213
    20  H   -0.000354  -0.000111   0.000002   0.003070   0.000156  -0.002963
    21  H   -0.000297   0.000159  -0.000078   0.000156  -0.000244  -0.005663
    22  H   -0.003480  -0.000360  -0.000321  -0.000111   0.000159  -0.000342
    23  H   -0.009571  -0.000321   0.001963   0.000002  -0.000078  -0.000112
              19         20         21         22         23
     1  N   -0.000279   0.004636   0.001125  -0.000742  -0.000353
     2  C    0.000238   0.002538  -0.000312   0.000431   0.006676
     3  C   -0.001424  -0.012384   0.006505  -0.051177  -0.053740
     4  C   -0.000408   0.004257  -0.002107   0.007816   0.002589
     5  C   -0.052358  -0.002964   0.009682  -0.001284   0.000149
     6  C    0.430361  -0.065691  -0.046661   0.009341  -0.004394
     7  C   -0.052358   0.440251   0.430673  -0.055197  -0.044597
     8  C   -0.000408  -0.057025  -0.044414   0.437579   0.432280
     9  H    0.000007   0.002645   0.000677  -0.000147   0.000029
    10  H    0.000007   0.001461  -0.000078   0.000133   0.000011
    11  H   -0.000008   0.000079   0.000058  -0.000039  -0.000452
    12  H   -0.000008   0.000853  -0.000024   0.003056  -0.000121
    13  H   -0.000374  -0.000354  -0.000297  -0.003480  -0.009571
    14  H   -0.000202  -0.000111   0.000159  -0.000360  -0.000321
    15  H    0.002568   0.000002  -0.000078  -0.000321   0.001963
    16  H    0.007045   0.003070   0.000156  -0.000111   0.000002
    17  H   -0.003598   0.000156  -0.000244   0.000159  -0.000078
    18  H   -0.018213  -0.002963  -0.005663  -0.000342  -0.000112
    19  H    0.541144   0.007045  -0.003598  -0.000202   0.002568
    20  H    0.007045   0.565426  -0.015018  -0.001746   0.006396
    21  H   -0.003598  -0.015018   0.536777  -0.005738  -0.005337
    22  H   -0.000202  -0.001746  -0.005738   0.522041  -0.013813
    23  H    0.002568   0.006396  -0.005337  -0.013813   0.526258
 Mulliken charges:
               1
     1  N   -0.516515
     2  C   -0.228869
     3  C   -0.047075
     4  C   -0.339751
     5  C   -0.288840
     6  C   -0.254984
     7  C   -0.288840
     8  C   -0.339751
     9  H    0.223902
    10  H    0.223902
    11  H    0.147421
    12  H    0.147421
    13  H    0.134680
    14  H    0.154145
    15  H    0.153968
    16  H    0.119443
    17  H    0.143757
    18  H    0.142218
    19  H    0.142455
    20  H    0.119443
    21  H    0.143757
    22  H    0.154144
    23  H    0.153968
 Sum of Mulliken charges =  -0.00000
 Mulliken charges with hydrogens summed into heavy atoms:
               1
     1  N   -0.068711
     2  C    0.065974
     3  C    0.087605
     4  C   -0.031638
     5  C   -0.025641
     6  C    0.029689
     7  C   -0.025640
     8  C   -0.031638
 Electronic spatial extent (au):  <R**2>=           1021.1275
 Charge=             -0.0000 electrons
 Dipole moment (field-independent basis, Debye):
    X=              1.4431    Y=             -0.0000    Z=             -0.5859  Tot=              1.5574
 Quadrupole moment (field-independent basis, Debye-Ang):
   XX=            -58.6770   YY=            -51.4979   ZZ=            -53.1532
   XY=              0.0000   XZ=              3.3901   YZ=             -0.0000
 Traceless Quadrupole moment (field-independent basis, Debye-Ang):
   XX=             -4.2343   YY=              2.9448   ZZ=              1.2895
   XY=              0.0000   XZ=              3.3901   YZ=             -0.0000
 Octapole moment (field-independent basis, Debye-Ang**2):
  XXX=             16.4638  YYY=              0.0001  ZZZ=              1.8782  XYY=             -3.7875
  XXY=             -0.0001  XXZ=            -12.8945  XZZ=              5.1117  YZZ=             -0.0000
  YYZ=              2.9494  XYZ=              0.0000
 Hexadecapole moment (field-independent basis, Debye-Ang**3):
 XXXX=           -775.6487 YYYY=           -389.2078 ZZZZ=           -304.3432 XXXY=              0.0001
 XXXZ=             37.1109 YYYX=             -0.0000 YYYZ=              0.0000 ZZZX=              4.9576
 ZZZY=             -0.0000 XXYY=           -175.7375 XXZZ=           -189.9095 YYZZ=           -115.8695
 XXYZ=             -0.0001 YYXZ=             -4.1014 ZZXY=              0.0001
 N-N= 4.145257535895D+02 E-N=-1.594929014676D+03  KE= 3.285839368729D+02
 Unable to Open any file for archive entry.
 1\1\GINC-NOTCH240\SP\RM062X\def2TZVP\C7H15N1\U6032257\21-Feb-2022\0\\#
  M062X/def2tzvp int=(grid=ultrafine) nmr=giao guess=read geom=check\\N
 2.xyz\\0,1\N,0,2.3742352735,-0.1436108169,-0.2225799662\C,0,2.55802892
 19,0.5083940564,1.0758046343\C,0,1.3402266781,0.9873071448,1.901499241
 7\C,0,0.525172088,2.1180825795,1.234656761\C,0,-0.526757357,1.64000801
 29,0.2213071588\C,0,-1.4464942104,0.5780237588,0.8337186632\C,0,-0.635
 029761,-0.6082899609,1.3656595058\C,0,0.4159104422,-0.1507527213,2.389
 4619171\H,0,1.8107706115,-0.982928215,-0.1266498678\H,0,1.8806568694,0
 .4683029439,-0.8653014761\H,0,3.2088159794,1.3765801129,0.9085083777\H
 ,0,3.1336282629,-0.1846863018,1.7031673628\H,0,1.798305705,1.423351724
 7,2.8015348104\H,0,1.2087756836,2.8360479014,0.7640226163\H,0,-0.00165
 74453,2.6706538107,2.024354484\H,0,-0.0402400947,1.2186109198,-0.66651
 76332\H,0,-1.1142530198,2.4969082924,-0.128586299\H,0,-2.1837945488,0.
 2386695791,0.0972349011\H,0,-2.0130837729,1.0269333576,1.6620802654\H,
 0,-0.1526290648,-1.1151827027,0.5213511589\H,0,-1.2993948333,-1.347569
 1178,1.8281961487\H,0,1.0238896076,-1.0031736799,2.718132436\H,0,-0.12
 04820147,0.2032193264,3.2802447964\\Version=ES64L-G16RevC.01\State=1-A
 \HF=-330.4879501\RMSD=1.169e-09\Dipole=-0.5394447,0.1520381,0.2476698\
 Quadrupole=-2.5585126,1.7092344,0.8492782,1.4951222,2.4882515,-0.80192
 52\PG=C01 [X(C7H15N1)]\\@
 The archive entry for this job was punched.


 THEREFORE SHALL EVIL COME UPON THEE...
 THOU SHALT NOT KNOW FROM WHENCE IT RISETH...
 AND MISCHIEF SHALL FALL UPON THEE...
 THOU SHALT NOT BE ABLE TO PUT IT OFF...
 AND DESOLATION SHALL COME UPON THEE SUDDENLY...
 WHICH THOU SHALT NOT KNOW...

                                         ISAIAH 47.11
 Job cpu time:       0 days  0 hours 23 minutes 36.2 seconds.
 Elapsed time:       0 days  0 hours  0 minutes 26.4 seconds.
 File lengths (MBytes):  RWF=     70 Int=      0 D2E=      0 Chk=     12 Scr=      1
 Normal termination of Gaussian 16 at Mon Feb 21 19:08:01 2022.
