 Entering Gaussian System, Link 0=/uufs/chpc.utah.edu/sys/installdir/gaussian16/C01/AVX2/g16/g16
 Input=N2_conf-1.com
 Output=N2_conf-1.log
 Initial command:
 /uufs/chpc.utah.edu/sys/installdir/gaussian16/C01/AVX2/g16/l1.exe "/scratch/local/u6032257/4038568/notchpeak.peaks/Gau-128452.inp" -scrdir="/scratch/local/u6032257/4038568/notchpeak.peaks/"
 Entering Link 1 = /uufs/chpc.utah.edu/sys/installdir/gaussian16/C01/AVX2/g16/l1.exe PID=    128454.
  
 Copyright (c) 1988-2019, Gaussian, Inc.  All Rights Reserved.
  
 This is part of the Gaussian(R) 16 program.  It is based on
 the Gaussian(R) 09 system (copyright 2009, Gaussian, Inc.),
 the Gaussian(R) 03 system (copyright 2003, Gaussian, Inc.),
 the Gaussian(R) 98 system (copyright 1998, Gaussian, Inc.),
 the Gaussian(R) 94 system (copyright 1995, Gaussian, Inc.),
 the Gaussian 92(TM) system (copyright 1992, Gaussian, Inc.),
 the Gaussian 90(TM) system (copyright 1990, Gaussian, Inc.),
 the Gaussian 88(TM) system (copyright 1988, Gaussian, Inc.),
 the Gaussian 86(TM) system (copyright 1986, Carnegie Mellon
 University), and the Gaussian 82(TM) system (copyright 1983,
 Carnegie Mellon University). Gaussian is a federally registered
 trademark of Gaussian, Inc.
  
 This software contains proprietary and confidential information,
 including trade secrets, belonging to Gaussian, Inc.
  
 This software is provided under written license and may be
 used, copied, transmitted, or stored only in accord with that
 written license.
  
 The following legend is applicable only to US Government
 contracts under FAR:
  
                    RESTRICTED RIGHTS LEGEND
  
 Use, reproduction and disclosure by the US Government is
 subject to restrictions as set forth in subparagraphs (a)
 and (c) of the Commercial Computer Software - Restricted
 Rights clause in FAR 52.227-19.
  
 Gaussian, Inc.
 340 Quinnipiac St., Bldg. 40, Wallingford CT 06492
  
  
 ---------------------------------------------------------------
 Warning -- This program may not be used in any manner that
 competes with the business of Gaussian, Inc. or will provide
 assistance to any competitor of Gaussian, Inc.  The licensee
 of this program is prohibited from giving any competitor of
 Gaussian, Inc. access to this program.  By using this program,
 the user acknowledges that Gaussian, Inc. is engaged in the
 business of creating and licensing software in the field of
 computational chemistry and represents and warrants to the
 licensee that it is not a competitor of Gaussian, Inc. and that
 it will not use this program in any manner prohibited above.
 ---------------------------------------------------------------
  

 Cite this work as:
 Gaussian 16, Revision C.01,
 M. J. Frisch, G. W. Trucks, H. B. Schlegel, G. E. Scuseria, 
 M. A. Robb, J. R. Cheeseman, G. Scalmani, V. Barone, 
 G. A. Petersson, H. Nakatsuji, X. Li, M. Caricato, A. V. Marenich, 
 J. Bloino, B. G. Janesko, R. Gomperts, B. Mennucci, H. P. Hratchian, 
 J. V. Ortiz, A. F. Izmaylov, J. L. Sonnenberg, D. Williams-Young, 
 F. Ding, F. Lipparini, F. Egidi, J. Goings, B. Peng, A. Petrone, 
 T. Henderson, D. Ranasinghe, V. G. Zakrzewski, J. Gao, N. Rega, 
 G. Zheng, W. Liang, M. Hada, M. Ehara, K. Toyota, R. Fukuda, 
 J. Hasegawa, M. Ishida, T. Nakajima, Y. Honda, O. Kitao, H. Nakai, 
 T. Vreven, K. Throssell, J. A. Montgomery, Jr., J. E. Peralta, 
 F. Ogliaro, M. J. Bearpark, J. J. Heyd, E. N. Brothers, K. N. Kudin, 
 V. N. Staroverov, T. A. Keith, R. Kobayashi, J. Normand, 
 K. Raghavachari, A. P. Rendell, J. C. Burant, S. S. Iyengar, 
 J. Tomasi, M. Cossi, J. M. Millam, M. Klene, C. Adamo, R. Cammi, 
 J. W. Ochterski, R. L. Martin, K. Morokuma, O. Farkas, 
 J. B. Foresman, and D. J. Fox, Gaussian, Inc., Wallingford CT, 2019.
 
 ******************************************
 Gaussian 16:  ES64L-G16RevC.01  3-Jul-2019
                21-Feb-2022 
 ******************************************
 %NProcShared=64
 Will use up to   64 processors via shared memory.
 %mem=16GB
 %chk=N2_conf-1.chk
 ----------------------------------------------------------------------
 # B3LYP/6-31G(d,p) empiricaldispersion=GD3BJ int=(grid=ultrafine) opt 
 freq=noraman
 ----------------------------------------------------------------------
 1/18=20,19=15,26=4,38=1/1,3;
 2/9=110,12=2,17=6,18=5,40=1/2;
 3/5=1,6=6,7=101,11=2,25=1,30=1,71=1,74=-5,75=-5,124=41/1,2,3;
 4//1;
 5/5=2,38=5/2;
 6/7=2,8=2,9=2,10=2,28=1/1;
 7//1,2,3,16;
 1/18=20,19=15,26=4/3(2);
 2/9=110/2;
 99//99;
 2/9=110/2;
 3/5=1,6=6,7=101,11=2,25=1,30=1,71=1,74=-5,75=-5,124=41/1,2,3;
 4/5=5,16=3,69=1/1;
 5/5=2,38=5/2;
 7//1,2,3,16;
 1/18=20,19=15,26=4/3(-5);
 2/9=110/2;
 6/7=2,8=2,9=2,10=2,19=2,28=1/1;
 99/9=1/99;
 ------
 N2.xyz
 ------
 Symbolic Z-matrix:
 Charge =  0 Multiplicity = 1
 N                     3.4434   -0.3978    0.7941 
 C                     2.7215    0.8254    1.099 
 C                     1.2135    0.6702    0.8052 
 C                     0.523    -0.3806    1.7117 
 C                    -0.9666   -0.546     1.3452 
 C                    -1.7176    0.8017    1.4104 
 C                    -1.0078    1.9093    0.602 
 C                     0.482     2.0199    0.9873 
 H                     3.3009   -0.6549   -0.1729 
 H                     3.0798   -1.16      1.3485 
 H                     3.1418    1.6333    0.4963 
 H                     2.8846    1.0975    2.1441 
 H                     1.0852    0.3658   -0.236 
 H                     1.0294   -1.3428    1.634 
 H                     0.6333   -0.0974    2.7602 
 H                    -1.4387   -1.2679    2.0132 
 H                    -1.0514   -0.9621    0.3398 
 H                    -1.7988    1.1159    2.4526 
 H                    -2.7412    0.6768    1.0539 
 H                    -1.5076    2.8659    0.7617 
 H                    -1.095     1.696    -0.4648 
 H                     0.5926    2.3737    2.0141 
 H                     0.9639    2.7869    0.3786 
 

 GradGradGradGradGradGradGradGradGradGradGradGradGradGradGradGradGradGrad
 Berny optimization.
 Initialization pass.
                           ----------------------------
                           !    Initial Parameters    !
                           ! (Angstroms and Degrees)  !
 --------------------------                            --------------------------
 ! Name  Definition              Value          Derivative Info.                !
 --------------------------------------------------------------------------------
 ! R1    R(1,2)                  1.4527         estimate D2E/DX2                !
 ! R2    R(1,9)                  1.0107         estimate D2E/DX2                !
 ! R3    R(1,10)                 1.0102         estimate D2E/DX2                !
 ! R4    R(2,3)                  1.5442         estimate D2E/DX2                !
 ! R5    R(2,11)                 1.0921         estimate D2E/DX2                !
 ! R6    R(2,12)                 1.0922         estimate D2E/DX2                !
 ! R7    R(3,4)                  1.5501         estimate D2E/DX2                !
 ! R8    R(3,8)                  1.5459         estimate D2E/DX2                !
 ! R9    R(3,13)                 1.0923         estimate D2E/DX2                !
 ! R10   R(4,5)                  1.5429         estimate D2E/DX2                !
 ! R11   R(4,14)                 1.0901         estimate D2E/DX2                !
 ! R12   R(4,15)                 1.0917         estimate D2E/DX2                !
 ! R13   R(5,6)                  1.5442         estimate D2E/DX2                !
 ! R14   R(5,16)                 1.091          estimate D2E/DX2                !
 ! R15   R(5,17)                 1.0914         estimate D2E/DX2                !
 ! R16   R(6,7)                  1.5441         estimate D2E/DX2                !
 ! R17   R(6,18)                 1.0916         estimate D2E/DX2                !
 ! R18   R(6,19)                 1.0911         estimate D2E/DX2                !
 ! R19   R(7,8)                  1.5428         estimate D2E/DX2                !
 ! R20   R(7,20)                 1.091          estimate D2E/DX2                !
 ! R21   R(7,21)                 1.0914         estimate D2E/DX2                !
 ! R22   R(8,22)                 1.0917         estimate D2E/DX2                !
 ! R23   R(8,23)                 1.0913         estimate D2E/DX2                !
 ! A1    A(2,1,9)              110.1782         estimate D2E/DX2                !
 ! A2    A(2,1,10)             109.9536         estimate D2E/DX2                !
 ! A3    A(9,1,10)             106.4034         estimate D2E/DX2                !
 ! A4    A(1,2,3)              111.1453         estimate D2E/DX2                !
 ! A5    A(1,2,11)             108.411          estimate D2E/DX2                !
 ! A6    A(1,2,12)             109.6579         estimate D2E/DX2                !
 ! A7    A(3,2,11)             110.1941         estimate D2E/DX2                !
 ! A8    A(3,2,12)             110.667          estimate D2E/DX2                !
 ! A9    A(11,2,12)            106.6376         estimate D2E/DX2                !
 ! A10   A(2,3,4)              113.0724         estimate D2E/DX2                !
 ! A11   A(2,3,8)              110.6054         estimate D2E/DX2                !
 ! A12   A(2,3,13)             108.909          estimate D2E/DX2                !
 ! A13   A(4,3,8)              108.1908         estimate D2E/DX2                !
 ! A14   A(4,3,13)             108.4333         estimate D2E/DX2                !
 ! A15   A(8,3,13)             107.4572         estimate D2E/DX2                !
 ! A16   A(3,4,5)              111.3354         estimate D2E/DX2                !
 ! A17   A(3,4,14)             110.4719         estimate D2E/DX2                !
 ! A18   A(3,4,15)             109.9268         estimate D2E/DX2                !
 ! A19   A(5,4,14)             109.6906         estimate D2E/DX2                !
 ! A20   A(5,4,15)             110.7018         estimate D2E/DX2                !
 ! A21   A(14,4,15)            104.5076         estimate D2E/DX2                !
 ! A22   A(4,5,6)              111.4656         estimate D2E/DX2                !
 ! A23   A(4,5,16)             110.0761         estimate D2E/DX2                !
 ! A24   A(4,5,17)             109.5545         estimate D2E/DX2                !
 ! A25   A(6,5,16)             109.9495         estimate D2E/DX2                !
 ! A26   A(6,5,17)             109.5024         estimate D2E/DX2                !
 ! A27   A(16,5,17)            106.1497         estimate D2E/DX2                !
 ! A28   A(5,6,7)              112.3571         estimate D2E/DX2                !
 ! A29   A(5,6,18)             109.1298         estimate D2E/DX2                !
 ! A30   A(5,6,19)             110.0327         estimate D2E/DX2                !
 ! A31   A(7,6,18)             109.1231         estimate D2E/DX2                !
 ! A32   A(7,6,19)             110.0181         estimate D2E/DX2                !
 ! A33   A(18,6,19)            105.9697         estimate D2E/DX2                !
 ! A34   A(6,7,8)              111.3818         estimate D2E/DX2                !
 ! A35   A(6,7,20)             109.9815         estimate D2E/DX2                !
 ! A36   A(6,7,21)             109.5624         estimate D2E/DX2                !
 ! A37   A(8,7,20)             110.0566         estimate D2E/DX2                !
 ! A38   A(8,7,21)             109.5893         estimate D2E/DX2                !
 ! A39   A(20,7,21)            106.1305         estimate D2E/DX2                !
 ! A40   A(3,8,7)              111.4024         estimate D2E/DX2                !
 ! A41   A(3,8,22)             110.2311         estimate D2E/DX2                !
 ! A42   A(3,8,23)             109.8131         estimate D2E/DX2                !
 ! A43   A(7,8,22)             110.853          estimate D2E/DX2                !
 ! A44   A(7,8,23)             109.7239         estimate D2E/DX2                !
 ! A45   A(22,8,23)            104.602          estimate D2E/DX2                !
 ! D1    D(9,1,2,3)             57.5494         estimate D2E/DX2                !
 ! D2    D(9,1,2,11)           -63.7047         estimate D2E/DX2                !
 ! D3    D(9,1,2,12)          -179.7669         estimate D2E/DX2                !
 ! D4    D(10,1,2,3)           -59.419          estimate D2E/DX2                !
 ! D5    D(10,1,2,11)          179.3268         estimate D2E/DX2                !
 ! D6    D(10,1,2,12)           63.2646         estimate D2E/DX2                !
 ! D7    D(1,2,3,4)             64.5989         estimate D2E/DX2                !
 ! D8    D(1,2,3,8)           -173.8893         estimate D2E/DX2                !
 ! D9    D(1,2,3,13)           -56.0125         estimate D2E/DX2                !
 ! D10   D(11,2,3,4)          -175.1976         estimate D2E/DX2                !
 ! D11   D(11,2,3,8)           -53.6858         estimate D2E/DX2                !
 ! D12   D(11,2,3,13)           64.191          estimate D2E/DX2                !
 ! D13   D(12,2,3,4)           -57.5007         estimate D2E/DX2                !
 ! D14   D(12,2,3,8)            64.0111         estimate D2E/DX2                !
 ! D15   D(12,2,3,13)         -178.1121         estimate D2E/DX2                !
 ! D16   D(2,3,4,5)           -177.6152         estimate D2E/DX2                !
 ! D17   D(2,3,4,14)           -55.4788         estimate D2E/DX2                !
 ! D18   D(2,3,4,15)            59.3409         estimate D2E/DX2                !
 ! D19   D(8,3,4,5)             59.5222         estimate D2E/DX2                !
 ! D20   D(8,3,4,14)          -178.3414         estimate D2E/DX2                !
 ! D21   D(8,3,4,15)           -63.5218         estimate D2E/DX2                !
 ! D22   D(13,3,4,5)           -56.7335         estimate D2E/DX2                !
 ! D23   D(13,3,4,14)           65.4029         estimate D2E/DX2                !
 ! D24   D(13,3,4,15)         -179.7775         estimate D2E/DX2                !
 ! D25   D(2,3,8,7)            175.9773         estimate D2E/DX2                !
 ! D26   D(2,3,8,22)           -60.5234         estimate D2E/DX2                !
 ! D27   D(2,3,8,23)            54.2079         estimate D2E/DX2                !
 ! D28   D(4,3,8,7)            -59.6721         estimate D2E/DX2                !
 ! D29   D(4,3,8,22)            63.8271         estimate D2E/DX2                !
 ! D30   D(4,3,8,23)           178.5584         estimate D2E/DX2                !
 ! D31   D(13,3,8,7)            57.2156         estimate D2E/DX2                !
 ! D32   D(13,3,8,22)         -179.2852         estimate D2E/DX2                !
 ! D33   D(13,3,8,23)          -64.5538         estimate D2E/DX2                !
 ! D34   D(3,4,5,6)            -56.1032         estimate D2E/DX2                !
 ! D35   D(3,4,5,16)          -178.3828         estimate D2E/DX2                !
 ! D36   D(3,4,5,17)            65.2526         estimate D2E/DX2                !
 ! D37   D(14,4,5,6)          -178.6903         estimate D2E/DX2                !
 ! D38   D(14,4,5,16)           59.0301         estimate D2E/DX2                !
 ! D39   D(14,4,5,17)          -57.3344         estimate D2E/DX2                !
 ! D40   D(15,4,5,6)            66.496          estimate D2E/DX2                !
 ! D41   D(15,4,5,16)          -55.7837         estimate D2E/DX2                !
 ! D42   D(15,4,5,17)         -172.1482         estimate D2E/DX2                !
 ! D43   D(4,5,6,7)             51.5207         estimate D2E/DX2                !
 ! D44   D(4,5,6,18)           -69.6502         estimate D2E/DX2                !
 ! D45   D(4,5,6,19)           174.473          estimate D2E/DX2                !
 ! D46   D(16,5,6,7)           173.8732         estimate D2E/DX2                !
 ! D47   D(16,5,6,18)           52.7023         estimate D2E/DX2                !
 ! D48   D(16,5,6,19)          -63.1745         estimate D2E/DX2                !
 ! D49   D(17,5,6,7)           -69.8655         estimate D2E/DX2                !
 ! D50   D(17,5,6,18)          168.9636         estimate D2E/DX2                !
 ! D51   D(17,5,6,19)           53.0869         estimate D2E/DX2                !
 ! D52   D(5,6,7,8)            -51.576          estimate D2E/DX2                !
 ! D53   D(5,6,7,20)          -173.8691         estimate D2E/DX2                !
 ! D54   D(5,6,7,21)            69.8396         estimate D2E/DX2                !
 ! D55   D(18,6,7,8)            69.5987         estimate D2E/DX2                !
 ! D56   D(18,6,7,20)          -52.6943         estimate D2E/DX2                !
 ! D57   D(18,6,7,21)         -168.9856         estimate D2E/DX2                !
 ! D58   D(19,6,7,8)          -174.5366         estimate D2E/DX2                !
 ! D59   D(19,6,7,20)           63.1704         estimate D2E/DX2                !
 ! D60   D(19,6,7,21)          -53.121          estimate D2E/DX2                !
 ! D61   D(6,7,8,3)             56.3715         estimate D2E/DX2                !
 ! D62   D(6,7,8,22)           -66.7732         estimate D2E/DX2                !
 ! D63   D(6,7,8,23)           178.1927         estimate D2E/DX2                !
 ! D64   D(20,7,8,3)           178.6213         estimate D2E/DX2                !
 ! D65   D(20,7,8,22)           55.4766         estimate D2E/DX2                !
 ! D66   D(20,7,8,23)          -59.5576         estimate D2E/DX2                !
 ! D67   D(21,7,8,3)           -65.0284         estimate D2E/DX2                !
 ! D68   D(21,7,8,22)          171.8269         estimate D2E/DX2                !
 ! D69   D(21,7,8,23)           56.7928         estimate D2E/DX2                !
 --------------------------------------------------------------------------------
 Trust Radius=3.00D-01 FncErr=1.00D-07 GrdErr=1.00D-06 EigMax=2.50D+02 EigMin=1.00D-04
 Number of steps in this run=    138 maximum allowed number of steps=    138.
 GradGradGradGradGradGradGradGradGradGradGradGradGradGradGradGradGradGrad

                          Input orientation:                          
 ---------------------------------------------------------------------
 Center     Atomic      Atomic             Coordinates (Angstroms)
 Number     Number       Type             X           Y           Z
 ---------------------------------------------------------------------
      1          7           0        3.443400   -0.397800    0.794100
      2          6           0        2.721500    0.825400    1.099000
      3          6           0        1.213500    0.670200    0.805200
      4          6           0        0.523000   -0.380600    1.711700
      5          6           0       -0.966600   -0.546000    1.345200
      6          6           0       -1.717600    0.801700    1.410400
      7          6           0       -1.007800    1.909300    0.602000
      8          6           0        0.482000    2.019900    0.987300
      9          1           0        3.300900   -0.654900   -0.172900
     10          1           0        3.079800   -1.160000    1.348500
     11          1           0        3.141800    1.633300    0.496300
     12          1           0        2.884600    1.097500    2.144100
     13          1           0        1.085200    0.365800   -0.236000
     14          1           0        1.029400   -1.342800    1.634000
     15          1           0        0.633300   -0.097400    2.760200
     16          1           0       -1.438700   -1.267900    2.013200
     17          1           0       -1.051400   -0.962100    0.339800
     18          1           0       -1.798800    1.115900    2.452600
     19          1           0       -2.741200    0.676800    1.053900
     20          1           0       -1.507600    2.865900    0.761700
     21          1           0       -1.095000    1.696000   -0.464800
     22          1           0        0.592600    2.373700    2.014100
     23          1           0        0.963900    2.786900    0.378600
 ---------------------------------------------------------------------
                    Distance matrix (angstroms):
                    1          2          3          4          5
     1  N    0.000000
     2  C    1.452695   0.000000
     3  C    2.472489   1.544173   0.000000
     4  C    3.061212   2.581325   1.550069   0.000000
     5  C    4.446771   3.942516   2.554130   1.542915   0.000000
     6  C    5.334280   4.450072   2.995815   2.551255   1.544198
     7  C    5.017250   3.915294   2.551633   2.969583   2.565646
     8  C    3.827857   2.540604   1.545944   2.507755   2.968228
     9  H    1.010691   2.035859   2.658911   3.368039   4.530788
    10  H    1.010205   2.032841   2.669809   2.697518   4.092720
    11  H    2.074853   1.092063   2.177458   3.520100   4.727466
    12  H    2.090617   1.092188   2.183532   2.819380   4.262754
    13  H    2.684269   2.161235   1.092345   2.160259   2.746171
    14  H    2.725042   2.801878   2.184713   1.090095   2.168481
    15  H    3.442739   2.823424   2.178960   1.091660   2.182464
    16  H    5.106680   4.746044   3.499951   2.174045   1.090982
    17  H    4.552807   4.243385   2.830331   2.167715   1.091402
    18  H    5.702856   4.727551   3.462156   2.859930   2.163516
    19  H    6.282638   5.464907   3.962518   3.493680   2.174696
    20  H    5.930024   4.707728   3.496766   3.945326   3.503458
    21  H    5.154212   4.215339   2.827426   3.415749   2.884294
    22  H    4.158927   2.786908   2.179190   2.771725   3.376859
    23  H    4.057447   2.730497   2.173639   3.464766   3.971066
                    6          7          8          9         10
     6  C    0.000000
     7  C    1.544055   0.000000
     8  C    2.549758   1.542787   0.000000
     9  H    5.460207   5.073508   4.055467   0.000000
    10  H    5.183353   5.165882   4.121989   1.618230   0.000000
    11  H    5.014071   4.160112   2.732229   2.389352   2.921064
    12  H    4.669696   4.264724   2.821612   2.934740   2.401539
    13  H    3.279684   2.732267   2.143912   2.440315   2.969366
    14  H    3.492118   3.973835   3.467797   2.982919   2.078236
    15  H    2.856059   3.373112   2.765687   4.003745   3.017843
    16  H    2.173568   3.503107   3.943499   5.255341   4.568404
    17  H    2.168178   2.883676   3.415098   4.393148   4.257165
    18  H    1.091557   2.163304   2.857686   6.002993   5.495407
    19  H    1.091077   2.174384   3.492474   6.307570   6.111028
    20  H    2.173898   1.091049   2.173734   6.032510   6.131594
    21  H    2.168820   1.091404   2.168049   4.993583   5.373430
    22  H    2.858787   2.184256   1.091662   4.614139   4.372210
    23  H    3.492288   2.169721   1.091344   4.196631   4.582113
                   11         12         13         14         15
    11  H    0.000000
    12  H    1.751707   0.000000
    13  H    2.524366   3.072149   0.000000
    14  H    3.822796   3.107577   2.533639   0.000000
    15  H    3.796464   2.622159   3.065287   1.725179   0.000000
    16  H    5.630180   4.929825   3.754723   2.498183   2.494246
    17  H    4.933915   4.794742   2.580683   2.479842   3.073151
    18  H    5.338946   4.693586   4.013562   3.835887   2.735292
    19  H    5.986276   5.745881   4.049926   4.316564   3.859805
    20  H    4.817329   4.932513   3.737448   4.991035   4.166366
    21  H    4.344896   4.796017   2.564187   4.260557   4.074792
    22  H    3.057831   2.626566   3.055694   3.761335   2.581600
    23  H    2.467366   3.108078   2.500834   4.316798   3.755063
                   16         17         18         19         20
    16  H    0.000000
    17  H    1.744644   0.000000
    18  H    2.450561   3.056242   0.000000
    19  H    2.529550   2.459950   1.742782   0.000000
    20  H    4.319641   3.878105   2.450804   2.529685   0.000000
    21  H    3.878572   2.777549   3.056644   2.460730   1.744479
    22  H    4.169824   4.078428   2.737360   3.862082   2.494315
    23  H    4.988568   4.256517   3.837477   4.316980   2.502263
                   21         22         23
    21  H    0.000000
    22  H    3.074446   0.000000
    23  H    2.477994   1.727269   0.000000
 Stoichiometry    C7H15N
 Framework group  C1[X(C7H15N)]
 Deg. of freedom    63
 Full point group                 C1      NOp   1
 Largest Abelian subgroup         C1      NOp   1
 Largest concise Abelian subgroup C1      NOp   1
                         Standard orientation:                         
 ---------------------------------------------------------------------
 Center     Atomic      Atomic             Coordinates (Angstroms)
 Number     Number       Type             X           Y           Z
 ---------------------------------------------------------------------
      1          7           0       -2.989916    0.371834   -0.242822
      2          6           0       -2.028616   -0.591446    0.265425
      3          6           0       -0.596958   -0.248806   -0.200862
      4          6           0       -0.079079    1.097424    0.366747
      5          6           0        1.328835    1.428685   -0.170496
      6          6           0        2.330618    0.293053    0.131695
      7          6           0        1.809950   -1.086650   -0.325941
      8          6           0        0.392115   -1.361100    0.216844
      9          1           0       -2.950125    0.404735   -1.252193
     10          1           0       -2.754000    1.298724    0.082344
     11          1           0       -2.313632   -1.583782   -0.090437
     12          1           0       -2.081649   -0.623119    1.355865
     13          1           0       -0.584110   -0.191548   -1.291630
     14          1           0       -0.766738    1.905840    0.117958
     15          1           0       -0.078058    1.065349    1.457934
     16          1           0        1.684713    2.364246    0.263460
     17          1           0        1.279128    1.593497   -1.248237
     18          1           0        2.524927    0.263770    1.205418
     19          1           0        3.290522    0.505711   -0.341391
     20          1           0        2.494261   -1.870768    0.001571
     21          1           0        1.798998   -1.129777   -1.416437
     22          1           0        0.405500   -1.465845    1.303386
     23          1           0        0.038480   -2.326826   -0.148326
 ---------------------------------------------------------------------
 Rotational constants (GHZ):           3.7640676           1.3109592           1.0552689
 Standard basis: 6-31G(d,p) (6D, 7F)
 There are   195 symmetry adapted cartesian basis functions of A   symmetry.
 There are   195 symmetry adapted basis functions of A   symmetry.
   195 basis functions,   329 primitive gaussians,   195 cartesian basis functions
    32 alpha electrons       32 beta electrons
       nuclear repulsion energy       404.8677416996 Hartrees.
 NAtoms=   23 NActive=   23 NUniq=   23 SFac= 1.00D+00 NAtFMM=   60 NAOKFM=F Big=F
 Integral buffers will be    131072 words long.
 Raffenetti 2 integral format.
 Two-electron integral symmetry is turned on.
 Nuclear repulsion after empirical dispersion term =      404.8315822995 Hartrees.
 One-electron integrals computed using PRISM.
 NBasis=   195 RedAO= T EigKep=  3.15D-03  NBF=   195
 NBsUse=   195 1.00D-06 EigRej= -1.00D+00 NBFU=   195
 ExpMin= 1.61D-01 ExpMax= 4.17D+03 ExpMxC= 6.27D+02 IAcc=3 IRadAn=         5 AccDes= 0.00D+00
 Harris functional with IExCor=  402 and IRadAn=       5 diagonalized for initial guess.
 HarFok:  IExCor=  402 AccDes= 0.00D+00 IRadAn=         5 IDoV= 1 UseB2=F ITyADJ=14
 ICtDFT=  3500011 ScaDFX=  1.000000  1.000000  1.000000  1.000000
 FoFCou: FMM=F IPFlag=           0 FMFlag=      100000 FMFlg1=           0
         NFxFlg=           0 DoJE=T BraDBF=F KetDBF=T FulRan=T
         wScrn=  0.000000 ICntrl=       500 IOpCl=  0 I1Cent=   200000004 NGrid=           0
         NMat0=    1 NMatS0=      1 NMatT0=    0 NMatD0=    1 NMtDS0=    0 NMtDT0=    0
 Petite list used in FoFCou.
 Requested convergence on RMS density matrix=1.00D-08 within 128 cycles.
 Requested convergence on MAX density matrix=1.00D-06.
 Requested convergence on             energy=1.00D-06.
 No special actions if energy rises.
 Integral accuracy reduced to 1.0D-05 until final iterations.
 Initial convergence to 1.0D-05 achieved.  Increase integral accuracy.
 SCF Done:  E(RB3LYP) =  -330.592180298     A.U. after   12 cycles
            NFock= 12  Conv=0.40D-08     -V/T= 2.0098

 **********************************************************************

            Population analysis using the SCF Density.

 **********************************************************************

 Orbital symmetries:
       Occupied  (A) (A) (A) (A) (A) (A) (A) (A) (A) (A) (A) (A)
                 (A) (A) (A) (A) (A) (A) (A) (A) (A) (A) (A) (A)
                 (A) (A) (A) (A) (A) (A) (A) (A)
       Virtual   (A) (A) (A) (A) (A) (A) (A) (A) (A) (A) (A) (A)
                 (A) (A) (A) (A) (A) (A) (A) (A) (A) (A) (A) (A)
                 (A) (A) (A) (A) (A) (A) (A) (A) (A) (A) (A) (A)
                 (A) (A) (A) (A) (A) (A) (A) (A) (A) (A) (A) (A)
                 (A) (A) (A) (A) (A) (A) (A) (A) (A) (A) (A) (A)
                 (A) (A) (A) (A) (A) (A) (A) (A) (A) (A) (A) (A)
                 (A) (A) (A) (A) (A) (A) (A) (A) (A) (A) (A) (A)
                 (A) (A) (A) (A) (A) (A) (A) (A) (A) (A) (A) (A)
                 (A) (A) (A) (A) (A) (A) (A) (A) (A) (A) (A) (A)
                 (A) (A) (A) (A) (A) (A) (A) (A) (A) (A) (A) (A)
                 (A) (A) (A) (A) (A) (A) (A) (A) (A) (A) (A) (A)
                 (A) (A) (A) (A) (A) (A) (A) (A) (A) (A) (A) (A)
                 (A) (A) (A) (A) (A) (A) (A) (A) (A) (A) (A) (A)
                 (A) (A) (A) (A) (A) (A) (A)
 The electronic state is 1-A.
 Alpha  occ. eigenvalues --  -14.30092 -10.19732 -10.17867 -10.17802 -10.17697
 Alpha  occ. eigenvalues --  -10.17576 -10.17556 -10.17296  -0.87904  -0.81963
 Alpha  occ. eigenvalues --   -0.74181  -0.73451  -0.65115  -0.60583  -0.58162
 Alpha  occ. eigenvalues --   -0.55239  -0.48732  -0.47050  -0.43802  -0.43520
 Alpha  occ. eigenvalues --   -0.43115  -0.40974  -0.37941  -0.37177  -0.36967
 Alpha  occ. eigenvalues --   -0.34886  -0.34031  -0.33043  -0.31628  -0.30263
 Alpha  occ. eigenvalues --   -0.29062  -0.22020
 Alpha virt. eigenvalues --    0.07956   0.09750   0.10678   0.11817   0.14027
 Alpha virt. eigenvalues --    0.14208   0.15559   0.16610   0.17831   0.17977
 Alpha virt. eigenvalues --    0.18269   0.18908   0.19202   0.20163   0.21365
 Alpha virt. eigenvalues --    0.23142   0.23929   0.25509   0.26191   0.27161
 Alpha virt. eigenvalues --    0.28925   0.30198   0.31636   0.50542   0.52051
 Alpha virt. eigenvalues --    0.53066   0.53296   0.54729   0.55046   0.57602
 Alpha virt. eigenvalues --    0.62335   0.63360   0.64027   0.66351   0.67262
 Alpha virt. eigenvalues --    0.68831   0.72118   0.72960   0.74334   0.74994
 Alpha virt. eigenvalues --    0.77181   0.79276   0.79676   0.82146   0.84182
 Alpha virt. eigenvalues --    0.84966   0.87465   0.87794   0.88909   0.89966
 Alpha virt. eigenvalues --    0.90635   0.91446   0.92284   0.94048   0.94573
 Alpha virt. eigenvalues --    0.95355   0.95631   0.96824   0.97969   1.02990
 Alpha virt. eigenvalues --    1.11568   1.14343   1.14911   1.26997   1.28679
 Alpha virt. eigenvalues --    1.29746   1.35496   1.39736   1.42155   1.47222
 Alpha virt. eigenvalues --    1.51025   1.57041   1.59159   1.60689   1.61264
 Alpha virt. eigenvalues --    1.63136   1.69741   1.73083   1.75118   1.75900
 Alpha virt. eigenvalues --    1.79997   1.82899   1.84083   1.87290   1.89318
 Alpha virt. eigenvalues --    1.89633   1.92482   1.93607   1.95774   1.98971
 Alpha virt. eigenvalues --    1.99362   2.03953   2.09995   2.11454   2.12176
 Alpha virt. eigenvalues --    2.13066   2.13802   2.16772   2.18006   2.19249
 Alpha virt. eigenvalues --    2.23653   2.24059   2.24835   2.27089   2.30536
 Alpha virt. eigenvalues --    2.31707   2.33346   2.34787   2.35622   2.36829
 Alpha virt. eigenvalues --    2.37305   2.39582   2.42282   2.45245   2.49428
 Alpha virt. eigenvalues --    2.49722   2.53609   2.56656   2.57378   2.62382
 Alpha virt. eigenvalues --    2.62555   2.64696   2.68386   2.70090   2.72690
 Alpha virt. eigenvalues --    2.76022   2.78289   2.81288   2.82595   2.82842
 Alpha virt. eigenvalues --    2.85580   2.87441   2.89021   2.90057   2.92766
 Alpha virt. eigenvalues --    2.93475   2.94973   2.96369   2.98213   3.01525
 Alpha virt. eigenvalues --    3.21881   3.28640   3.31148   3.31822   3.32514
 Alpha virt. eigenvalues --    3.34129   3.35868   3.37987   3.46437   3.48175
 Alpha virt. eigenvalues --    3.49066   3.53724   3.54048   3.59774   3.61181
 Alpha virt. eigenvalues --    4.02558   4.29278   4.41585   4.44271   4.56608
 Alpha virt. eigenvalues --    4.73413   4.74680   4.76756
          Condensed to atoms (all electrons):
               1          2          3          4          5          6
     1  N    6.709463   0.327019  -0.071263  -0.009425   0.000319  -0.000021
     2  C    0.327019   4.820960   0.372672  -0.037505   0.003545   0.000271
     3  C   -0.071263   0.372672   4.990290   0.379268  -0.034441  -0.013802
     4  C   -0.009425  -0.037505   0.379268   4.960397   0.371926  -0.042575
     5  C    0.000319   0.003545  -0.034441   0.371926   4.900983   0.382227
     6  C   -0.000021   0.000271  -0.013802  -0.042575   0.382227   4.899190
     7  C   -0.000145   0.003186  -0.029255  -0.013111  -0.045374   0.383935
     8  C    0.005711  -0.035984   0.342386  -0.043207  -0.012049  -0.044727
     9  H    0.349107  -0.048441  -0.003095  -0.001051  -0.000010  -0.000000
    10  H    0.354505  -0.048062  -0.004279   0.003203  -0.000228   0.000001
    11  H   -0.037486   0.379984  -0.042840   0.004989  -0.000143  -0.000007
    12  H   -0.035794   0.381081  -0.043696  -0.008533   0.000086  -0.000026
    13  H   -0.002621  -0.042964   0.376523  -0.051709  -0.004016  -0.001406
    14  H    0.007386  -0.006749  -0.039326   0.356909  -0.028956   0.004273
    15  H    0.000070  -0.003631  -0.040294   0.377481  -0.036949  -0.004762
    16  H    0.000003  -0.000131   0.004244  -0.032174   0.376352  -0.032716
    17  H    0.000004   0.000056  -0.006607  -0.039029   0.382012  -0.039902
    18  H    0.000000  -0.000019  -0.001145  -0.004304  -0.040169   0.381989
    19  H   -0.000000   0.000005   0.000300   0.004755  -0.032898   0.376307
    20  H    0.000001  -0.000111   0.004058   0.000173   0.004786  -0.032587
    21  H   -0.000002   0.000035  -0.006795  -0.000873  -0.004011  -0.040157
    22  H    0.000008  -0.004720  -0.038665  -0.008294  -0.000526  -0.004815
    23  H    0.000104  -0.005335  -0.037254   0.005651   0.000206   0.004643
               7          8          9         10         11         12
     1  N   -0.000145   0.005711   0.349107   0.354505  -0.037486  -0.035794
     2  C    0.003186  -0.035984  -0.048441  -0.048062   0.379984   0.381081
     3  C   -0.029255   0.342386  -0.003095  -0.004279  -0.042840  -0.043696
     4  C   -0.013111  -0.043207  -0.001051   0.003203   0.004989  -0.008533
     5  C   -0.045374  -0.012049  -0.000010  -0.000228  -0.000143   0.000086
     6  C    0.383935  -0.044727  -0.000000   0.000001  -0.000007  -0.000026
     7  C    4.908817   0.364981  -0.000002   0.000003  -0.000054  -0.000090
     8  C    0.364981   4.964938   0.000106   0.000087  -0.002817  -0.002323
     9  H   -0.000002   0.000106   0.500763  -0.038093  -0.005763   0.006955
    10  H    0.000003   0.000087  -0.038093   0.487845   0.006854  -0.005888
    11  H   -0.000054  -0.002817  -0.005763   0.006854   0.636243  -0.037512
    12  H   -0.000090  -0.002323   0.006955  -0.005888  -0.037512   0.631874
    13  H   -0.005021  -0.044444   0.006590  -0.000266  -0.004074   0.006164
    14  H    0.000075   0.006678   0.001122   0.007724   0.000061   0.000384
    15  H   -0.000683  -0.007431   0.000072   0.000176  -0.000009   0.005065
    16  H    0.004689   0.000209   0.000001   0.000011   0.000003   0.000001
    17  H   -0.004013  -0.000803  -0.000004   0.000010   0.000002   0.000006
    18  H   -0.040054  -0.004159  -0.000000   0.000000   0.000000  -0.000003
    19  H   -0.032764   0.004693  -0.000000  -0.000000  -0.000000  -0.000000
    20  H    0.374000  -0.030582   0.000000   0.000000  -0.000001   0.000007
    21  H    0.382477  -0.038742  -0.000002   0.000000  -0.000005   0.000003
    22  H   -0.037689   0.379324   0.000016   0.000006  -0.000430   0.004309
    23  H   -0.032256   0.374055   0.000006   0.000006   0.006175  -0.000322
              13         14         15         16         17         18
     1  N   -0.002621   0.007386   0.000070   0.000003   0.000004   0.000000
     2  C   -0.042964  -0.006749  -0.003631  -0.000131   0.000056  -0.000019
     3  C    0.376523  -0.039326  -0.040294   0.004244  -0.006607  -0.001145
     4  C   -0.051709   0.356909   0.377481  -0.032174  -0.039029  -0.004304
     5  C   -0.004016  -0.028956  -0.036949   0.376352   0.382012  -0.040169
     6  C   -0.001406   0.004273  -0.004762  -0.032716  -0.039902   0.381989
     7  C   -0.005021   0.000075  -0.000683   0.004689  -0.004013  -0.040054
     8  C   -0.044444   0.006678  -0.007431   0.000209  -0.000803  -0.004159
     9  H    0.006590   0.001122   0.000072   0.000001  -0.000004  -0.000000
    10  H   -0.000266   0.007724   0.000176   0.000011   0.000010   0.000000
    11  H   -0.004074   0.000061  -0.000009   0.000003   0.000002   0.000000
    12  H    0.006164   0.000384   0.005065   0.000001   0.000006  -0.000003
    13  H    0.680109  -0.003656   0.006608  -0.000028   0.005523   0.000190
    14  H   -0.003656   0.675074  -0.043008  -0.002531  -0.004849  -0.000046
    15  H    0.006608  -0.043008   0.646578  -0.004513   0.005965   0.004269
    16  H   -0.000028  -0.002531  -0.004513   0.644884  -0.039081  -0.005767
    17  H    0.005523  -0.004849   0.005965  -0.039081   0.645466   0.006211
    18  H    0.000190  -0.000046   0.004269  -0.005767   0.006211   0.646473
    19  H   -0.000039  -0.000176  -0.000036  -0.001943  -0.005533  -0.038922
    20  H    0.000001   0.000017  -0.000033  -0.000163  -0.000084  -0.005790
    21  H    0.005626  -0.000021   0.000151  -0.000085   0.003958   0.006206
    22  H    0.006661   0.000016   0.005498  -0.000034   0.000150   0.004221
    23  H   -0.004507  -0.000197   0.000012   0.000014  -0.000017  -0.000057
              19         20         21         22         23
     1  N   -0.000000   0.000001  -0.000002   0.000008   0.000104
     2  C    0.000005  -0.000111   0.000035  -0.004720  -0.005335
     3  C    0.000300   0.004058  -0.006795  -0.038665  -0.037254
     4  C    0.004755   0.000173  -0.000873  -0.008294   0.005651
     5  C   -0.032898   0.004786  -0.004011  -0.000526   0.000206
     6  C    0.376307  -0.032587  -0.040157  -0.004815   0.004643
     7  C   -0.032764   0.374000   0.382477  -0.037689  -0.032256
     8  C    0.004693  -0.030582  -0.038742   0.379324   0.374055
     9  H   -0.000000   0.000000  -0.000002   0.000016   0.000006
    10  H   -0.000000   0.000000   0.000000   0.000006   0.000006
    11  H   -0.000000  -0.000001  -0.000005  -0.000430   0.006175
    12  H   -0.000000   0.000007   0.000003   0.004309  -0.000322
    13  H   -0.000039   0.000001   0.005626   0.006661  -0.004507
    14  H   -0.000176   0.000017  -0.000021   0.000016  -0.000197
    15  H   -0.000036  -0.000033   0.000151   0.005498   0.000012
    16  H   -0.001943  -0.000163  -0.000085  -0.000034   0.000014
    17  H   -0.005533  -0.000084   0.003958   0.000150  -0.000017
    18  H   -0.038922  -0.005790   0.006206   0.004221  -0.000057
    19  H    0.646518  -0.002006  -0.005484  -0.000037  -0.000177
    20  H   -0.002006   0.647463  -0.039430  -0.004511  -0.002606
    21  H   -0.005484  -0.039430   0.646590   0.005945  -0.004952
    22  H   -0.000037  -0.004511   0.005945   0.648300  -0.041989
    23  H   -0.000177  -0.002606  -0.004952  -0.041989   0.656189
 Mulliken charges:
               1
     1  N   -0.596944
     2  C   -0.055162
     3  C   -0.056984
     4  C   -0.172962
     5  C   -0.182674
     6  C   -0.175332
     7  C   -0.181651
     8  C   -0.175901
     9  H    0.231724
    10  H    0.236384
    11  H    0.096831
    12  H    0.098254
    13  H    0.070756
    14  H    0.069799
    15  H    0.089404
    16  H    0.088755
    17  H    0.090560
    18  H    0.090875
    19  H    0.087437
    20  H    0.087402
    21  H    0.089567
    22  H    0.087255
    23  H    0.082608
 Sum of Mulliken charges =  -0.00000
 Mulliken charges with hydrogens summed into heavy atoms:
               1
     1  N   -0.128835
     2  C    0.139923
     3  C    0.013771
     4  C   -0.013759
     5  C   -0.003359
     6  C    0.002980
     7  C   -0.004683
     8  C   -0.006038
 Electronic spatial extent (au):  <R**2>=           1193.7781
 Charge=             -0.0000 electrons
 Dipole moment (field-independent basis, Debye):
    X=              1.3081    Y=              0.3989    Z=             -0.4637  Tot=              1.4441
 Quadrupole moment (field-independent basis, Debye-Ang):
   XX=            -60.8174   YY=            -50.7600   ZZ=            -50.1329
   XY=             -0.9302   XZ=              1.6850   YZ=             -0.1147
 Traceless Quadrupole moment (field-independent basis, Debye-Ang):
   XX=             -6.9140   YY=              3.1434   ZZ=              3.7705
   XY=             -0.9302   XZ=              1.6850   YZ=             -0.1147
 Octapole moment (field-independent basis, Debye-Ang**2):
  XXX=             35.9289  YYY=              2.7465  ZZZ=             -2.4232  XYY=             -6.6846
  XXY=              2.5601  XXZ=             -5.8051  XZZ=             -6.5398  YZZ=              0.8717
  YYZ=             -0.1546  XYZ=              0.2911
 Hexadecapole moment (field-independent basis, Debye-Ang**3):
 XXXX=          -1254.0558 YYYY=           -400.1259 ZZZZ=           -125.8184 XXXY=             -5.9760
 XXXZ=             17.9458 YYYX=             -7.7738 YYYZ=              1.5478 ZZZX=              8.0346
 ZZZY=             -1.7454 XXYY=           -231.9316 XXZZ=           -185.8547 YYZZ=            -90.0067
 XXYZ=             -2.4996 YYXZ=              2.7802 ZZXY=             -2.2771
 N-N= 4.048315822995D+02 E-N=-1.574672731360D+03  KE= 3.273965203330D+02
 Calling FoFJK, ICntrl=      2127 FMM=F ISym2X=0 I1Cent= 0 IOpClX= 0 NMat=1 NMatS=1 NMatT=0.
 ***** Axes restored to original set *****
 -------------------------------------------------------------------
 Center     Atomic                   Forces (Hartrees/Bohr)
 Number     Number              X              Y              Z
 -------------------------------------------------------------------
      1        7           0.018099643   -0.000060607    0.005429418
      2        6          -0.013254273   -0.011927310   -0.009489794
      3        6          -0.006998719    0.017426406    0.020896977
      4        6          -0.000213739    0.000071399   -0.010733724
      5        6           0.003239279    0.008802449    0.004731958
      6        6           0.004810554   -0.001047315   -0.004492056
      7        6           0.003097473   -0.003501570    0.009852280
      8        6          -0.004367836   -0.004271609   -0.010184965
      9        1          -0.001288822   -0.000603915   -0.004967254
     10        1          -0.000491551   -0.003741854    0.002575153
     11        1          -0.000021849    0.002573353   -0.001829661
     12        1          -0.000224619   -0.000607150    0.003230267
     13        1           0.001662748   -0.002372216   -0.004699677
     14        1           0.000853903   -0.004785202   -0.003034561
     15        1          -0.001541651    0.005298043    0.003778627
     16        1          -0.001560364   -0.001909892    0.002373068
     17        1           0.001094888   -0.000675275   -0.004509825
     18        1           0.001293191    0.001305560    0.004347294
     19        1          -0.003136477   -0.000669990   -0.001519137
     20        1          -0.002133471    0.002727460    0.000889060
     21        1           0.001212763   -0.001990216   -0.004107136
     22        1          -0.001748873   -0.002108177    0.005826025
     23        1           0.001617802    0.002067628   -0.004362339
 -------------------------------------------------------------------
 Cartesian Forces:  Max     0.020896977 RMS     0.005936756

 GradGradGradGradGradGradGradGradGradGradGradGradGradGradGradGradGradGrad
 Berny optimization.
 FormGI is forming the generalized inverse of G from B-inverse, IUseBI=4.
 Internal  Forces:  Max     0.025390236 RMS     0.003393122
 Search for a local minimum.
 Step number   1 out of a maximum of  138
 All quantities printed in internal units (Hartrees-Bohrs-Radians)
 Mixed Optimization -- RFO/linear search
 Second derivative matrix not updated -- first step.
 ITU=  0
     Eigenvalues ---    0.00230   0.00411   0.00420   0.00545   0.00995
     Eigenvalues ---    0.01761   0.01808   0.03487   0.03589   0.03822
     Eigenvalues ---    0.03966   0.04258   0.04281   0.04487   0.04643
     Eigenvalues ---    0.04723   0.04777   0.05364   0.05365   0.05475
     Eigenvalues ---    0.06028   0.06391   0.08082   0.08095   0.08139
     Eigenvalues ---    0.08144   0.08243   0.08330   0.08440   0.09335
     Eigenvalues ---    0.12088   0.12104   0.12740   0.13906   0.15808
     Eigenvalues ---    0.16000   0.16000   0.17135   0.20910   0.21904
     Eigenvalues ---    0.26465   0.26663   0.27115   0.27959   0.28084
     Eigenvalues ---    0.28152   0.28268   0.34543   0.34561   0.34575
     Eigenvalues ---    0.34621   0.34622   0.34633   0.34651   0.34651
     Eigenvalues ---    0.34658   0.34688   0.34692   0.34699   0.34802
     Eigenvalues ---    0.37894   0.45857   0.45938
 RFO step:  Lambda=-7.57527944D-03 EMin= 2.30000000D-03
 Linear search not attempted -- first point.
 Iteration  1 RMS(Cart)=  0.05515461 RMS(Int)=  0.00152647
 Iteration  2 RMS(Cart)=  0.00226681 RMS(Int)=  0.00022261
 Iteration  3 RMS(Cart)=  0.00000369 RMS(Int)=  0.00022260
 Iteration  4 RMS(Cart)=  0.00000000 RMS(Int)=  0.00022260
 Variable       Old X    -DE/DX   Delta X   Delta X   Delta X     New X
                                 (Linear)    (Quad)   (Total)
    R1        2.74520   0.01118   0.00000   0.02893   0.02893   2.77412
    R2        1.90993   0.00509   0.00000   0.01091   0.01091   1.92084
    R3        1.90901   0.00441   0.00000   0.00945   0.00945   1.91846
    R4        2.91806   0.00035   0.00000   0.00121   0.00121   2.91927
    R5        2.06370   0.00290   0.00000   0.00822   0.00822   2.07192
    R6        2.06394   0.00291   0.00000   0.00823   0.00823   2.07217
    R7        2.92921  -0.00729   0.00000  -0.02366  -0.02375   2.90546
    R8        2.92141  -0.00324   0.00000  -0.00849  -0.00856   2.91286
    R9        2.06423   0.00494   0.00000   0.01401   0.01401   2.07824
   R10        2.91569  -0.00485   0.00000  -0.01702  -0.01700   2.89869
   R11        2.05998   0.00484   0.00000   0.01360   0.01360   2.07358
   R12        2.06294   0.00485   0.00000   0.01370   0.01370   2.07664
   R13        2.91811  -0.00410   0.00000  -0.01698  -0.01691   2.90120
   R14        2.06166   0.00339   0.00000   0.00956   0.00956   2.07122
   R15        2.06245   0.00433   0.00000   0.01222   0.01222   2.07468
   R16        2.91784  -0.00453   0.00000  -0.01772  -0.01764   2.90020
   R17        2.06274   0.00443   0.00000   0.01251   0.01251   2.07526
   R18        2.06184   0.00352   0.00000   0.00992   0.00992   2.07176
   R19        2.91545  -0.00493   0.00000  -0.01660  -0.01662   2.89882
   R20        2.06178   0.00350   0.00000   0.00987   0.00987   2.07165
   R21        2.06245   0.00431   0.00000   0.01216   0.01216   2.07462
   R22        2.06294   0.00462   0.00000   0.01306   0.01306   2.07600
   R23        2.06234   0.00460   0.00000   0.01299   0.01299   2.07533
    A1        1.92297  -0.00164   0.00000  -0.00864  -0.00862   1.91435
    A2        1.91905   0.00183   0.00000   0.01205   0.01206   1.93111
    A3        1.85709   0.00017   0.00000   0.00333   0.00335   1.86044
    A4        1.93985   0.02539   0.00000   0.12010   0.12009   2.05995
    A5        1.89213  -0.00687   0.00000  -0.01658  -0.01674   1.87539
    A6        1.91389  -0.00861   0.00000  -0.03350  -0.03336   1.88053
    A7        1.92325  -0.00776   0.00000  -0.03415  -0.03523   1.88802
    A8        1.93150  -0.00721   0.00000  -0.03260  -0.03290   1.89861
    A9        1.86118   0.00402   0.00000  -0.00891  -0.01043   1.85074
   A10        1.97349  -0.00054   0.00000  -0.00231  -0.00268   1.97081
   A11        1.93043   0.00265   0.00000   0.01986   0.01992   1.95035
   A12        1.90082  -0.00129   0.00000  -0.02383  -0.02399   1.87683
   A13        1.88829  -0.00036   0.00000   0.01814   0.01765   1.90594
   A14        1.89252   0.00002   0.00000  -0.01121  -0.01133   1.88119
   A15        1.87548  -0.00052   0.00000  -0.00099  -0.00071   1.87477
   A16        1.94317   0.00126   0.00000   0.00796   0.00756   1.95073
   A17        1.92810  -0.00018   0.00000   0.00509   0.00526   1.93336
   A18        1.91858  -0.00125   0.00000  -0.02140  -0.02148   1.89710
   A19        1.91446  -0.00049   0.00000  -0.00318  -0.00309   1.91137
   A20        1.93211  -0.00153   0.00000  -0.01978  -0.01984   1.91227
   A21        1.82400   0.00221   0.00000   0.03244   0.03251   1.85651
   A22        1.94544   0.00088   0.00000   0.00588   0.00568   1.95112
   A23        1.92119  -0.00002   0.00000  -0.00141  -0.00137   1.91982
   A24        1.91209  -0.00109   0.00000  -0.00926  -0.00916   1.90292
   A25        1.91898  -0.00072   0.00000  -0.00262  -0.00250   1.91648
   A26        1.91118   0.00024   0.00000  -0.00088  -0.00087   1.91031
   A27        1.85266   0.00069   0.00000   0.00830   0.00827   1.86093
   A28        1.96100  -0.00086   0.00000  -0.01037  -0.01059   1.95041
   A29        1.90467  -0.00001   0.00000   0.00064   0.00066   1.90533
   A30        1.92043   0.00015   0.00000  -0.00145  -0.00139   1.91904
   A31        1.90456   0.00002   0.00000   0.00135   0.00142   1.90598
   A32        1.92018   0.00034   0.00000   0.00025   0.00024   1.92042
   A33        1.84952   0.00043   0.00000   0.01088   0.01085   1.86037
   A34        1.94398  -0.00016   0.00000   0.00228   0.00210   1.94607
   A35        1.91954  -0.00052   0.00000  -0.00235  -0.00229   1.91725
   A36        1.91222   0.00040   0.00000  -0.00245  -0.00245   1.90978
   A37        1.92085   0.00074   0.00000   0.00515   0.00523   1.92608
   A38        1.91269  -0.00096   0.00000  -0.01121  -0.01119   1.90151
   A39        1.85233   0.00053   0.00000   0.00875   0.00875   1.86108
   A40        1.94434   0.00165   0.00000   0.01373   0.01318   1.95752
   A41        1.92389  -0.00119   0.00000  -0.02318  -0.02320   1.90070
   A42        1.91660  -0.00065   0.00000   0.00276   0.00279   1.91939
   A43        1.93475  -0.00202   0.00000  -0.02661  -0.02659   1.90816
   A44        1.91504   0.00018   0.00000   0.00635   0.00642   1.92146
   A45        1.82565   0.00203   0.00000   0.02780   0.02791   1.85356
    D1        1.00443  -0.00018   0.00000  -0.00896  -0.00861   0.99582
    D2       -1.11186  -0.00191   0.00000  -0.03071  -0.03090  -1.14275
    D3       -3.13752   0.00184   0.00000   0.00748   0.00730  -3.13022
    D4       -1.03706  -0.00050   0.00000  -0.01509  -0.01472  -1.05178
    D5        3.12984  -0.00223   0.00000  -0.03683  -0.03701   3.09284
    D6        1.10418   0.00152   0.00000   0.00136   0.00119   1.10537
    D7        1.12746  -0.00113   0.00000  -0.02159  -0.02135   1.10612
    D8       -3.03494  -0.00003   0.00000   0.01476   0.01476  -3.02018
    D9       -0.97760   0.00010   0.00000   0.01074   0.01071  -0.96689
   D10       -3.05777   0.00165   0.00000   0.01317   0.01287  -3.04490
   D11       -0.93699   0.00274   0.00000   0.04952   0.04898  -0.88801
   D12        1.12034   0.00287   0.00000   0.04550   0.04493   1.16528
   D13       -1.00358  -0.00263   0.00000  -0.03894  -0.03838  -1.04196
   D14        1.11720  -0.00153   0.00000  -0.00259  -0.00227   1.11494
   D15       -3.10864  -0.00140   0.00000  -0.00661  -0.00632  -3.11496
   D16       -3.09997   0.00034   0.00000  -0.01170  -0.01174  -3.11171
   D17       -0.96829   0.00046   0.00000  -0.00675  -0.00675  -0.97503
   D18        1.03569   0.00231   0.00000   0.02306   0.02302   1.05872
   D19        1.03886  -0.00242   0.00000  -0.04853  -0.04861   0.99025
   D20       -3.11265  -0.00231   0.00000  -0.04358  -0.04361   3.12693
   D21       -1.10866  -0.00046   0.00000  -0.01377  -0.01384  -1.12251
   D22       -0.99019  -0.00162   0.00000  -0.05108  -0.05105  -1.04124
   D23        1.14150  -0.00151   0.00000  -0.04614  -0.04606   1.09544
   D24       -3.13771   0.00034   0.00000  -0.01633  -0.01629   3.12919
   D25        3.07138   0.00108   0.00000   0.02812   0.02803   3.09942
   D26       -1.05633  -0.00121   0.00000  -0.01293  -0.01306  -1.06939
   D27        0.94611   0.00019   0.00000   0.00906   0.00893   0.95503
   D28       -1.04148   0.00190   0.00000   0.05056   0.05080  -0.99068
   D29        1.11399  -0.00039   0.00000   0.00951   0.00970   1.12370
   D30        3.11643   0.00101   0.00000   0.03150   0.03169  -3.13507
   D31        0.99860   0.00146   0.00000   0.04630   0.04629   1.04489
   D32       -3.12912  -0.00084   0.00000   0.00524   0.00520  -3.12392
   D33       -1.12668   0.00057   0.00000   0.02724   0.02718  -1.09949
   D34       -0.97919   0.00026   0.00000   0.00700   0.00711  -0.97208
   D35       -3.11337   0.00059   0.00000   0.00731   0.00738  -3.10599
   D36        1.13887   0.00040   0.00000   0.00347   0.00351   1.14238
   D37       -3.11873  -0.00002   0.00000  -0.00262  -0.00255  -3.12128
   D38        1.03027   0.00031   0.00000  -0.00230  -0.00227   1.02800
   D39       -1.00067   0.00012   0.00000  -0.00614  -0.00615  -1.00682
   D40        1.16057  -0.00153   0.00000  -0.02880  -0.02872   1.13185
   D41       -0.97361  -0.00121   0.00000  -0.02848  -0.02845  -1.00206
   D42       -3.00455  -0.00140   0.00000  -0.03232  -0.03233  -3.03688
   D43        0.89921  -0.00026   0.00000   0.02440   0.02443   0.92364
   D44       -1.21563   0.00028   0.00000   0.02904   0.02907  -1.18656
   D45        3.04513  -0.00032   0.00000   0.01640   0.01640   3.06153
   D46        3.03466  -0.00019   0.00000   0.02478   0.02479   3.05945
   D47        0.91983   0.00035   0.00000   0.02942   0.02943   0.94926
   D48       -1.10260  -0.00025   0.00000   0.01677   0.01677  -1.08584
   D49       -1.21938   0.00037   0.00000   0.03280   0.03284  -1.18654
   D50        2.94897   0.00091   0.00000   0.03744   0.03748   2.98646
   D51        0.92654   0.00032   0.00000   0.02479   0.02482   0.95136
   D52       -0.90017   0.00052   0.00000  -0.01735  -0.01728  -0.91745
   D53       -3.03459   0.00006   0.00000  -0.02380  -0.02376  -3.05835
   D54        1.21893  -0.00052   0.00000  -0.03161  -0.03161   1.18732
   D55        1.21473  -0.00003   0.00000  -0.02240  -0.02236   1.19236
   D56       -0.91969  -0.00050   0.00000  -0.02884  -0.02885  -0.94854
   D57       -2.94936  -0.00107   0.00000  -0.03666  -0.03669  -2.98605
   D58       -3.04624   0.00068   0.00000  -0.00839  -0.00832  -3.05456
   D59        1.10253   0.00022   0.00000  -0.01484  -0.01481   1.08772
   D60       -0.92714  -0.00035   0.00000  -0.02265  -0.02265  -0.94979
   D61        0.98387  -0.00061   0.00000  -0.01858  -0.01867   0.96520
   D62       -1.16541   0.00121   0.00000   0.02060   0.02054  -1.14488
   D63        3.11005  -0.00020   0.00000  -0.00162  -0.00164   3.10841
   D64        3.11753  -0.00086   0.00000  -0.01646  -0.01650   3.10103
   D65        0.96825   0.00095   0.00000   0.02272   0.02270   0.99095
   D66       -1.03948  -0.00046   0.00000   0.00050   0.00053  -1.03894
   D67       -1.13496  -0.00036   0.00000  -0.00942  -0.00946  -1.14442
   D68        2.99895   0.00145   0.00000   0.02976   0.02975   3.02869
   D69        0.99122   0.00004   0.00000   0.00754   0.00758   0.99880
         Item               Value     Threshold  Converged?
 Maximum Force            0.025390     0.000450     NO 
 RMS     Force            0.003393     0.000300     NO 
 Maximum Displacement     0.334785     0.001800     NO 
 RMS     Displacement     0.055065     0.001200     NO 
 Predicted change in Energy=-4.059664D-03
 GradGradGradGradGradGradGradGradGradGradGradGradGradGradGradGradGradGrad

                          Input orientation:                          
 ---------------------------------------------------------------------
 Center     Atomic      Atomic             Coordinates (Angstroms)
 Number     Number       Type             X           Y           Z
 ---------------------------------------------------------------------
      1          7           0        3.553236   -0.379800    0.829677
      2          6           0        2.702126    0.787418    1.090916
      3          6           0        1.190139    0.663031    0.799595
      4          6           0        0.495811   -0.390593    1.678060
      5          6           0       -0.994205   -0.522111    1.338259
      6          6           0       -1.723390    0.824957    1.441626
      7          6           0       -1.026621    1.913759    0.614343
      8          6           0        0.464800    2.013747    0.959012
      9          1           0        3.458671   -0.661826   -0.142290
     10          1           0        3.256961   -1.171753    1.391526
     11          1           0        3.097023    1.621443    0.498817
     12          1           0        2.837091    1.071059    2.141506
     13          1           0        1.079323    0.351676   -0.249331
     14          1           0        0.983471   -1.367883    1.572492
     15          1           0        0.608703   -0.100351    2.731919
     16          1           0       -1.467478   -1.252672    2.004296
     17          1           0       -1.095390   -0.915304    0.318219
     18          1           0       -1.757029    1.136926    2.494024
     19          1           0       -2.763893    0.713180    1.114838
     20          1           0       -1.521132    2.878541    0.777027
     21          1           0       -1.130947    1.683376   -0.453970
     22          1           0        0.575999    2.357126    1.996599
     23          1           0        0.946930    2.774855    0.331040
 ---------------------------------------------------------------------
                    Distance matrix (angstroms):
                    1          2          3          4          5
     1  N    0.000000
     2  C    1.468003   0.000000
     3  C    2.583144   1.544813   0.000000
     4  C    3.172967   2.569100   1.537503   0.000000
     5  C    4.578005   3.929237   2.542848   1.533919   0.000000
     6  C    5.446898   4.439549   2.987820   2.541321   1.535248
     7  C    5.126584   3.924196   2.551991   2.959616   2.541371
     8  C    3.909506   2.554782   1.541417   2.509750   2.950102
     9  H    1.016465   2.047795   2.790812   3.487948   4.694640
    10  H    1.015206   2.058290   2.826406   2.883793   4.300846
    11  H    2.079079   1.096413   2.155280   3.493596   4.694426
    12  H    2.082967   1.096544   2.163254   2.798714   4.226372
    13  H    2.796347   2.149330   1.099758   2.146226   2.753809
    14  H    2.851626   2.798395   2.182818   1.097293   2.163654
    15  H    3.516659   2.804184   2.157474   1.098910   2.165521
    16  H    5.229646   4.730943   3.490580   2.168896   1.096044
    17  H    4.707237   4.232901   2.818955   2.157871   1.097871
    18  H    5.767965   4.687743   3.432414   2.841549   2.161040
    19  H    6.417323   5.466575   3.966895   3.487291   2.169713
    20  H    6.030652   4.723053   3.501426   3.945524   3.486699
    21  H    5.276932   4.228695   2.828421   3.390169   2.845164
    22  H    4.209087   2.793682   2.163318   2.767284   3.344990
    23  H    4.122295   2.758266   2.176808   3.469587   3.956321
                    6          7          8          9         10
     6  C    0.000000
     7  C    1.534722   0.000000
     8  C    2.536594   1.533991   0.000000
     9  H    5.618991   5.227234   4.163511   0.000000
    10  H    5.365934   5.336053   4.258009   1.628897   0.000000
    11  H    4.975908   4.135606   2.700793   2.398984   2.936742
    12  H    4.620431   4.239179   2.813311   2.933425   2.401868
    13  H    3.307345   2.760623   2.144811   2.588424   3.123356
    14  H    3.486082   3.965815   3.475745   3.092832   2.289098
    15  H    2.821295   3.348887   2.762846   4.086398   3.155602
    16  H    2.167632   3.486059   3.936472   5.405911   4.764698
    17  H    2.164471   2.845350   3.379963   4.584298   4.490068
    18  H    1.098179   2.161057   2.839296   6.114670   5.628996
    19  H    1.096326   2.170253   3.484281   6.495484   6.315077
    20  H    2.167904   1.096272   2.173686   6.178817   6.293859
    21  H    2.163598   1.097840   2.156866   5.163498   5.550797
    22  H    2.818285   2.162313   1.098572   4.690279   4.472880
    23  H    3.487995   2.171785   1.098218   4.282950   4.694314
                   11         12         13         14         15
    11  H    0.000000
    12  H    1.751832   0.000000
    13  H    2.498629   3.053418   0.000000
    14  H    3.815226   3.115786   2.507012   0.000000
    15  H    3.760726   2.585827   3.051829   1.758225   0.000000
    16  H    5.600149   4.893655   3.760181   2.491361   2.483506
    17  H    4.903472   4.768063   2.580064   2.469756   3.064967
    18  H    5.270430   4.608096   4.023370   3.825393   2.680324
    19  H    5.962781   5.705536   4.094136   4.310801   3.827686
    20  H    4.794273   4.911507   3.768398   4.993788   4.151096
    21  H    4.334440   4.780874   2.588551   4.229362   4.044497
    22  H    3.023267   2.605283   3.052764   3.771153   2.565339
    23  H    2.445692   3.123046   2.495227   4.324906   3.761040
                   16         17         18         19         20
    16  H    0.000000
    17  H    1.759295   0.000000
    18  H    2.456390   3.063256   0.000000
    19  H    2.517221   2.463831   1.759400   0.000000
    20  H    4.309987   3.845129   2.457021   2.519397   0.000000
    21  H    3.844048   2.711214   3.062884   2.463524   1.759550
    22  H    4.148072   4.039716   2.679430   3.825564   2.481368
    23  H    4.984989   4.217642   3.830497   4.316833   2.510176
                   21         22         23
    21  H    0.000000
    22  H    3.061518   0.000000
    23  H    2.474902   1.756750   0.000000
 Stoichiometry    C7H15N
 Framework group  C1[X(C7H15N)]
 Deg. of freedom    63
 Full point group                 C1      NOp   1
 Largest Abelian subgroup         C1      NOp   1
 Largest concise Abelian subgroup C1      NOp   1
                         Standard orientation:                         
 ---------------------------------------------------------------------
 Center     Atomic      Atomic             Coordinates (Angstroms)
 Number     Number       Type             X           Y           Z
 ---------------------------------------------------------------------
      1          7           0       -3.094876    0.326719   -0.194094
      2          6           0       -2.015061   -0.562072    0.252093
      3          6           0       -0.575407   -0.243109   -0.208456
      4          6           0       -0.062565    1.106253    0.320817
      5          6           0        1.351704    1.415752   -0.186099
      6          6           0        2.340243    0.294010    0.162426
      7          6           0        1.834656   -1.076290   -0.308778
      8          6           0        0.412944   -1.354849    0.195474
      9          1           0       -3.108161    0.366232   -1.209704
     10          1           0       -2.935138    1.275136    0.130916
     11          1           0       -2.264399   -1.576016   -0.082378
     12          1           0       -2.036991   -0.590579    1.348047
     13          1           0       -0.582573   -0.192225   -1.307013
     14          1           0       -0.740830    1.919848    0.034334
     15          1           0       -0.061410    1.076305    1.419318
     16          1           0        1.702203    2.364280    0.236698
     17          1           0        1.320188    1.549965   -1.275280
     18          1           0        2.489045    0.269636    1.250205
     19          1           0        3.319316    0.506463   -0.282783
     20          1           0        2.520016   -1.862318    0.029236
     21          1           0        1.836379   -1.108437   -1.406146
     22          1           0        0.425573   -1.439103    1.290737
     23          1           0        0.061829   -2.324393   -0.182396
 ---------------------------------------------------------------------
 Rotational constants (GHZ):           3.8455438           1.2726062           1.0324437
 Standard basis: 6-31G(d,p) (6D, 7F)
 There are   195 symmetry adapted cartesian basis functions of A   symmetry.
 There are   195 symmetry adapted basis functions of A   symmetry.
   195 basis functions,   329 primitive gaussians,   195 cartesian basis functions
    32 alpha electrons       32 beta electrons
       nuclear repulsion energy       403.5882810600 Hartrees.
 NAtoms=   23 NActive=   23 NUniq=   23 SFac= 1.00D+00 NAtFMM=   60 NAOKFM=F Big=F
 Integral buffers will be    131072 words long.
 Raffenetti 2 integral format.
 Two-electron integral symmetry is turned on.
 Nuclear repulsion after empirical dispersion term =      403.5523089372 Hartrees.
 One-electron integrals computed using PRISM.
 NBasis=   195 RedAO= T EigKep=  3.22D-03  NBF=   195
 NBsUse=   195 1.00D-06 EigRej= -1.00D+00 NBFU=   195
 Initial guess from the checkpoint file:  "N2_conf-1.chk"
 B after Tr=    -0.000000   -0.000000   -0.000000
         Rot=    0.999990    0.003403   -0.001193   -0.002578 Ang=   0.51 deg.
 ExpMin= 1.61D-01 ExpMax= 4.17D+03 ExpMxC= 6.27D+02 IAcc=3 IRadAn=         5 AccDes= 0.00D+00
 Harris functional with IExCor=  402 and IRadAn=       5 diagonalized for initial guess.
 HarFok:  IExCor=  402 AccDes= 0.00D+00 IRadAn=         5 IDoV= 1 UseB2=F ITyADJ=14
 ICtDFT=  3500011 ScaDFX=  1.000000  1.000000  1.000000  1.000000
 FoFCou: FMM=F IPFlag=           0 FMFlag=      100000 FMFlg1=           0
         NFxFlg=           0 DoJE=T BraDBF=F KetDBF=T FulRan=T
         wScrn=  0.000000 ICntrl=       500 IOpCl=  0 I1Cent=   200000004 NGrid=           0
         NMat0=    1 NMatS0=      1 NMatT0=    0 NMatD0=    1 NMtDS0=    0 NMtDT0=    0
 Petite list used in FoFCou.
 Requested convergence on RMS density matrix=1.00D-08 within 128 cycles.
 Requested convergence on MAX density matrix=1.00D-06.
 Requested convergence on             energy=1.00D-06.
 No special actions if energy rises.
 Integral accuracy reduced to 1.0D-05 until final iterations.
 Initial convergence to 1.0D-05 achieved.  Increase integral accuracy.
 SCF Done:  E(RB3LYP) =  -330.595549579     A.U. after   11 cycles
            NFock= 11  Conv=0.27D-08     -V/T= 2.0100
 Calling FoFJK, ICntrl=      2127 FMM=F ISym2X=0 I1Cent= 0 IOpClX= 0 NMat=1 NMatS=1 NMatT=0.
 ***** Axes restored to original set *****
 -------------------------------------------------------------------
 Center     Atomic                   Forces (Hartrees/Bohr)
 Number     Number              X              Y              Z
 -------------------------------------------------------------------
      1        7          -0.001903876    0.003851664    0.000442943
      2        6          -0.001450253    0.000019259   -0.000386666
      3        6          -0.000240583   -0.000298206    0.002303942
      4        6           0.000900260   -0.000935141   -0.001531655
      5        6          -0.000501697    0.000564786    0.001747239
      6        6          -0.000148235   -0.000642544   -0.001350962
      7        6           0.000227379   -0.000801517    0.001214224
      8        6           0.002939352    0.000385234   -0.001401019
      9        1          -0.000630712   -0.000848104   -0.000831545
     10        1          -0.001159263   -0.000778400    0.000662899
     11        1           0.000689126    0.000325054   -0.000253824
     12        1           0.000222116    0.000028236    0.001136621
     13        1           0.000185407   -0.000812791   -0.001835015
     14        1           0.000643091    0.000463475   -0.000609755
     15        1          -0.000075035    0.000487109    0.000687481
     16        1          -0.000166447   -0.000563179   -0.000371122
     17        1          -0.000058181    0.000160228   -0.000613203
     18        1           0.000517067    0.000105678    0.000353207
     19        1          -0.000197220    0.000177969    0.000566348
     20        1           0.000453627    0.000238835   -0.000475584
     21        1          -0.000233569   -0.000426319   -0.000458056
     22        1           0.000163023   -0.000133870    0.000917361
     23        1          -0.000175377   -0.000567458    0.000086141
 -------------------------------------------------------------------
 Cartesian Forces:  Max     0.003851664 RMS     0.000970766

 GradGradGradGradGradGradGradGradGradGradGradGradGradGradGradGradGradGrad
 Berny optimization.
 Using GEDIIS/GDIIS optimizer.
 FormGI is forming the generalized inverse of G from B-inverse, IUseBI=4.
 Internal  Forces:  Max     0.004475017 RMS     0.000858491
 Search for a local minimum.
 Step number   2 out of a maximum of  138
 All quantities printed in internal units (Hartrees-Bohrs-Radians)
 Mixed Optimization -- En-DIIS/RFO-DIIS
 Update second derivatives using D2CorX and points    1    2
 DE= -3.37D-03 DEPred=-4.06D-03 R= 8.30D-01
 TightC=F SS=  1.41D+00  RLast= 2.72D-01 DXNew= 5.0454D-01 8.1695D-01
 Trust test= 8.30D-01 RLast= 2.72D-01 DXMaxT set to 5.05D-01
 ITU=  1  0
 Use linear search instead of GDIIS.
     Eigenvalues ---    0.00231   0.00414   0.00416   0.00525   0.00995
     Eigenvalues ---    0.01758   0.01793   0.03435   0.03563   0.03606
     Eigenvalues ---    0.03780   0.03974   0.04378   0.04458   0.04693
     Eigenvalues ---    0.04732   0.04768   0.05400   0.05426   0.05507
     Eigenvalues ---    0.05940   0.06412   0.08077   0.08122   0.08127
     Eigenvalues ---    0.08134   0.08198   0.08347   0.08518   0.10313
     Eigenvalues ---    0.12070   0.12121   0.13418   0.14087   0.15984
     Eigenvalues ---    0.15993   0.16115   0.17371   0.20844   0.23904
     Eigenvalues ---    0.26445   0.26871   0.27137   0.27484   0.28054
     Eigenvalues ---    0.28191   0.29239   0.33756   0.34556   0.34574
     Eigenvalues ---    0.34606   0.34622   0.34634   0.34645   0.34651
     Eigenvalues ---    0.34677   0.34690   0.34697   0.34751   0.34867
     Eigenvalues ---    0.39555   0.45635   0.45910
 RFO step:  Lambda=-6.43029362D-04 EMin= 2.30637896D-03
 Quartic linear search produced a step of -0.08010.
 Iteration  1 RMS(Cart)=  0.04274881 RMS(Int)=  0.00066026
 Iteration  2 RMS(Cart)=  0.00101994 RMS(Int)=  0.00005533
 Iteration  3 RMS(Cart)=  0.00000053 RMS(Int)=  0.00005533
 Variable       Old X    -DE/DX   Delta X   Delta X   Delta X     New X
                                 (Linear)    (Quad)   (Total)
    R1        2.77412  -0.00396  -0.00232  -0.00559  -0.00790   2.76622
    R2        1.92084   0.00109  -0.00087   0.00368   0.00280   1.92364
    R3        1.91846   0.00131  -0.00076   0.00392   0.00317   1.92163
    R4        2.91927  -0.00379  -0.00010  -0.01215  -0.01224   2.90703
    R5        2.07192   0.00063  -0.00066   0.00280   0.00215   2.07407
    R6        2.07217   0.00113  -0.00066   0.00412   0.00346   2.07563
    R7        2.90546  -0.00143   0.00190  -0.00514  -0.00321   2.90225
    R8        2.91286  -0.00295   0.00069  -0.00864  -0.00797   2.90489
    R9        2.07824   0.00196  -0.00112   0.00713   0.00601   2.08425
   R10        2.89869   0.00011   0.00136  -0.00173  -0.00039   2.89829
   R11        2.07358  -0.00007  -0.00109   0.00169   0.00060   2.07419
   R12        2.07664   0.00078  -0.00110   0.00395   0.00285   2.07949
   R13        2.90120  -0.00022   0.00135  -0.00525  -0.00389   2.89731
   R14        2.07122   0.00022  -0.00077   0.00190   0.00113   2.07236
   R15        2.07468   0.00052  -0.00098   0.00306   0.00208   2.07675
   R16        2.90020   0.00050   0.00141  -0.00363  -0.00224   2.89797
   R17        2.07526   0.00035  -0.00100   0.00265   0.00165   2.07691
   R18        2.07176   0.00000  -0.00079   0.00137   0.00057   2.07233
   R19        2.89882  -0.00007   0.00133  -0.00270  -0.00135   2.89748
   R20        2.07165  -0.00006  -0.00079   0.00119   0.00040   2.07205
   R21        2.07462   0.00056  -0.00097   0.00315   0.00218   2.07679
   R22        2.07600   0.00084  -0.00105   0.00403   0.00298   2.07898
   R23        2.07533  -0.00052  -0.00104   0.00042  -0.00062   2.07471
    A1        1.91435   0.00017   0.00069  -0.00313  -0.00247   1.91188
    A2        1.93111  -0.00132  -0.00097  -0.00872  -0.00972   1.92140
    A3        1.86044  -0.00003  -0.00027  -0.00557  -0.00591   1.85453
    A4        2.05995  -0.00448  -0.00962  -0.00388  -0.01351   2.04643
    A5        1.87539   0.00128   0.00134   0.00351   0.00491   1.88030
    A6        1.88053   0.00106   0.00267  -0.00593  -0.00332   1.87721
    A7        1.88802   0.00164   0.00282   0.00560   0.00852   1.89654
    A8        1.89861   0.00135   0.00264  -0.00105   0.00153   1.90014
    A9        1.85074  -0.00054   0.00084   0.00246   0.00340   1.85414
   A10        1.97081  -0.00046   0.00021  -0.00956  -0.00922   1.96159
   A11        1.95035  -0.00145  -0.00160  -0.00941  -0.01088   1.93947
   A12        1.87683   0.00067   0.00192  -0.00137   0.00054   1.87738
   A13        1.90594   0.00152  -0.00141   0.01725   0.01569   1.92163
   A14        1.88119  -0.00052   0.00091  -0.00225  -0.00141   1.87978
   A15        1.87477   0.00028   0.00006   0.00591   0.00589   1.88066
   A16        1.95073  -0.00004  -0.00061   0.00615   0.00536   1.95609
   A17        1.93336  -0.00061  -0.00042  -0.00680  -0.00720   1.92616
   A18        1.89710  -0.00001   0.00172  -0.00532  -0.00351   1.89359
   A19        1.91137   0.00068   0.00025   0.00502   0.00538   1.91675
   A20        1.91227  -0.00022   0.00159  -0.00615  -0.00451   1.90776
   A21        1.85651   0.00020  -0.00260   0.00696   0.00430   1.86081
   A22        1.95112  -0.00063  -0.00045  -0.00545  -0.00610   1.94502
   A23        1.91982   0.00014   0.00011   0.00433   0.00455   1.92437
   A24        1.90292   0.00033   0.00073  -0.00168  -0.00097   1.90195
   A25        1.91648   0.00065   0.00020   0.00642   0.00666   1.92314
   A26        1.91031  -0.00030   0.00007  -0.00413  -0.00401   1.90630
   A27        1.86093  -0.00019  -0.00066   0.00070   0.00002   1.86095
   A28        1.95041  -0.00033   0.00085  -0.00916  -0.00847   1.94194
   A29        1.90533   0.00012  -0.00005  -0.00127  -0.00131   1.90402
   A30        1.91904   0.00009   0.00011   0.00477   0.00493   1.92397
   A31        1.90598   0.00003  -0.00011  -0.00116  -0.00131   1.90467
   A32        1.92042   0.00017  -0.00002   0.00489   0.00497   1.92539
   A33        1.86037  -0.00008  -0.00087   0.00242   0.00153   1.86190
   A34        1.94607   0.00041  -0.00017  -0.00086  -0.00124   1.94484
   A35        1.91725   0.00049   0.00018   0.00556   0.00583   1.92308
   A36        1.90978  -0.00055   0.00020  -0.00351  -0.00327   1.90650
   A37        1.92608  -0.00077  -0.00042  -0.00226  -0.00262   1.92346
   A38        1.90151   0.00038   0.00090   0.00050   0.00145   1.90296
   A39        1.86108   0.00002  -0.00070   0.00056  -0.00017   1.86091
   A40        1.95752  -0.00085  -0.00106  -0.00051  -0.00172   1.95579
   A41        1.90070   0.00004   0.00186  -0.00607  -0.00418   1.89652
   A42        1.91939   0.00015  -0.00022   0.00030   0.00015   1.91954
   A43        1.90816   0.00006   0.00213  -0.00413  -0.00197   1.90619
   A44        1.92146   0.00061  -0.00051   0.00374   0.00329   1.92475
   A45        1.85356   0.00003  -0.00224   0.00692   0.00465   1.85820
    D1        0.99582  -0.00025   0.00069  -0.01166  -0.01100   0.98482
    D2       -1.14275  -0.00031   0.00247  -0.01931  -0.01680  -1.15956
    D3       -3.13022  -0.00083  -0.00058  -0.02099  -0.02152   3.13145
    D4       -1.05178   0.00048   0.00118   0.00228   0.00338  -1.04839
    D5        3.09284   0.00042   0.00296  -0.00537  -0.00241   3.09042
    D6        1.10537  -0.00010  -0.00010  -0.00706  -0.00713   1.09824
    D7        1.10612  -0.00072   0.00171  -0.06353  -0.06183   1.04429
    D8       -3.02018  -0.00017  -0.00118  -0.05520  -0.05637  -3.07655
    D9       -0.96689  -0.00024  -0.00086  -0.05418  -0.05502  -1.02191
   D10       -3.04490  -0.00087  -0.00103  -0.05694  -0.05796  -3.10287
   D11       -0.88801  -0.00032  -0.00392  -0.04861  -0.05251  -0.94052
   D12        1.16528  -0.00039  -0.00360  -0.04759  -0.05116   1.11412
   D13       -1.04196   0.00006   0.00307  -0.05164  -0.04861  -1.09057
   D14        1.11494   0.00060   0.00018  -0.04331  -0.04316   1.07178
   D15       -3.11496   0.00053   0.00051  -0.04230  -0.04181   3.12641
   D16       -3.11171  -0.00073   0.00094  -0.03882  -0.03792   3.13355
   D17       -0.97503  -0.00032   0.00054  -0.03288  -0.03240  -1.00743
   D18        1.05872  -0.00042  -0.00184  -0.03147  -0.03332   1.02540
   D19        0.99025   0.00034   0.00389  -0.03276  -0.02893   0.96132
   D20        3.12693   0.00075   0.00349  -0.02683  -0.02340   3.10352
   D21       -1.12251   0.00064   0.00111  -0.02542  -0.02433  -1.14683
   D22       -1.04124  -0.00052   0.00409  -0.04769  -0.04361  -1.08485
   D23        1.09544  -0.00011   0.00369  -0.04176  -0.03809   1.05735
   D24        3.12919  -0.00021   0.00130  -0.04035  -0.03901   3.09018
   D25        3.09942   0.00072  -0.00225   0.03949   0.03727   3.13669
   D26       -1.06939   0.00028   0.00105   0.02982   0.03086  -1.03853
   D27        0.95503   0.00042  -0.00071   0.03483   0.03414   0.98917
   D28       -0.99068   0.00021  -0.00407   0.03319   0.02910  -0.96158
   D29        1.12370  -0.00023  -0.00078   0.02351   0.02269   1.14639
   D30       -3.13507  -0.00008  -0.00254   0.02853   0.02597  -3.10910
   D31        1.04489   0.00056  -0.00371   0.04283   0.03915   1.08405
   D32       -3.12392   0.00011  -0.00042   0.03315   0.03274  -3.09117
   D33       -1.09949   0.00026  -0.00218   0.03817   0.03602  -1.06347
   D34       -0.97208   0.00041  -0.00057   0.00670   0.00613  -0.96595
   D35       -3.10599  -0.00010  -0.00059  -0.00080  -0.00139  -3.10737
   D36        1.14238  -0.00015  -0.00028  -0.00313  -0.00343   1.13895
   D37       -3.12128   0.00073   0.00020   0.00761   0.00780  -3.11348
   D38        1.02800   0.00022   0.00018   0.00010   0.00029   1.02829
   D39       -1.00682   0.00017   0.00049  -0.00222  -0.00175  -1.00857
   D40        1.13185   0.00022   0.00230  -0.00013   0.00213   1.13398
   D41       -1.00206  -0.00028   0.00228  -0.00764  -0.00538  -1.00744
   D42       -3.03688  -0.00033   0.00259  -0.00997  -0.00742  -3.04430
   D43        0.92364  -0.00003  -0.00196   0.02796   0.02592   0.94956
   D44       -1.18656   0.00006  -0.00233   0.03618   0.03382  -1.15274
   D45        3.06153   0.00003  -0.00131   0.03128   0.02991   3.09145
   D46        3.05945   0.00018  -0.00199   0.03427   0.03222   3.09168
   D47        0.94926   0.00027  -0.00236   0.04249   0.04012   0.98938
   D48       -1.08584   0.00024  -0.00134   0.03759   0.03622  -1.04962
[...]
   Eigenvalues:    25.3332    28.2590    37.0993
     21  H    Isotropic =    30.7295   Anisotropy =     8.5747
   XX=    29.5241   YX=    -0.3220   ZX=    -3.2449
   XY=    -0.2813   YY=    28.5700   ZY=     3.1899
   XZ=    -2.5508   YZ=     2.5413   ZZ=    34.0943
   Eigenvalues:    26.9169    28.8256    36.4460
     22  H    Isotropic =    31.1996   Anisotropy =     6.8181
   XX=    30.5989   YX=    -0.3628   ZX=    -0.6491
   XY=    -0.1895   YY=    29.6792   ZY=    -4.2016
   XZ=     0.1246   YZ=    -3.4655   ZZ=    33.3207
   Eigenvalues:    27.2147    30.6391    35.7450
     23  H    Isotropic =    30.4107   Anisotropy =     8.2041
   XX=    30.1588   YX=     1.2590   ZX=     0.0925
   XY=     1.5225   YY=    35.0850   ZY=     2.0923
   XZ=     0.0123   YZ=     2.1346   ZZ=    25.9882
   Eigenvalues:    25.5073    29.8447    35.8801
 End of Minotr F.D. properties file   721 does not exist.
 End of Minotr F.D. properties file   722 does not exist.
 End of Minotr F.D. properties file   788 does not exist.

 **********************************************************************

            Population analysis using the SCF Density.

 **********************************************************************

 Orbital symmetries:
       Occupied  (A) (A) (A) (A) (A) (A) (A) (A) (A) (A) (A) (A)
                 (A) (A) (A) (A) (A) (A) (A) (A) (A) (A) (A) (A)
                 (A) (A) (A) (A) (A) (A) (A) (A)
       Virtual   (A) (A) (A) (A) (A) (A) (A) (A) (A) (A) (A) (A)
                 (A) (A) (A) (A) (A) (A) (A) (A) (A) (A) (A) (A)
                 (A) (A) (A) (A) (A) (A) (A) (A) (A) (A) (A) (A)
                 (A) (A) (A) (A) (A) (A) (A) (A) (A) (A) (A) (A)
                 (A) (A) (A) (A) (A) (A) (A) (A) (A) (A) (A) (A)
                 (A) (A) (A) (A) (A) (A) (A) (A) (A) (A) (A) (A)
                 (A) (A) (A) (A) (A) (A) (A) (A) (A) (A) (A) (A)
                 (A) (A) (A) (A) (A) (A) (A) (A) (A) (A) (A) (A)
                 (A) (A) (A) (A) (A) (A) (A) (A) (A) (A) (A) (A)
                 (A) (A) (A) (A) (A) (A) (A) (A) (A) (A) (A) (A)
                 (A) (A) (A) (A) (A) (A) (A) (A) (A) (A) (A) (A)
                 (A) (A) (A) (A) (A) (A) (A) (A) (A) (A) (A) (A)
                 (A) (A) (A) (A) (A) (A) (A) (A) (A) (A) (A) (A)
                 (A) (A) (A) (A) (A) (A) (A) (A) (A) (A) (A) (A)
                 (A) (A) (A) (A) (A) (A) (A) (A) (A) (A) (A) (A)
                 (A) (A) (A) (A) (A) (A) (A) (A) (A) (A) (A) (A)
                 (A) (A) (A) (A) (A) (A) (A) (A) (A) (A) (A) (A)
                 (A) (A) (A) (A) (A) (A) (A) (A) (A) (A) (A) (A)
                 (A) (A) (A) (A) (A) (A) (A) (A) (A) (A) (A) (A)
                 (A) (A) (A) (A) (A) (A) (A) (A) (A) (A) (A) (A)
                 (A) (A) (A) (A) (A) (A) (A) (A) (A) (A) (A) (A)
                 (A) (A) (A) (A) (A) (A) (A) (A) (A) (A) (A) (A)
                 (A) (A) (A) (A) (A) (A) (A) (A) (A) (A) (A) (A)
                 (A) (A) (A) (A) (A) (A) (A) (A) (A) (A) (A) (A)
                 (A) (A) (A) (A) (A) (A) (A) (A) (A) (A) (A) (A)
                 (A) (A) (A) (A) (A) (A)
 The electronic state is 1-A.
 Alpha  occ. eigenvalues --  -14.72244 -10.55207 -10.53233 -10.52911 -10.52863
 Alpha  occ. eigenvalues --  -10.52840 -10.52787 -10.52765  -0.98575  -0.92905
 Alpha  occ. eigenvalues --   -0.84487  -0.83455  -0.74246  -0.69247  -0.66521
 Alpha  occ. eigenvalues --   -0.63260  -0.56301  -0.54775  -0.51121  -0.50863
 Alpha  occ. eigenvalues --   -0.50449  -0.47847  -0.45068  -0.43964  -0.43496
 Alpha  occ. eigenvalues --   -0.41256  -0.40119  -0.38910  -0.37488  -0.36601
 Alpha  occ. eigenvalues --   -0.35101  -0.30086
 Alpha virt. eigenvalues --    0.06002   0.07432   0.07851   0.08851   0.10966
 Alpha virt. eigenvalues --    0.11628   0.12577   0.13184   0.14075   0.15168
 Alpha virt. eigenvalues --    0.15420   0.15755   0.16166   0.17797   0.18630
 Alpha virt. eigenvalues --    0.19519   0.22126   0.22643   0.22828   0.24343
 Alpha virt. eigenvalues --    0.25566   0.26058   0.26479   0.28070   0.28714
 Alpha virt. eigenvalues --    0.29430   0.30415   0.31777   0.33552   0.34059
 Alpha virt. eigenvalues --    0.36034   0.36416   0.37829   0.39492   0.40697
 Alpha virt. eigenvalues --    0.41512   0.42548   0.43658   0.44576   0.45138
 Alpha virt. eigenvalues --    0.45850   0.46727   0.46795   0.47162   0.47355
 Alpha virt. eigenvalues --    0.48328   0.48741   0.49533   0.50609   0.50920
 Alpha virt. eigenvalues --    0.51562   0.51670   0.52690   0.53560   0.53960
 Alpha virt. eigenvalues --    0.55485   0.56675   0.57643   0.59574   0.61083
 Alpha virt. eigenvalues --    0.62899   0.64831   0.65678   0.68156   0.71283
 Alpha virt. eigenvalues --    0.73391   0.74787   0.76525   0.79751   0.82137
 Alpha virt. eigenvalues --    0.82301   0.83590   0.84315   0.86175   0.87779
 Alpha virt. eigenvalues --    0.90739   0.91157   0.92080   0.93812   0.95661
 Alpha virt. eigenvalues --    0.98848   0.99701   1.02123   1.04786   1.05871
 Alpha virt. eigenvalues --    1.09308   1.10261   1.12187   1.13557   1.15840
 Alpha virt. eigenvalues --    1.17417   1.18369   1.20326   1.21243   1.22400
 Alpha virt. eigenvalues --    1.23362   1.25990   1.28242   1.29091   1.31062
 Alpha virt. eigenvalues --    1.32377   1.32899   1.35275   1.36729   1.38862
 Alpha virt. eigenvalues --    1.40699   1.43671   1.45517   1.48072   1.51345
 Alpha virt. eigenvalues --    1.52601   1.56128   1.58744   1.60523   1.63048
 Alpha virt. eigenvalues --    1.63557   1.65428   1.65773   1.67044   1.68210
 Alpha virt. eigenvalues --    1.69940   1.70897   1.71843   1.75071   1.75865
 Alpha virt. eigenvalues --    1.76768   1.78846   1.80769   1.81555   1.82916
 Alpha virt. eigenvalues --    1.87404   1.89090   1.89354   1.90814   1.93147
 Alpha virt. eigenvalues --    1.94663   1.95322   1.99800   2.00969   2.01719
 Alpha virt. eigenvalues --    2.02765   2.04382   2.04692   2.06587   2.07332
 Alpha virt. eigenvalues --    2.10580   2.11875   2.12890   2.15892   2.18114
 Alpha virt. eigenvalues --    2.20158   2.21804   2.23061   2.26494   2.29489
 Alpha virt. eigenvalues --    2.30713   2.31635   2.36027   2.37741   2.41112
 Alpha virt. eigenvalues --    2.42231   2.44579   2.45244   2.46998   2.49459
 Alpha virt. eigenvalues --    2.49707   2.50605   2.52452   2.53635   2.54850
 Alpha virt. eigenvalues --    2.55712   2.57199   2.58383   2.59417   2.59727
 Alpha virt. eigenvalues --    2.61656   2.63008   2.64345   2.65013   2.66640
 Alpha virt. eigenvalues --    2.67813   2.69281   2.70340   2.70999   2.72371
 Alpha virt. eigenvalues --    2.72812   2.75168   2.75541   2.76201   2.78078
 Alpha virt. eigenvalues --    2.80043   2.82127   2.84707   2.86741   2.87920
 Alpha virt. eigenvalues --    2.88427   2.92017   2.93384   2.95356   2.97626
 Alpha virt. eigenvalues --    2.98716   3.01520   3.03743   3.06095   3.07589
 Alpha virt. eigenvalues --    3.08744   3.11773   3.14730   3.15514   3.16374
 Alpha virt. eigenvalues --    3.18802   3.21595   3.22359   3.23689   3.27006
 Alpha virt. eigenvalues --    3.27034   3.29059   3.31317   3.32556   3.33143
 Alpha virt. eigenvalues --    3.34662   3.35984   3.37362   3.40052   3.40962
 Alpha virt. eigenvalues --    3.42904   3.44765   3.47166   3.47635   3.49531
 Alpha virt. eigenvalues --    3.50345   3.51881   3.52479   3.54061   3.54390
 Alpha virt. eigenvalues --    3.57687   3.59184   3.60380   3.61460   3.63480
 Alpha virt. eigenvalues --    3.64424   3.66078   3.67661   3.69141   3.74092
 Alpha virt. eigenvalues --    3.76101   3.80134   3.85101   3.86712   3.91221
 Alpha virt. eigenvalues --    3.93527   3.94638   3.97274   3.98300   4.00368
 Alpha virt. eigenvalues --    4.01392   4.03251   4.06919   4.08042   4.10645
 Alpha virt. eigenvalues --    4.11190   4.17627   4.18523   4.22099   4.24776
 Alpha virt. eigenvalues --    4.28741   4.30382   4.31781   4.32948   4.33487
 Alpha virt. eigenvalues --    4.37255   4.41924   4.45041   4.50254   4.52739
 Alpha virt. eigenvalues --    4.55327   4.59427   4.63435   4.64388   4.68342
 Alpha virt. eigenvalues --    4.72176   4.72844   4.77568   4.78560   4.82075
 Alpha virt. eigenvalues --    4.85637   4.87361   4.91393   4.96960   4.99946
 Alpha virt. eigenvalues --    5.01764   5.06278   5.08653   5.16211   5.22461
 Alpha virt. eigenvalues --    5.30042   5.48966   5.77241  22.52270  22.55914
 Alpha virt. eigenvalues --   22.56752  22.59210  22.62561  22.69246  22.79021
 Alpha virt. eigenvalues --   32.08348
          Condensed to atoms (all electrons):
               1          2          3          4          5          6
     1  N    6.621022   0.239537  -0.084955   0.005110   0.007734  -0.001025
     2  C    0.239537   5.079153   0.337671  -0.067991  -0.001147   0.000246
     3  C   -0.084955   0.337671   5.479760   0.187062  -0.052721   0.009347
     4  C    0.005110  -0.067991   0.187062   5.439409   0.173907  -0.027430
     5  C    0.007734  -0.001147  -0.052721   0.173907   5.221206   0.228446
     6  C   -0.001025   0.000246   0.009347  -0.027430   0.228446   5.197412
     7  C   -0.000438   0.009361  -0.031156   0.001444  -0.041869   0.249829
     8  C    0.022269  -0.085384   0.179027  -0.037326   0.020970  -0.053128
     9  H    0.375671  -0.070908   0.010710  -0.006922   0.000289  -0.000055
    10  H    0.391573  -0.062765  -0.007695   0.010401   0.000720  -0.000095
    11  H   -0.027433   0.427795  -0.080572   0.016988  -0.000317  -0.000184
    12  H   -0.036351   0.415200  -0.037376  -0.022562   0.000631   0.000033
    13  H   -0.004213  -0.029799   0.433797  -0.090342   0.001741   0.000184
    14  H    0.020679  -0.025406  -0.058264   0.407143  -0.013139   0.004402
    15  H   -0.001446   0.004536  -0.052230   0.414346  -0.042115  -0.004066
    16  H    0.000008  -0.000560   0.008843  -0.048750   0.435995  -0.044302
    17  H   -0.000075   0.000082  -0.004635  -0.050080   0.432443  -0.051887
    18  H    0.000040  -0.000348  -0.000944  -0.002026  -0.050093   0.427781
    19  H   -0.000003   0.000207  -0.001054   0.010157  -0.047573   0.435272
    20  H    0.000024  -0.000609   0.008011  -0.002148   0.010362  -0.045106
    21  H   -0.000005  -0.000300  -0.002816   0.001247  -0.002945  -0.052508
    22  H   -0.000186  -0.004523  -0.042923  -0.014686   0.002240  -0.003358
    23  H    0.000324  -0.006529  -0.053009   0.009855  -0.001284   0.007580
               7          8          9         10         11         12
     1  N   -0.000438   0.022269   0.375671   0.391573  -0.027433  -0.036351
     2  C    0.009361  -0.085384  -0.070908  -0.062765   0.427795   0.415200
     3  C   -0.031156   0.179027   0.010710  -0.007695  -0.080572  -0.037376
     4  C    0.001444  -0.037326  -0.006922   0.010401   0.016988  -0.022562
     5  C   -0.041869   0.020970   0.000289   0.000720  -0.000317   0.000631
     6  C    0.249829  -0.053128  -0.000055  -0.000095  -0.000184   0.000033
     7  C    5.173978   0.227951   0.000067   0.000086   0.000437  -0.000787
     8  C    0.227951   5.311186   0.000244  -0.000605   0.000095  -0.005352
     9  H    0.000067   0.000244   0.496925  -0.039838  -0.005801   0.009555
    10  H    0.000086  -0.000605  -0.039838   0.480743   0.007872  -0.007961
    11  H    0.000437   0.000095  -0.005801   0.007872   0.546214  -0.024061
    12  H   -0.000787  -0.005352   0.009555  -0.007961  -0.024061   0.541040
    13  H   -0.007438  -0.040137   0.005865  -0.000251  -0.005809   0.008671
    14  H   -0.001452   0.013567   0.003353   0.000193   0.000152   0.002486
    15  H    0.000779  -0.005567   0.000369   0.000104  -0.000102   0.005189
    16  H    0.009175  -0.001857   0.000007   0.000002   0.000020   0.000019
    17  H   -0.002758   0.000705  -0.000024   0.000042   0.000035  -0.000023
    18  H   -0.052888  -0.000459  -0.000000   0.000007   0.000034  -0.000029
    19  H   -0.044762   0.009117  -0.000000   0.000000  -0.000005  -0.000005
    20  H    0.435426  -0.048018   0.000002  -0.000001  -0.000018   0.000039
    21  H    0.434179  -0.053999  -0.000014   0.000002   0.000082  -0.000019
    22  H   -0.049615   0.430166   0.000037   0.000003  -0.000814   0.005204
    23  H   -0.036745   0.433540   0.000050   0.000027   0.005407   0.000078
              13         14         15         16         17         18
     1  N   -0.004213   0.020679  -0.001446   0.000008  -0.000075   0.000040
     2  C   -0.029799  -0.025406   0.004536  -0.000560   0.000082  -0.000348
     3  C    0.433797  -0.058264  -0.052230   0.008843  -0.004635  -0.000944
     4  C   -0.090342   0.407143   0.414346  -0.048750  -0.050080  -0.002026
     5  C    0.001741  -0.013139  -0.042115   0.435995   0.432443  -0.050093
     6  C    0.000184   0.004402  -0.004066  -0.044302  -0.051887   0.427781
     7  C   -0.007438  -0.001452   0.000779   0.009175  -0.002758  -0.052888
     8  C   -0.040137   0.013567  -0.005567  -0.001857   0.000705  -0.000459
     9  H    0.005865   0.003353   0.000369   0.000007  -0.000024  -0.000000
    10  H   -0.000251   0.000193   0.000104   0.000002   0.000042   0.000007
    11  H   -0.005809   0.000152  -0.000102   0.000020   0.000035   0.000034
    12  H    0.008671   0.002486   0.005189   0.000019  -0.000023  -0.000029
    13  H    0.579803  -0.001434   0.008983  -0.000053   0.001859   0.000010
    14  H   -0.001434   0.560030  -0.022544  -0.006866  -0.003844   0.000070
    15  H    0.008983  -0.022544   0.531663  -0.003071   0.006442   0.002105
    16  H   -0.000053  -0.006866  -0.003071   0.538137  -0.019377  -0.003195
    17  H    0.001859  -0.003844   0.006442  -0.019377   0.540977   0.007104
    18  H    0.000010   0.000070   0.002105  -0.003195   0.007104   0.545196
    19  H   -0.000165  -0.000348  -0.000088  -0.005433  -0.003205  -0.019734
    20  H    0.000090   0.000184  -0.000140  -0.000389  -0.000154  -0.002997
    21  H    0.002422  -0.000199   0.000161  -0.000129   0.002455   0.007023
    22  H    0.008608  -0.000149   0.004823  -0.000142   0.000106   0.001975
    23  H   -0.004214  -0.000316  -0.000162   0.000150  -0.000141  -0.000069
              19         20         21         22         23
     1  N   -0.000003   0.000024  -0.000005  -0.000186   0.000324
     2  C    0.000207  -0.000609  -0.000300  -0.004523  -0.006529
     3  C   -0.001054   0.008011  -0.002816  -0.042923  -0.053009
     4  C    0.010157  -0.002148   0.001247  -0.014686   0.009855
     5  C   -0.047573   0.010362  -0.002945   0.002240  -0.001284
     6  C    0.435272  -0.045106  -0.052508  -0.003358   0.007580
     7  C   -0.044762   0.435426   0.434179  -0.049615  -0.036745
     8  C    0.009117  -0.048018  -0.053999   0.430166   0.433540
     9  H   -0.000000   0.000002  -0.000014   0.000037   0.000050
    10  H    0.000000  -0.000001   0.000002   0.000003   0.000027
    11  H   -0.000005  -0.000018   0.000082  -0.000814   0.005407
    12  H   -0.000005   0.000039  -0.000019   0.005204   0.000078
    13  H   -0.000165   0.000090   0.002422   0.008608  -0.004214
    14  H   -0.000348   0.000184  -0.000199  -0.000149  -0.000316
    15  H   -0.000088  -0.000140   0.000161   0.004823  -0.000162
    16  H   -0.005433  -0.000389  -0.000129  -0.000142   0.000150
    17  H   -0.003205  -0.000154   0.002455   0.000106  -0.000141
    18  H   -0.019734  -0.002997   0.007023   0.001975  -0.000069
    19  H    0.534418  -0.005567  -0.003147  -0.000088  -0.000319
    20  H   -0.005567   0.538883  -0.019631  -0.003132  -0.006372
    21  H   -0.003147  -0.019631   0.540539   0.006684  -0.003031
    22  H   -0.000088  -0.003132   0.006684   0.531822  -0.020840
    23  H   -0.000319  -0.006372  -0.003031  -0.020840   0.532534
 Mulliken charges:
               1
     1  N   -0.527860
     2  C   -0.157520
     3  C   -0.143879
     4  C   -0.306808
     5  C   -0.283482
     6  C   -0.277388
     7  C   -0.272803
     8  C   -0.317005
     9  H    0.220419
    10  H    0.227435
    11  H    0.139987
    12  H    0.146382
    13  H    0.131823
    14  H    0.121701
    15  H    0.152032
    16  H    0.141767
    17  H    0.143955
    18  H    0.141435
    19  H    0.142325
    20  H    0.141263
    21  H    0.143951
    22  H    0.148787
    23  H    0.143483
 Sum of Mulliken charges =  -0.00000
 Mulliken charges with hydrogens summed into heavy atoms:
               1
     1  N   -0.080006
     2  C    0.128849
     3  C   -0.012056
     4  C   -0.033075
     5  C    0.002241
     6  C    0.006372
     7  C    0.012411
     8  C   -0.024735
 Electronic spatial extent (au):  <R**2>=           1205.5104
 Charge=             -0.0000 electrons
 Dipole moment (field-independent basis, Debye):
    X=              1.3880    Y=              0.4906    Z=             -0.5087  Tot=              1.5575
 Quadrupole moment (field-independent basis, Debye-Ang):
   XX=            -61.6535   YY=            -51.5754   ZZ=            -51.1726
   XY=             -1.7184   XZ=              2.0652   YZ=              0.1259
 Traceless Quadrupole moment (field-independent basis, Debye-Ang):
   XX=             -6.8530   YY=              3.2251   ZZ=              3.6279
   XY=             -1.7184   XZ=              2.0652   YZ=              0.1259
 Octapole moment (field-independent basis, Debye-Ang**2):
  XXX=             38.4397  YYY=              2.4696  ZZZ=             -1.9465  XYY=             -6.5770
  XXY=              5.6006  XXZ=             -7.7182  XZZ=             -6.2147  YZZ=              0.8579
  YYZ=             -0.1716  XYZ=             -0.2549
 Hexadecapole moment (field-independent basis, Debye-Ang**3):
 XXXX=          -1309.9428 YYYY=           -405.1180 ZZZZ=           -128.1028 XXXY=            -18.1144
 XXXZ=             25.2929 YYYX=             -8.4049 YYYZ=              3.6245 ZZZX=              7.1654
 ZZZY=             -1.4043 XXYY=           -238.7924 XXZZ=           -194.7521 YYZZ=            -92.1127
 XXYZ=             -1.7777 YYXZ=              3.0658 ZZXY=             -2.6680
 N-N= 4.045902764969D+02 E-N=-1.575101374055D+03  KE= 3.285909181943D+02
 Unable to Open any file for archive entry.
 1\1\GINC-NOTCH265\SP\RM062X\def2TZVP\C7H15N1\U6032257\21-Feb-2022\0\\#
  M062X/def2tzvp int=(grid=ultrafine) nmr=giao guess=read geom=check\\N
 2.xyz\\0,1\N,0,3.5298860979,-0.3733275271,0.891880586\C,0,2.6889721101
 ,0.8074396013,1.0970436171\C,0,1.1903794423,0.6683465749,0.7728374844\
 C,0,0.5039679259,-0.4088341135,1.626310185\C,0,-0.994016852,-0.5240678
 229,1.3162861804\C,0,-1.7033425443,0.8263978154,1.4768018911\C,0,-1.03
 15540225,1.9087256189,0.6224056017\C,0,0.4669425941,2.0146712751,0.933
 253506\H,0,3.41826222,-0.7115171174,-0.0620860937\H,0,3.2210841709,-1.
 1302134009,1.4967234584\H,0,3.1057539785,1.6235519388,0.4931536719\H,0
 ,2.7987489514,1.1165735861,2.1452192725\H,0,1.1046655251,0.3643118217,
 -0.2839430309\H,0,0.9925193388,-1.3786931049,1.4743581612\H,0,0.636072
 0236,-0.1532117847,2.6885020199\H,0,-1.4575349492,-1.2783744876,1.9626
 281901\H,0,-1.1209283109,-0.876585143,0.2831039971\H,0,-1.6674961839,1
 .1279819152,2.5330921863\H,0,-2.7632392271,0.7345467242,1.2129119667\H
 ,0,-1.5204527866,2.877186757,0.7793713564\H,0,-1.1619523073,1.66081284
 19,-0.4402521216\H,0,0.5966252736,2.3638477692,1.9682892392\H,0,0.9368
 375314,2.7692302623,0.2903086749\\Version=ES64L-G16RevC.01\State=1-A\H
 F=-330.4960447\RMSD=1.386e-09\Dipole=-0.5881756,-0.1211575,-0.1219202\
 Quadrupole=-5.5144409,2.7027803,2.8116606,-0.0039182,-0.7940944,0.2246
 109\PG=C01 [X(C7H15N1)]\\@
 The archive entry for this job was punched.


 IT CANNOT BE MY BEAUTY, FOR I HAVE NONE; AND IT CANNOT BE MY WIT,
 FOR HE HAS NOT ENOUGH TO KNOW THAT I HAVE ANY.
 -- CATHARINE SEDLEY, PUZZLED ABOUT WHY SHE WAS MISTRESS TO JAMES II
 Job cpu time:       0 days  0 hours 23 minutes 13.9 seconds.
 Elapsed time:       0 days  0 hours  0 minutes 26.0 seconds.
 File lengths (MBytes):  RWF=     70 Int=      0 D2E=      0 Chk=     12 Scr=      1
 Normal termination of Gaussian 16 at Mon Feb 21 19:07:55 2022.
