 Entering Gaussian System, Link 0=/uufs/chpc.utah.edu/sys/installdir/gaussian16/C01/AVX2/g16/g16
 Input=N2_conf-2.com
 Output=N2_conf-2.log
 Initial command:
 /uufs/chpc.utah.edu/sys/installdir/gaussian16/C01/AVX2/g16/l1.exe "/scratch/local/u6032257/4038569/notchpeak.peaks/Gau-41355.inp" -scrdir="/scratch/local/u6032257/4038569/notchpeak.peaks/"
 Entering Link 1 = /uufs/chpc.utah.edu/sys/installdir/gaussian16/C01/AVX2/g16/l1.exe PID=     41357.
  
 Copyright (c) 1988-2019, Gaussian, Inc.  All Rights Reserved.
  
 This is part of the Gaussian(R) 16 program.  It is based on
 the Gaussian(R) 09 system (copyright 2009, Gaussian, Inc.),
 the Gaussian(R) 03 system (copyright 2003, Gaussian, Inc.),
 the Gaussian(R) 98 system (copyright 1998, Gaussian, Inc.),
 the Gaussian(R) 94 system (copyright 1995, Gaussian, Inc.),
 the Gaussian 92(TM) system (copyright 1992, Gaussian, Inc.),
 the Gaussian 90(TM) system (copyright 1990, Gaussian, Inc.),
 the Gaussian 88(TM) system (copyright 1988, Gaussian, Inc.),
 the Gaussian 86(TM) system (copyright 1986, Carnegie Mellon
 University), and the Gaussian 82(TM) system (copyright 1983,
 Carnegie Mellon University). Gaussian is a federally registered
 trademark of Gaussian, Inc.
  
 This software contains proprietary and confidential information,
 including trade secrets, belonging to Gaussian, Inc.
  
 This software is provided under written license and may be
 used, copied, transmitted, or stored only in accord with that
 written license.
  
 The following legend is applicable only to US Government
 contracts under FAR:
  
                    RESTRICTED RIGHTS LEGEND
  
 Use, reproduction and disclosure by the US Government is
 subject to restrictions as set forth in subparagraphs (a)
 and (c) of the Commercial Computer Software - Restricted
 Rights clause in FAR 52.227-19.
  
 Gaussian, Inc.
 340 Quinnipiac St., Bldg. 40, Wallingford CT 06492
  
  
 ---------------------------------------------------------------
 Warning -- This program may not be used in any manner that
 competes with the business of Gaussian, Inc. or will provide
 assistance to any competitor of Gaussian, Inc.  The licensee
 of this program is prohibited from giving any competitor of
 Gaussian, Inc. access to this program.  By using this program,
 the user acknowledges that Gaussian, Inc. is engaged in the
 business of creating and licensing software in the field of
 computational chemistry and represents and warrants to the
 licensee that it is not a competitor of Gaussian, Inc. and that
 it will not use this program in any manner prohibited above.
 ---------------------------------------------------------------
  

 Cite this work as:
 Gaussian 16, Revision C.01,
 M. J. Frisch, G. W. Trucks, H. B. Schlegel, G. E. Scuseria, 
 M. A. Robb, J. R. Cheeseman, G. Scalmani, V. Barone, 
 G. A. Petersson, H. Nakatsuji, X. Li, M. Caricato, A. V. Marenich, 
 J. Bloino, B. G. Janesko, R. Gomperts, B. Mennucci, H. P. Hratchian, 
 J. V. Ortiz, A. F. Izmaylov, J. L. Sonnenberg, D. Williams-Young, 
 F. Ding, F. Lipparini, F. Egidi, J. Goings, B. Peng, A. Petrone, 
 T. Henderson, D. Ranasinghe, V. G. Zakrzewski, J. Gao, N. Rega, 
 G. Zheng, W. Liang, M. Hada, M. Ehara, K. Toyota, R. Fukuda, 
 J. Hasegawa, M. Ishida, T. Nakajima, Y. Honda, O. Kitao, H. Nakai, 
 T. Vreven, K. Throssell, J. A. Montgomery, Jr., J. E. Peralta, 
 F. Ogliaro, M. J. Bearpark, J. J. Heyd, E. N. Brothers, K. N. Kudin, 
 V. N. Staroverov, T. A. Keith, R. Kobayashi, J. Normand, 
 K. Raghavachari, A. P. Rendell, J. C. Burant, S. S. Iyengar, 
 J. Tomasi, M. Cossi, J. M. Millam, M. Klene, C. Adamo, R. Cammi, 
 J. W. Ochterski, R. L. Martin, K. Morokuma, O. Farkas, 
 J. B. Foresman, and D. J. Fox, Gaussian, Inc., Wallingford CT, 2019.
 
 ******************************************
 Gaussian 16:  ES64L-G16RevC.01  3-Jul-2019
                21-Feb-2022 
 ******************************************
 %NProcShared=64
 Will use up to   64 processors via shared memory.
 %mem=16GB
 %chk=N2_conf-2.chk
 ----------------------------------------------------------------------
 # B3LYP/6-31G(d,p) empiricaldispersion=GD3BJ int=(grid=ultrafine) opt 
 freq=noraman
 ----------------------------------------------------------------------
 1/18=20,19=15,26=4,38=1/1,3;
 2/9=110,12=2,17=6,18=5,40=1/2;
 3/5=1,6=6,7=101,11=2,25=1,30=1,71=1,74=-5,75=-5,124=41/1,2,3;
 4//1;
 5/5=2,38=5/2;
 6/7=2,8=2,9=2,10=2,28=1/1;
 7//1,2,3,16;
 1/18=20,19=15,26=4/3(2);
 2/9=110/2;
 99//99;
 2/9=110/2;
 3/5=1,6=6,7=101,11=2,25=1,30=1,71=1,74=-5,75=-5,124=41/1,2,3;
 4/5=5,16=3,69=1/1;
 5/5=2,38=5/2;
 7//1,2,3,16;
 1/18=20,19=15,26=4/3(-5);
 2/9=110/2;
 6/7=2,8=2,9=2,10=2,19=2,28=1/1;
 99/9=1/99;
 ------
 N2.xyz
 ------
 Symbolic Z-matrix:
 Charge =  0 Multiplicity = 1
 N                     3.1527    0.0202    0.2014 
 C                     2.7653    0.6293    1.4633 
 C                     1.2329    0.7966    1.5919 
 C                     0.632     1.7309    0.5128 
 C                    -0.8711    1.9768    0.7592 
 C                    -1.6566    0.6489    0.8298 
 C                    -1.035    -0.349     1.8314 
 C                     0.4711   -0.5515    1.5651 
 H                     2.7079   -0.8821    0.1093 
 H                     2.811     0.5819   -0.5657 
 H                     3.2558    1.6005    1.5573 
 H                     3.1444    0.0196    2.2862 
 H                     1.0411    1.2578    2.563 
 H                     0.7989    1.3246   -0.4856 
 H                     1.1644    2.6834    0.5181 
 H                    -1.2807    2.611    -0.0284 
 H                    -1.0032    2.5283    1.6917 
 H                    -1.6806    0.1934   -0.1618 
 H                    -2.6966    0.8447    1.0955 
 H                    -1.5567   -1.3056    1.7773 
 H                    -1.1801    0.0181    2.849 
 H                     0.6305   -1.0659    0.6164 
 H                     0.8892   -1.2213    2.3183 
 

 GradGradGradGradGradGradGradGradGradGradGradGradGradGradGradGradGradGrad
 Berny optimization.
 Initialization pass.
                           ----------------------------
                           !    Initial Parameters    !
                           ! (Angstroms and Degrees)  !
 --------------------------                            --------------------------
 ! Name  Definition              Value          Derivative Info.                !
 --------------------------------------------------------------------------------
 ! R1    R(1,2)                  1.4538         estimate D2E/DX2                !
 ! R2    R(1,9)                  1.0102         estimate D2E/DX2                !
 ! R3    R(1,10)                 1.0103         estimate D2E/DX2                !
 ! R4    R(2,3)                  1.5469         estimate D2E/DX2                !
 ! R5    R(2,11)                 1.0921         estimate D2E/DX2                !
 ! R6    R(2,12)                 1.0921         estimate D2E/DX2                !
 ! R7    R(3,4)                  1.5487         estimate D2E/DX2                !
 ! R8    R(3,8)                  1.5487         estimate D2E/DX2                !
 ! R9    R(3,13)                 1.092          estimate D2E/DX2                !
 ! R10   R(4,5)                  1.5429         estimate D2E/DX2                !
 ! R11   R(4,14)                 1.0908         estimate D2E/DX2                !
 ! R12   R(4,15)                 1.0912         estimate D2E/DX2                !
 ! R13   R(5,6)                  1.5444         estimate D2E/DX2                !
 ! R14   R(5,16)                 1.091          estimate D2E/DX2                !
 ! R15   R(5,17)                 1.0914         estimate D2E/DX2                !
 ! R16   R(6,7)                  1.5445         estimate D2E/DX2                !
 ! R17   R(6,18)                 1.0915         estimate D2E/DX2                !
 ! R18   R(6,19)                 1.0911         estimate D2E/DX2                !
 ! R19   R(7,8)                  1.5428         estimate D2E/DX2                !
 ! R20   R(7,20)                 1.091          estimate D2E/DX2                !
 ! R21   R(7,21)                 1.0915         estimate D2E/DX2                !
 ! R22   R(8,22)                 1.0909         estimate D2E/DX2                !
 ! R23   R(8,23)                 1.0912         estimate D2E/DX2                !
 ! A1    A(2,1,9)              109.6355         estimate D2E/DX2                !
 ! A2    A(2,1,10)             109.6332         estimate D2E/DX2                !
 ! A3    A(9,1,10)             106.1677         estimate D2E/DX2                !
 ! A4    A(1,2,3)              112.4244         estimate D2E/DX2                !
 ! A5    A(1,2,11)             109.1247         estimate D2E/DX2                !
 ! A6    A(1,2,12)             109.1262         estimate D2E/DX2                !
 ! A7    A(3,2,11)             109.9746         estimate D2E/DX2                !
 ! A8    A(3,2,12)             109.9763         estimate D2E/DX2                !
 ! A9    A(11,2,12)            106.0052         estimate D2E/DX2                !
 ! A10   A(2,3,4)              113.0601         estimate D2E/DX2                !
 ! A11   A(2,3,8)              113.0614         estimate D2E/DX2                !
 ! A12   A(2,3,13)             107.0737         estimate D2E/DX2                !
 ! A13   A(4,3,8)              108.7977         estimate D2E/DX2                !
 ! A14   A(4,3,13)             107.2587         estimate D2E/DX2                !
 ! A15   A(8,3,13)             107.255          estimate D2E/DX2                !
 ! A16   A(3,4,5)              111.2767         estimate D2E/DX2                !
 ! A17   A(3,4,14)             110.7135         estimate D2E/DX2                !
 ! A18   A(3,4,15)             109.506          estimate D2E/DX2                !
 ! A19   A(5,4,14)             110.7699         estimate D2E/DX2                !
 ! A20   A(5,4,15)             109.5984         estimate D2E/DX2                !
 ! A21   A(14,4,15)            104.7698         estimate D2E/DX2                !
 ! A22   A(4,5,6)              111.4539         estimate D2E/DX2                !
 ! A23   A(4,5,16)             110.0664         estimate D2E/DX2                !
 ! A24   A(4,5,17)             109.5665         estimate D2E/DX2                !
 ! A25   A(6,5,16)             109.9896         estimate D2E/DX2                !
 ! A26   A(6,5,17)             109.5025         estimate D2E/DX2                !
 ! A27   A(16,5,17)            106.1181         estimate D2E/DX2                !
 ! A28   A(5,6,7)              112.3629         estimate D2E/DX2                !
 ! A29   A(5,6,18)             109.1756         estimate D2E/DX2                !
 ! A30   A(5,6,19)             109.9752         estimate D2E/DX2                !
 ! A31   A(7,6,18)             109.1702         estimate D2E/DX2                !
 ! A32   A(7,6,19)             109.9767         estimate D2E/DX2                !
 ! A33   A(18,6,19)            105.9715         estimate D2E/DX2                !
 ! A34   A(6,7,8)              111.4543         estimate D2E/DX2                !
 ! A35   A(6,7,20)             109.9938         estimate D2E/DX2                !
 ! A36   A(6,7,21)             109.4995         estimate D2E/DX2                !
 ! A37   A(8,7,20)             110.0706         estimate D2E/DX2                !
 ! A38   A(8,7,21)             109.5631         estimate D2E/DX2                !
 ! A39   A(20,7,21)            106.1154         estimate D2E/DX2                !
 ! A40   A(3,8,7)              111.2818         estimate D2E/DX2                !
 ! A41   A(3,8,22)             110.7101         estimate D2E/DX2                !
 ! A42   A(3,8,23)             109.5053         estimate D2E/DX2                !
 ! A43   A(7,8,22)             110.7715         estimate D2E/DX2                !
 ! A44   A(7,8,23)             109.6005         estimate D2E/DX2                !
 ! A45   A(22,8,23)            104.7646         estimate D2E/DX2                !
 ! D1    D(9,1,2,3)            -58.0902         estimate D2E/DX2                !
 ! D2    D(9,1,2,11)           179.6179         estimate D2E/DX2                !
 ! D3    D(9,1,2,12)            64.205          estimate D2E/DX2                !
 ! D4    D(10,1,2,3)            58.0882         estimate D2E/DX2                !
 ! D5    D(10,1,2,11)          -64.2037         estimate D2E/DX2                !
 ! D6    D(10,1,2,12)         -179.6166         estimate D2E/DX2                !
 ! D7    D(1,2,3,4)            -62.0928         estimate D2E/DX2                !
 ! D8    D(1,2,3,8)             62.0926         estimate D2E/DX2                !
 ! D9    D(1,2,3,13)           179.998          estimate D2E/DX2                !
 ! D10   D(11,2,3,4)            59.7171         estimate D2E/DX2                !
 ! D11   D(11,2,3,8)          -176.0975         estimate D2E/DX2                !
 ! D12   D(11,2,3,13)          -58.1921         estimate D2E/DX2                !
 ! D13   D(12,2,3,4)           176.0941         estimate D2E/DX2                !
 ! D14   D(12,2,3,8)           -59.7205         estimate D2E/DX2                !
 ! D15   D(12,2,3,13)           58.1849         estimate D2E/DX2                !
 ! D16   D(2,3,4,5)           -174.5375         estimate D2E/DX2                !
 ! D17   D(2,3,4,14)            61.8134         estimate D2E/DX2                !
 ! D18   D(2,3,4,15)           -53.2171         estimate D2E/DX2                !
 ! D19   D(8,3,4,5)             58.9763         estimate D2E/DX2                !
 ! D20   D(8,3,4,14)           -64.6728         estimate D2E/DX2                !
 ! D21   D(8,3,4,15)          -179.7033         estimate D2E/DX2                !
 ! D22   D(13,3,4,5)           -56.7364         estimate D2E/DX2                !
 ! D23   D(13,3,4,14)          179.6144         estimate D2E/DX2                !
 ! D24   D(13,3,4,15)           64.584          estimate D2E/DX2                !
 ! D25   D(2,3,8,7)            174.539          estimate D2E/DX2                !
 ! D26   D(2,3,8,22)           -61.8086         estimate D2E/DX2                !
 ! D27   D(2,3,8,23)            53.2131         estimate D2E/DX2                !
 ! D28   D(4,3,8,7)            -58.9756         estimate D2E/DX2                !
 ! D29   D(4,3,8,22)            64.6769         estimate D2E/DX2                !
 ! D30   D(4,3,8,23)           179.6986         estimate D2E/DX2                !
 ! D31   D(13,3,8,7)            56.7396         estimate D2E/DX2                !
 ! D32   D(13,3,8,22)         -179.608          estimate D2E/DX2                !
 ! D33   D(13,3,8,23)          -64.5863         estimate D2E/DX2                !
 ! D34   D(3,4,5,6)            -55.9236         estimate D2E/DX2                !
 ! D35   D(3,4,5,16)          -178.2395         estimate D2E/DX2                !
 ! D36   D(3,4,5,17)            65.4328         estimate D2E/DX2                !
 ! D37   D(14,4,5,6)            67.6935         estimate D2E/DX2                !
 ! D38   D(14,4,5,16)          -54.6224         estimate D2E/DX2                !
 ! D39   D(14,4,5,17)         -170.9502         estimate D2E/DX2                !
 ! D40   D(15,4,5,6)          -177.19           estimate D2E/DX2                !
 ! D41   D(15,4,5,16)           60.4941         estimate D2E/DX2                !
 ! D42   D(15,4,5,17)          -55.8336         estimate D2E/DX2                !
 ! D43   D(4,5,6,7)             51.9369         estimate D2E/DX2                !
 ! D44   D(4,5,6,18)           -69.329          estimate D2E/DX2                !
 ! D45   D(4,5,6,19)           174.7983         estimate D2E/DX2                !
 ! D46   D(16,5,6,7)           174.297          estimate D2E/DX2                !
 ! D47   D(16,5,6,18)           53.0311         estimate D2E/DX2                !
 ! D48   D(16,5,6,19)          -62.8416         estimate D2E/DX2                !
 ! D49   D(17,5,6,7)           -69.4567         estimate D2E/DX2                !
 ! D50   D(17,5,6,18)          169.2774         estimate D2E/DX2                !
 ! D51   D(17,5,6,19)           53.4046         estimate D2E/DX2                !
 ! D52   D(5,6,7,8)            -51.9335         estimate D2E/DX2                !
 ! D53   D(5,6,7,20)          -174.3021         estimate D2E/DX2                !
 ! D54   D(5,6,7,21)            69.4542         estimate D2E/DX2                !
 ! D55   D(18,6,7,8)            69.3356         estimate D2E/DX2                !
 ! D56   D(18,6,7,20)          -53.033          estimate D2E/DX2                !
 ! D57   D(18,6,7,21)         -169.2768         estimate D2E/DX2                !
 ! D58   D(19,6,7,8)          -174.7939         estimate D2E/DX2                !
 ! D59   D(19,6,7,20)           62.8374         estimate D2E/DX2                !
 ! D60   D(19,6,7,21)          -53.4063         estimate D2E/DX2                !
 ! D61   D(6,7,8,3)             55.918          estimate D2E/DX2                !
 ! D62   D(6,7,8,22)           -67.6995         estimate D2E/DX2                !
 ! D63   D(6,7,8,23)           177.1881         estimate D2E/DX2                !
 ! D64   D(20,7,8,3)           178.2424         estimate D2E/DX2                !
 ! D65   D(20,7,8,22)           54.6249         estimate D2E/DX2                !
 ! D66   D(20,7,8,23)          -60.4874         estimate D2E/DX2                !
 ! D67   D(21,7,8,3)           -65.4327         estimate D2E/DX2                !
 ! D68   D(21,7,8,22)          170.9498         estimate D2E/DX2                !
 ! D69   D(21,7,8,23)           55.8375         estimate D2E/DX2                !
 --------------------------------------------------------------------------------
 Trust Radius=3.00D-01 FncErr=1.00D-07 GrdErr=1.00D-06 EigMax=2.50D+02 EigMin=1.00D-04
 Number of steps in this run=    138 maximum allowed number of steps=    138.
 GradGradGradGradGradGradGradGradGradGradGradGradGradGradGradGradGradGrad

                          Input orientation:                          
 ---------------------------------------------------------------------
 Center     Atomic      Atomic             Coordinates (Angstroms)
 Number     Number       Type             X           Y           Z
 ---------------------------------------------------------------------
      1          7           0        3.152700    0.020200    0.201400
      2          6           0        2.765300    0.629300    1.463300
      3          6           0        1.232900    0.796600    1.591900
      4          6           0        0.632000    1.730900    0.512800
      5          6           0       -0.871100    1.976800    0.759200
      6          6           0       -1.656600    0.648900    0.829800
      7          6           0       -1.035000   -0.349000    1.831400
      8          6           0        0.471100   -0.551500    1.565100
      9          1           0        2.707900   -0.882100    0.109300
     10          1           0        2.811000    0.581900   -0.565700
     11          1           0        3.255800    1.600500    1.557300
     12          1           0        3.144400    0.019600    2.286200
     13          1           0        1.041100    1.257800    2.563000
     14          1           0        0.798900    1.324600   -0.485600
     15          1           0        1.164400    2.683400    0.518100
     16          1           0       -1.280700    2.611000   -0.028400
     17          1           0       -1.003200    2.528300    1.691700
     18          1           0       -1.680600    0.193400   -0.161800
     19          1           0       -2.696600    0.844700    1.095500
     20          1           0       -1.556700   -1.305600    1.777300
     21          1           0       -1.180100    0.018100    2.849000
     22          1           0        0.630500   -1.065900    0.616400
     23          1           0        0.889200   -1.221300    2.318300
 ---------------------------------------------------------------------
                    Distance matrix (angstroms):
                    1          2          3          4          5
     1  N    0.000000
     2  C    1.453779   0.000000
     3  C    2.494378   1.546860   0.000000
     4  C    3.062253   2.582236   1.548694   0.000000
     5  C    4.508923   3.941436   2.552073   1.542883   0.000000
     6  C    4.890758   4.467091   2.991960   2.551255   1.544446
     7  C    4.508885   3.941427   2.552083   2.973816   2.566286
     8  C    3.062270   2.582248   1.548687   2.518447   2.973765
     9  H    1.010185   2.030010   2.681746   3.361539   4.626545
    10  H    1.010301   2.030068   2.681741   2.689127   4.154391
    11  H    2.084812   1.092088   2.177057   2.827068   4.220174
    12  H    2.084817   1.092069   2.177065   3.519325   4.720869
    13  H    3.401127   2.139443   1.092029   2.143480   2.725282
    14  H    2.777373   2.854537   2.187041   1.090751   2.182611
    15  H    3.338603   2.770489   2.172039   1.091208   2.168104
    16  H    5.140047   4.745779   3.497943   2.173912   1.091007
    17  H    5.077703   4.226105   2.829998   2.167840   1.091402
    18  H    4.850021   4.753629   3.453664   2.857816   2.164266
    19  H    5.974406   5.478506   3.961022   3.493489   2.174212
    20  H    5.140005   4.745747   3.497926   3.950911   3.504386
    21  H    5.077691   4.226099   2.830006   3.416902   2.880842
    22  H    2.777288   2.854525   2.187097   2.798719   3.396059
    23  H    3.338566   2.770469   2.172028   3.470082   3.969546
                    6          7          8          9         10
     6  C    0.000000
     7  C    1.544472   0.000000
     8  C    2.551222   1.542809   0.000000
     9  H    4.681019   4.154410   2.689224   0.000000
    10  H    4.680957   4.626487   3.361553   1.615410   0.000000
    11  H    5.056330   4.720873   3.519335   2.925782   2.396356
    12  H    5.056354   4.220201   2.827132   2.396349   2.925862
    13  H    3.263790   2.725296   2.143425   3.657600   3.657615
    14  H    2.866414   3.395970   2.798674   2.977870   2.146291
    15  H    3.492046   3.969580   3.470080   3.906699   2.881357
    16  H    2.174315   3.504401   3.950880   5.303738   4.598690
    17  H    2.168397   2.880865   3.416834   5.282715   4.840708
    18  H    1.091479   2.164219   2.857774   4.526492   4.526427
    19  H    1.091116   2.174255   3.493454   5.758737   5.758672
    20  H    2.174352   1.090954   2.173860   4.598738   5.303688
    21  H    2.168439   1.091479   2.167788   4.840750   5.282701
    22  H    2.866514   2.182673   1.090893   2.146281   2.977782
    23  H    3.492045   2.168069   1.091215   2.881390   3.906700
                   11         12         13         14         15
    11  H    0.000000
    12  H    1.744405   0.000000
    13  H    2.456374   2.456345   0.000000
    14  H    3.207167   3.858403   3.058935   0.000000
    15  H    2.574211   3.760639   2.495827   1.728393   0.000000
    16  H    4.910742   5.626210   3.733264   2.487688   2.506475
    17  H    4.360958   4.883604   2.559784   3.071985   2.469794
    18  H    5.413250   5.413274   3.995639   2.744518   3.841405
    19  H    6.017936   6.017960   4.036658   3.866355   4.315267
    20  H    5.626186   4.910751   3.733217   4.193748   4.990199
    21  H    4.883614   4.360969   2.559762   4.091814   4.246599
    22  H    3.858391   3.207216   3.058991   2.637660   3.788398
    23  H    3.760648   2.574255   2.495774   3.788353   4.308496
                   16         17         18         19         20
    16  H    0.000000
    17  H    1.744302   0.000000
    18  H    2.454079   3.057138   0.000000
    19  H    2.527398   2.461212   1.742771   0.000000
    20  H    4.321630   3.874594   2.454070   2.527452   0.000000
    21  H    3.874620   2.769791   3.057147   2.461260   1.744291
    22  H    4.193810   4.091885   2.744561   3.866461   2.487768
    23  H    4.990189   4.246564   3.841373   4.315270   2.506435
                   21         22         23
    21  H    0.000000
    22  H    3.072105   0.000000
    23  H    2.469769   1.728450   0.000000
 Stoichiometry    C7H15N
 Framework group  C1[X(C7H15N)]
 Deg. of freedom    63
 Full point group                 C1      NOp   1
 Largest Abelian subgroup         C1      NOp   1
 Largest concise Abelian subgroup C1      NOp   1
                         Standard orientation:                         
 ---------------------------------------------------------------------
 Center     Atomic      Atomic             Coordinates (Angstroms)
 Number     Number       Type             X           Y           Z
 ---------------------------------------------------------------------
      1          7           0       -2.652606   -0.000021    0.767859
      2          6           0       -2.121346    0.000003   -0.585373
      3          6           0       -0.574717    0.000010   -0.612103
      4          6           0        0.043331    1.259236    0.044267
      5          6           0        1.576773    1.283129   -0.124480
      6          6           0        2.226999    0.000005    0.437758
      7          6           0        1.576746   -1.283157   -0.124434
      8          6           0        0.043370   -1.259211    0.044221
      9          1           0       -2.308518   -0.807690    1.267608
     10          1           0       -2.308439    0.807720    1.267670
     11          1           0       -2.503703    0.872240   -1.119846
     12          1           0       -2.503722   -0.872165   -1.119906
     13          1           0       -0.272182   -0.000008   -1.661389
     14          1           0       -0.230781    1.318825    1.098331
     15          1           0       -0.388492    2.154262   -0.406500
     16          1           0        1.994281    2.160804    0.371170
     17          1           0        1.826572    1.384889   -1.182026
     18          1           0        2.137857   -0.000030    1.525591
     19          1           0        3.297012    0.000010    0.224203
     20          1           0        1.994240   -2.160826    0.371124
     21          1           0        1.826554   -1.384902   -1.182058
     22          1           0       -0.230870   -1.318836    1.098396
     23          1           0       -0.388495   -2.154234   -0.406530
 ---------------------------------------------------------------------
 Rotational constants (GHZ):           3.5356672           1.3799066           1.1580211
 Standard basis: 6-31G(d,p) (6D, 7F)
 There are   195 symmetry adapted cartesian basis functions of A   symmetry.
 There are   195 symmetry adapted basis functions of A   symmetry.
   195 basis functions,   329 primitive gaussians,   195 cartesian basis functions
    32 alpha electrons       32 beta electrons
       nuclear repulsion energy       407.9186490182 Hartrees.
 NAtoms=   23 NActive=   23 NUniq=   23 SFac= 1.00D+00 NAtFMM=   60 NAOKFM=F Big=F
 Integral buffers will be    131072 words long.
 Raffenetti 2 integral format.
 Two-electron integral symmetry is turned on.
 Nuclear repulsion after empirical dispersion term =      407.8819218138 Hartrees.
 One-electron integrals computed using PRISM.
 NBasis=   195 RedAO= T EigKep=  3.63D-03  NBF=   195
 NBsUse=   195 1.00D-06 EigRej= -1.00D+00 NBFU=   195
 ExpMin= 1.61D-01 ExpMax= 4.17D+03 ExpMxC= 6.27D+02 IAcc=3 IRadAn=         5 AccDes= 0.00D+00
 Harris functional with IExCor=  402 and IRadAn=       5 diagonalized for initial guess.
 HarFok:  IExCor=  402 AccDes= 0.00D+00 IRadAn=         5 IDoV= 1 UseB2=F ITyADJ=14
 ICtDFT=  3500011 ScaDFX=  1.000000  1.000000  1.000000  1.000000
 FoFCou: FMM=F IPFlag=           0 FMFlag=      100000 FMFlg1=           0
         NFxFlg=           0 DoJE=T BraDBF=F KetDBF=T FulRan=T
         wScrn=  0.000000 ICntrl=       500 IOpCl=  0 I1Cent=   200000004 NGrid=           0
         NMat0=    1 NMatS0=      1 NMatT0=    0 NMatD0=    1 NMtDS0=    0 NMtDT0=    0
 Petite list used in FoFCou.
 Requested convergence on RMS density matrix=1.00D-08 within 128 cycles.
 Requested convergence on MAX density matrix=1.00D-06.
 Requested convergence on             energy=1.00D-06.
 No special actions if energy rises.
 Integral accuracy reduced to 1.0D-05 until final iterations.
 Initial convergence to 1.0D-05 achieved.  Increase integral accuracy.
 SCF Done:  E(RB3LYP) =  -330.592305046     A.U. after   12 cycles
            NFock= 12  Conv=0.35D-08     -V/T= 2.0098

 **********************************************************************

            Population analysis using the SCF Density.

 **********************************************************************

 Orbital symmetries:
       Occupied  (A) (A) (A) (A) (A) (A) (A) (A) (A) (A) (A) (A)
                 (A) (A) (A) (A) (A) (A) (A) (A) (A) (A) (A) (A)
                 (A) (A) (A) (A) (A) (A) (A) (A)
       Virtual   (A) (A) (A) (A) (A) (A) (A) (A) (A) (A) (A) (A)
                 (A) (A) (A) (A) (A) (A) (A) (A) (A) (A) (A) (A)
                 (A) (A) (A) (A) (A) (A) (A) (A) (A) (A) (A) (A)
                 (A) (A) (A) (A) (A) (A) (A) (A) (A) (A) (A) (A)
                 (A) (A) (A) (A) (A) (A) (A) (A) (A) (A) (A) (A)
                 (A) (A) (A) (A) (A) (A) (A) (A) (A) (A) (A) (A)
                 (A) (A) (A) (A) (A) (A) (A) (A) (A) (A) (A) (A)
                 (A) (A) (A) (A) (A) (A) (A) (A) (A) (A) (A) (A)
                 (A) (A) (A) (A) (A) (A) (A) (A) (A) (A) (A) (A)
                 (A) (A) (A) (A) (A) (A) (A) (A) (A) (A) (A) (A)
                 (A) (A) (A) (A) (A) (A) (A) (A) (A) (A) (A) (A)
                 (A) (A) (A) (A) (A) (A) (A) (A) (A) (A) (A) (A)
                 (A) (A) (A) (A) (A) (A) (A) (A) (A) (A) (A) (A)
                 (A) (A) (A) (A) (A) (A) (A)
 The electronic state is 1-A.
 Alpha  occ. eigenvalues --  -14.30215 -10.19747 -10.17886 -10.17810 -10.17809
 Alpha  occ. eigenvalues --  -10.17686 -10.17667 -10.17665  -0.88025  -0.81927
 Alpha  occ. eigenvalues --   -0.74056  -0.73664  -0.65656  -0.60907  -0.58124
 Alpha  occ. eigenvalues --   -0.54659  -0.48500  -0.46949  -0.44082  -0.43766
 Alpha  occ. eigenvalues --   -0.43627  -0.40993  -0.38367  -0.37283  -0.37104
 Alpha  occ. eigenvalues --   -0.34975  -0.33490  -0.33279  -0.31620  -0.30211
 Alpha  occ. eigenvalues --   -0.29051  -0.22329
 Alpha virt. eigenvalues --    0.07995   0.09029   0.10922   0.11659   0.14896
 Alpha virt. eigenvalues --    0.14904   0.15926   0.16429   0.16476   0.17721
 Alpha virt. eigenvalues --    0.17784   0.18998   0.19195   0.20869   0.20888
 Alpha virt. eigenvalues --    0.22923   0.24800   0.25589   0.27417   0.28665
 Alpha virt. eigenvalues --    0.28721   0.28985   0.28998   0.51376   0.51629
 Alpha virt. eigenvalues --    0.53340   0.53800   0.54087   0.56457   0.56478
 Alpha virt. eigenvalues --    0.59381   0.62892   0.63446   0.66070   0.67035
 Alpha virt. eigenvalues --    0.69209   0.72115   0.72752   0.74700   0.75418
 Alpha virt. eigenvalues --    0.76414   0.78914   0.81968   0.82651   0.83566
 Alpha virt. eigenvalues --    0.86967   0.87136   0.87666   0.88676   0.88748
 Alpha virt. eigenvalues --    0.89630   0.90966   0.91335   0.92981   0.94412
 Alpha virt. eigenvalues --    0.95192   0.97251   0.98142   1.01643   1.04044
 Alpha virt. eigenvalues --    1.09315   1.12080   1.14752   1.27124   1.28486
 Alpha virt. eigenvalues --    1.30934   1.34782   1.37063   1.40468   1.47758
 Alpha virt. eigenvalues --    1.51114   1.54728   1.60539   1.60827   1.61848
 Alpha virt. eigenvalues --    1.64091   1.69880   1.72770   1.74120   1.76398
 Alpha virt. eigenvalues --    1.79971   1.81198   1.84407   1.85779   1.90202
 Alpha virt. eigenvalues --    1.90212   1.93377   1.94869   1.96958   1.97712
 Alpha virt. eigenvalues --    1.98807   2.02603   2.10141   2.10809   2.12156
 Alpha virt. eigenvalues --    2.12221   2.15269   2.15721   2.18148   2.20309
 Alpha virt. eigenvalues --    2.22079   2.24043   2.25561   2.27072   2.29958
 Alpha virt. eigenvalues --    2.31363   2.32464   2.34705   2.35672   2.37920
 Alpha virt. eigenvalues --    2.38567   2.40056   2.40563   2.43789   2.48027
 Alpha virt. eigenvalues --    2.49121   2.53162   2.55345   2.57099   2.59361
 Alpha virt. eigenvalues --    2.61758   2.66356   2.67523   2.69754   2.72779
 Alpha virt. eigenvalues --    2.73899   2.78496   2.81799   2.82274   2.82394
 Alpha virt. eigenvalues --    2.85538   2.87368   2.88656   2.90092   2.90680
 Alpha virt. eigenvalues --    2.94962   2.95024   2.97309   2.97661   3.01095
 Alpha virt. eigenvalues --    3.22207   3.30506   3.31043   3.31953   3.32313
 Alpha virt. eigenvalues --    3.34309   3.35345   3.41175   3.43585   3.48220
 Alpha virt. eigenvalues --    3.48915   3.53741   3.53873   3.59950   3.60900
 Alpha virt. eigenvalues --    3.99077   4.29579   4.43336   4.44933   4.59049
 Alpha virt. eigenvalues --    4.73193   4.74225   4.77286
          Condensed to atoms (all electrons):
               1          2          3          4          5          6
     1  N    6.697306   0.343200  -0.074664  -0.010794   0.000424  -0.000048
     2  C    0.343200   4.818284   0.355751  -0.037439   0.003604   0.000351
     3  C   -0.074664   0.355751   5.000405   0.378593  -0.033529  -0.014849
     4  C   -0.010794  -0.037439   0.378593   4.961311   0.370224  -0.042085
     5  C    0.000424   0.003604  -0.033529   0.370224   4.899428   0.382206
     6  C   -0.000048   0.000351  -0.014849  -0.042085   0.382206   4.899210
     7  C    0.000424   0.003604  -0.033529  -0.013448  -0.044851   0.382202
     8  C   -0.010794  -0.037436   0.378592  -0.047550  -0.013448  -0.042089
     9  H    0.353020  -0.048274  -0.004685  -0.000712   0.000003   0.000002
    10  H    0.353002  -0.048274  -0.004687   0.004365  -0.000159   0.000002
    11  H   -0.038450   0.381496  -0.043560  -0.006194   0.000055  -0.000001
    12  H   -0.038448   0.381494  -0.043557   0.004947  -0.000136  -0.000001
    13  H    0.006019  -0.033414   0.355230  -0.048075  -0.003945  -0.001583
    14  H    0.006485  -0.006041  -0.040142   0.365585  -0.034327  -0.005039
    15  H   -0.000139  -0.003296  -0.036655   0.371445  -0.030774   0.004671
    16  H    0.000005  -0.000127   0.004376  -0.032941   0.376298  -0.032339
    17  H   -0.000006  -0.000022  -0.006588  -0.038062   0.382936  -0.039819
    18  H   -0.000011  -0.000023  -0.001266  -0.004141  -0.040359   0.381865
    19  H    0.000000   0.000004   0.000287   0.004758  -0.032684   0.376346
    20  H    0.000005  -0.000127   0.004376   0.000094   0.004741  -0.032335
    21  H   -0.000006  -0.000022  -0.006590  -0.000801  -0.003996  -0.039820
    22  H    0.006485  -0.006042  -0.040144  -0.009125  -0.000255  -0.005040
    23  H   -0.000139  -0.003296  -0.036658   0.005559   0.000163   0.004672
               7          8          9         10         11         12
     1  N    0.000424  -0.010794   0.353020   0.353002  -0.038450  -0.038448
     2  C    0.003604  -0.037436  -0.048274  -0.048274   0.381496   0.381494
     3  C   -0.033529   0.378592  -0.004685  -0.004687  -0.043560  -0.043557
     4  C   -0.013448  -0.047550  -0.000712   0.004365  -0.006194   0.004947
     5  C   -0.044851  -0.013448   0.000003  -0.000159   0.000055  -0.000136
     6  C    0.382202  -0.042089   0.000002   0.000002  -0.000001  -0.000001
     7  C    4.899424   0.370232  -0.000160   0.000003  -0.000136   0.000055
     8  C    0.370232   4.961331   0.004365  -0.000713   0.004947  -0.006194
     9  H   -0.000160   0.004365   0.489617  -0.038417   0.006899  -0.005716
    10  H    0.000003  -0.000713  -0.038417   0.489655  -0.005717   0.006898
    11  H   -0.000136   0.004947   0.006899  -0.005717   0.637213  -0.036987
    12  H    0.000055  -0.006194  -0.005716   0.006898  -0.036987   0.637207
    13  H   -0.003944  -0.048082   0.000107   0.000107  -0.001214  -0.001214
    14  H   -0.000255  -0.009124   0.000745   0.006012   0.000140   0.000033
    15  H    0.000163   0.005558   0.000063   0.000420   0.005109  -0.000017
    16  H    0.004742   0.000094   0.000000   0.000011  -0.000002   0.000003
    17  H   -0.003996  -0.000801  -0.000000   0.000004  -0.000009  -0.000005
    18  H   -0.040367  -0.004140  -0.000002  -0.000002  -0.000000  -0.000000
    19  H   -0.032680   0.004758  -0.000000  -0.000000  -0.000000  -0.000000
    20  H    0.376306  -0.032941   0.000011   0.000000   0.000003  -0.000002
    21  H    0.382923  -0.038068   0.000004  -0.000000  -0.000005  -0.000009
    22  H   -0.034329   0.365566   0.006013   0.000746   0.000033   0.000140
    23  H   -0.030777   0.371441   0.000420   0.000063  -0.000017   0.005109
              13         14         15         16         17         18
     1  N    0.006019   0.006485  -0.000139   0.000005  -0.000006  -0.000011
     2  C   -0.033414  -0.006041  -0.003296  -0.000127  -0.000022  -0.000023
     3  C    0.355230  -0.040142  -0.036655   0.004376  -0.006588  -0.001266
     4  C   -0.048075   0.365585   0.371445  -0.032941  -0.038062  -0.004141
     5  C   -0.003945  -0.034327  -0.030774   0.376298   0.382936  -0.040359
     6  C   -0.001583  -0.005039   0.004671  -0.032339  -0.039819   0.381865
     7  C   -0.003944  -0.000255   0.000163   0.004742  -0.003996  -0.040367
     8  C   -0.048082  -0.009124   0.005558   0.000094  -0.000801  -0.004140
     9  H    0.000107   0.000745   0.000063   0.000000  -0.000000  -0.000002
    10  H    0.000107   0.006012   0.000420   0.000011   0.000004  -0.000002
    11  H   -0.001214   0.000140   0.005109  -0.000002  -0.000009  -0.000000
    12  H   -0.001214   0.000033  -0.000017   0.000003  -0.000005  -0.000000
    13  H    0.689297   0.007372  -0.004381   0.000034   0.005448   0.000193
    14  H    0.007372   0.663019  -0.043253  -0.004375   0.005855   0.004208
    15  H   -0.004381  -0.043253   0.654169  -0.002597  -0.005159  -0.000063
    16  H    0.000034  -0.004375  -0.002597   0.645920  -0.039317  -0.005751
    17  H    0.005448   0.005855  -0.005159  -0.039317   0.642072   0.006185
    18  H    0.000193   0.004208  -0.000063  -0.005751   0.006185   0.648041
    19  H   -0.000049  -0.000044  -0.000177  -0.002052  -0.005410  -0.038869
    20  H    0.000033  -0.000016   0.000014  -0.000164  -0.000081  -0.005750
    21  H    0.005449   0.000141  -0.000023  -0.000081   0.003983   0.006186
    22  H    0.007372   0.006064   0.000010  -0.000016   0.000140   0.004208
    23  H   -0.004381   0.000010  -0.000200   0.000014  -0.000023  -0.000063
              19         20         21         22         23
     1  N    0.000000   0.000005  -0.000006   0.006485  -0.000139
     2  C    0.000004  -0.000127  -0.000022  -0.006042  -0.003296
     3  C    0.000287   0.004376  -0.006590  -0.040144  -0.036658
     4  C    0.004758   0.000094  -0.000801  -0.009125   0.005559
     5  C   -0.032684   0.004741  -0.003996  -0.000255   0.000163
     6  C    0.376346  -0.032335  -0.039820  -0.005040   0.004672
     7  C   -0.032680   0.376306   0.382923  -0.034329  -0.030777
     8  C    0.004758  -0.032941  -0.038068   0.365566   0.371441
     9  H   -0.000000   0.000011   0.000004   0.006013   0.000420
    10  H   -0.000000   0.000000  -0.000000   0.000746   0.000063
    11  H   -0.000000   0.000003  -0.000005   0.000033  -0.000017
    12  H   -0.000000  -0.000002  -0.000009   0.000140   0.005109
    13  H   -0.000049   0.000033   0.005449   0.007372  -0.004381
    14  H   -0.000044  -0.000016   0.000141   0.006064   0.000010
    15  H   -0.000177   0.000014  -0.000023   0.000010  -0.000200
    16  H   -0.002052  -0.000164  -0.000081  -0.000016   0.000014
    17  H   -0.005410  -0.000081   0.003983   0.000140  -0.000023
    18  H   -0.038869  -0.005750   0.006186   0.004208  -0.000063
    19  H    0.645091  -0.002051  -0.005409  -0.000044  -0.000177
    20  H   -0.002051   0.645897  -0.039318  -0.004376  -0.002597
    21  H   -0.005409  -0.039318   0.642115   0.005855  -0.005161
    22  H   -0.000044  -0.004376   0.005855   0.663075  -0.043252
    23  H   -0.000177  -0.002597  -0.005161  -0.043252   0.654181
 Mulliken charges:
               1
     1  N   -0.592876
     2  C   -0.063954
     3  C   -0.056507
     4  C   -0.175514
     5  C   -0.181619
     6  C   -0.176482
     7  C   -0.181609
     8  C   -0.175504
     9  H    0.236695
    10  H    0.236678
    11  H    0.096398
    12  H    0.096400
    13  H    0.073619
    14  H    0.076949
    15  H    0.085109
    16  H    0.088266
    17  H    0.092674
    18  H    0.089920
    19  H    0.088404
    20  H    0.088278
    21  H    0.092654
    22  H    0.076916
    23  H    0.085108
 Sum of Mulliken charges =  -0.00000
 Mulliken charges with hydrogens summed into heavy atoms:
               1
     1  N   -0.119504
     2  C    0.128844
     3  C    0.017112
     4  C   -0.013457
     5  C   -0.000680
     6  C    0.001842
     7  C   -0.000677
     8  C   -0.013480
 Electronic spatial extent (au):  <R**2>=           1140.3034
 Charge=             -0.0000 electrons
 Dipole moment (field-independent basis, Debye):
    X=              1.5024    Y=             -0.0000    Z=              0.0582  Tot=              1.5035
 Quadrupole moment (field-independent basis, Debye-Ang):
   XX=            -60.7262   YY=            -50.7967   ZZ=            -50.4043
   XY=              0.0001   XZ=              0.9666   YZ=              0.0000
 Traceless Quadrupole moment (field-independent basis, Debye-Ang):
   XX=             -6.7505   YY=              3.1791   ZZ=              3.5715
   XY=              0.0001   XZ=              0.9666   YZ=              0.0000
 Octapole moment (field-independent basis, Debye-Ang**2):
  XXX=             33.3849  YYY=             -0.0003  ZZZ=              4.2413  XYY=             -5.4668
  XXY=             -0.0009  XXZ=             -7.0815  XZZ=             -3.9621  YZZ=              0.0005
  YYZ=              2.0908  XYZ=             -0.0004
 Hexadecapole moment (field-independent basis, Debye-Ang**3):
 XXXX=          -1127.2239 YYYY=           -381.3045 ZZZZ=           -169.7899 XXXY=              0.0025
 XXXZ=             26.7921 YYYX=             -0.0014 YYYZ=             -0.0002 ZZZX=            -10.2747
 ZZZY=              0.0001 XXYY=           -217.9035 XXZZ=           -190.3620 YYZZ=            -90.1574
 XXYZ=             -0.0013 YYXZ=             -2.4956 ZZXY=              0.0007
 N-N= 4.078819218138D+02 E-N=-1.580710510992D+03  KE= 3.273866146765D+02
 Calling FoFJK, ICntrl=      2127 FMM=F ISym2X=0 I1Cent= 0 IOpClX= 0 NMat=1 NMatS=1 NMatT=0.
 ***** Axes restored to original set *****
 -------------------------------------------------------------------
 Center     Atomic                   Forces (Hartrees/Bohr)
 Number     Number              X              Y              Z
 -------------------------------------------------------------------
      1        7           0.015138622   -0.001434788   -0.000993324
      2        6          -0.015126789   -0.001406659   -0.005389226
      3        6          -0.003497206   -0.001744461   -0.004317460
      4        6          -0.000321998    0.003433637    0.011381930
      5        6           0.002838337   -0.010181258   -0.003933087
      6        6           0.004625404    0.001863255    0.004784032
      7        6           0.003765131    0.003306842   -0.010055786
      8        6          -0.000056058    0.006385586    0.009899224
      9        1          -0.000968439   -0.004959590   -0.000686050
     10        1          -0.000387745    0.002721943   -0.004178242
     11        1           0.000601330    0.003249292   -0.001366310
     12        1           0.000150856   -0.003201402    0.001611469
     13        1          -0.002146707    0.002472883    0.005024472
     14        1          -0.002707382   -0.005311068   -0.003275710
     15        1           0.001819114    0.004680809    0.001561350
     16        1          -0.001503867    0.001489805   -0.002783899
     17        1           0.001024867    0.001057178    0.004324962
     18        1           0.001529851   -0.002000924   -0.004119927
     19        1          -0.003158918    0.000783209    0.001221503
     20        1          -0.001827209   -0.002919986   -0.000772757
     21        1           0.001128679    0.002461547    0.003627879
     22        1          -0.002261956    0.001286929   -0.006223423
     23        1           0.001342084   -0.002032778    0.004658380
 -------------------------------------------------------------------
 Cartesian Forces:  Max     0.015138622 RMS     0.004613361

 GradGradGradGradGradGradGradGradGradGradGradGradGradGradGradGradGradGrad
 Berny optimization.
 FormGI is forming the generalized inverse of G from B-inverse, IUseBI=4.
 Internal  Forces:  Max     0.023921361 RMS     0.003278704
 Search for a local minimum.
 Step number   1 out of a maximum of  138
 All quantities printed in internal units (Hartrees-Bohrs-Radians)
 Mixed Optimization -- RFO/linear search
 Second derivative matrix not updated -- first step.
 ITU=  0
     Eigenvalues ---    0.00230   0.00413   0.00418   0.00540   0.00980
     Eigenvalues ---    0.01767   0.01772   0.03295   0.03603   0.03841
     Eigenvalues ---    0.03978   0.04113   0.04352   0.04584   0.04643
     Eigenvalues ---    0.04724   0.04786   0.05354   0.05363   0.05475
     Eigenvalues ---    0.06010   0.06423   0.08088   0.08095   0.08106
     Eigenvalues ---    0.08118   0.08246   0.08285   0.08534   0.09503
     Eigenvalues ---    0.12084   0.12106   0.12882   0.14087   0.15923
     Eigenvalues ---    0.16000   0.16000   0.17365   0.20997   0.21910
     Eigenvalues ---    0.26523   0.26579   0.27120   0.27920   0.27961
     Eigenvalues ---    0.27991   0.28268   0.34572   0.34575   0.34579
     Eigenvalues ---    0.34642   0.34642   0.34651   0.34673   0.34673
     Eigenvalues ---    0.34684   0.34697   0.34703   0.34710   0.34726
     Eigenvalues ---    0.37754   0.45922   0.45941
 RFO step:  Lambda=-6.94128157D-03 EMin= 2.30000000D-03
 Linear search not attempted -- first point.
 Iteration  1 RMS(Cart)=  0.05064045 RMS(Int)=  0.00143602
 Iteration  2 RMS(Cart)=  0.00195822 RMS(Int)=  0.00016741
 Iteration  3 RMS(Cart)=  0.00000271 RMS(Int)=  0.00016739
 Iteration  4 RMS(Cart)=  0.00000000 RMS(Int)=  0.00016739
 Variable       Old X    -DE/DX   Delta X   Delta X   Delta X     New X
                                 (Linear)    (Quad)   (Total)
    R1        2.74724   0.01029   0.00000   0.02677   0.02677   2.77402
    R2        1.90897   0.00492   0.00000   0.01055   0.01055   1.91952
    R3        1.90919   0.00482   0.00000   0.01033   0.01033   1.91952
    R4        2.92314   0.00087   0.00000   0.00305   0.00305   2.92619
    R5        2.06375   0.00304   0.00000   0.00863   0.00863   2.07237
    R6        2.06371   0.00305   0.00000   0.00866   0.00866   2.07237
    R7        2.92661  -0.00616   0.00000  -0.01895  -0.01899   2.90761
    R8        2.92659  -0.00616   0.00000  -0.01894  -0.01898   2.90761
    R9        2.06364   0.00589   0.00000   0.01670   0.01670   2.08033
   R10        2.91563  -0.00509   0.00000  -0.01752  -0.01752   2.89811
   R11        2.06122   0.00456   0.00000   0.01288   0.01288   2.07410
   R12        2.06208   0.00498   0.00000   0.01408   0.01408   2.07617
   R13        2.91858  -0.00438   0.00000  -0.01792  -0.01787   2.90071
   R14        2.06170   0.00344   0.00000   0.00972   0.00972   2.07143
   R15        2.06245   0.00410   0.00000   0.01161   0.01161   2.07407
   R16        2.91863  -0.00439   0.00000  -0.01795  -0.01791   2.90072
   R17        2.06260   0.00455   0.00000   0.01286   0.01286   2.07546
   R18        2.06191   0.00345   0.00000   0.00975   0.00975   2.07166
   R19        2.91549  -0.00506   0.00000  -0.01742  -0.01742   2.89807
   R20        2.06160   0.00347   0.00000   0.00981   0.00981   2.07142
   R21        2.06260   0.00406   0.00000   0.01149   0.01149   2.07408
   R22        2.06149   0.00447   0.00000   0.01264   0.01264   2.07413
   R23        2.06210   0.00498   0.00000   0.01407   0.01407   2.07617
    A1        1.91350   0.00144   0.00000   0.01359   0.01345   1.92695
    A2        1.91346   0.00145   0.00000   0.01362   0.01347   1.92693
    A3        1.85298  -0.00021   0.00000   0.00914   0.00885   1.86183
    A4        1.96218   0.02392   0.00000   0.11107   0.11124   2.07342
    A5        1.90459  -0.00783   0.00000  -0.03073  -0.03087   1.87371
    A6        1.90461  -0.00783   0.00000  -0.03077  -0.03090   1.87371
    A7        1.91942  -0.00688   0.00000  -0.02857  -0.02871   1.89071
    A8        1.91945  -0.00688   0.00000  -0.02859  -0.02873   1.89072
    A9        1.85014   0.00426   0.00000   0.00078  -0.00047   1.84967
   A10        1.97327  -0.00031   0.00000  -0.00251  -0.00249   1.97078
   A11        1.97329  -0.00032   0.00000  -0.00253  -0.00252   1.97078
   A12        1.86879   0.00091   0.00000   0.00457   0.00446   1.87325
   A13        1.89888   0.00131   0.00000   0.02231   0.02210   1.92098
   A14        1.87202  -0.00085   0.00000  -0.01187  -0.01176   1.86026
   A15        1.87195  -0.00084   0.00000  -0.01181  -0.01170   1.86025
   A16        1.94214   0.00040   0.00000   0.00541   0.00487   1.94702
   A17        1.93232  -0.00057   0.00000  -0.01922  -0.01957   1.91275
   A18        1.91124   0.00010   0.00000   0.00944   0.00947   1.92071
   A19        1.93330  -0.00222   0.00000  -0.03272  -0.03290   1.90040
   A20        1.91285   0.00056   0.00000   0.00968   0.00972   1.92257
   A21        1.82858   0.00182   0.00000   0.02936   0.02958   1.85816
   A22        1.94524   0.00073   0.00000   0.00411   0.00398   1.94922
   A23        1.92102   0.00007   0.00000   0.00077   0.00081   1.92183
   A24        1.91230  -0.00108   0.00000  -0.01076  -0.01072   1.90158
   A25        1.91968  -0.00053   0.00000  -0.00315  -0.00308   1.91660
   A26        1.91118   0.00006   0.00000  -0.00068  -0.00069   1.91049
   A27        1.85211   0.00074   0.00000   0.00988   0.00987   1.86198
   A28        1.96110  -0.00112   0.00000  -0.00946  -0.00965   1.95145
   A29        1.90547   0.00017   0.00000   0.00010   0.00013   1.90561
   A30        1.91943   0.00025   0.00000  -0.00017  -0.00015   1.91928
   A31        1.90538   0.00017   0.00000   0.00018   0.00021   1.90559
   A32        1.91946   0.00024   0.00000  -0.00021  -0.00018   1.91928
   A33        1.84955   0.00038   0.00000   0.01077   0.01074   1.86029
   A34        1.94524   0.00073   0.00000   0.00410   0.00397   1.94922
   A35        1.91975  -0.00054   0.00000  -0.00322  -0.00314   1.91661
   A36        1.91113   0.00006   0.00000  -0.00065  -0.00065   1.91048
   A37        1.92109   0.00007   0.00000   0.00073   0.00077   1.92186
   A38        1.91224  -0.00108   0.00000  -0.01071  -0.01067   1.90157
   A39        1.85206   0.00074   0.00000   0.00991   0.00989   1.86196
   A40        1.94223   0.00039   0.00000   0.00534   0.00480   1.94704
   A41        1.93226  -0.00056   0.00000  -0.01918  -0.01953   1.91273
   A42        1.91123   0.00010   0.00000   0.00945   0.00948   1.92071
   A43        1.93333  -0.00222   0.00000  -0.03273  -0.03291   1.90042
   A44        1.91289   0.00057   0.00000   0.00967   0.00971   1.92260
   A45        1.82849   0.00182   0.00000   0.02940   0.02962   1.85810
    D1       -1.01387  -0.00070   0.00000  -0.01329  -0.01337  -1.02724
    D2        3.13492  -0.00246   0.00000  -0.02972  -0.02949   3.10543
    D3        1.12059   0.00105   0.00000   0.00309   0.00271   1.12329
    D4        1.01383   0.00070   0.00000   0.01333   0.01341   1.02724
    D5       -1.12057  -0.00105   0.00000  -0.00310  -0.00271  -1.12328
    D6       -3.13490   0.00246   0.00000   0.02971   0.02949  -3.10542
    D7       -1.08372  -0.00063   0.00000  -0.01307  -0.01298  -1.09670
    D8        1.08372   0.00063   0.00000   0.01304   0.01295   1.09667
    D9        3.14156   0.00000   0.00000   0.00002   0.00002   3.14157
   D10        1.04226   0.00081   0.00000   0.00323   0.00312   1.04538
   D11       -3.07348   0.00208   0.00000   0.02933   0.02905  -3.04443
   D12       -1.01564   0.00144   0.00000   0.01631   0.01612  -0.99953
   D13        3.07342  -0.00208   0.00000  -0.02931  -0.02903   3.04439
   D14       -1.04232  -0.00081   0.00000  -0.00321  -0.00310  -1.04542
   D15        1.01552  -0.00144   0.00000  -0.01623  -0.01604   0.99948
   D16       -3.04625  -0.00163   0.00000  -0.03134  -0.03133  -3.07758
   D17        1.07885   0.00135   0.00000   0.02080   0.02078   1.09963
   D18       -0.92881  -0.00059   0.00000  -0.00932  -0.00928  -0.93809
   D19        1.02933  -0.00201   0.00000  -0.04358  -0.04366   0.98567
   D20       -1.12875   0.00097   0.00000   0.00855   0.00844  -1.12031
   D21       -3.13641  -0.00097   0.00000  -0.02157  -0.02161   3.12516
   D22       -0.99024  -0.00124   0.00000  -0.03482  -0.03478  -1.02502
   D23        3.13486   0.00174   0.00000   0.01732   0.01732  -3.13100
   D24        1.12720  -0.00020   0.00000  -0.01281  -0.01273   1.11447
   D25        3.04628   0.00163   0.00000   0.03131   0.03130   3.07758
   D26       -1.07876  -0.00135   0.00000  -0.02086  -0.02084  -1.09960
   D27        0.92874   0.00060   0.00000   0.00934   0.00929   0.93804
   D28       -1.02932   0.00201   0.00000   0.04357   0.04365  -0.98567
   D29        1.12882  -0.00097   0.00000  -0.00860  -0.00849   1.12034
   D30        3.13633   0.00098   0.00000   0.02161   0.02164  -3.12521
   D31        0.99029   0.00124   0.00000   0.03477   0.03473   1.02502
   D32       -3.13475  -0.00175   0.00000  -0.01740  -0.01740   3.13103
   D33       -1.12724   0.00020   0.00000   0.01280   0.01273  -1.11452
   D34       -0.97605   0.00089   0.00000   0.01292   0.01295  -0.96310
   D35       -3.11087   0.00103   0.00000   0.01360   0.01359  -3.09728
   D36        1.14202   0.00072   0.00000   0.00747   0.00744   1.14946
   D37        1.18147  -0.00115   0.00000  -0.03155  -0.03139   1.15009
   D38       -0.95334  -0.00101   0.00000  -0.03087  -0.03075  -0.98409
   D39       -2.98364  -0.00132   0.00000  -0.03700  -0.03689  -3.02053
   D40       -3.09255   0.00013   0.00000  -0.00897  -0.00898  -3.10153
   D41        1.05582   0.00026   0.00000  -0.00829  -0.00834   1.04748
   D42       -0.97448  -0.00005   0.00000  -0.01442  -0.01448  -0.98896
   D43        0.90647  -0.00019   0.00000   0.02061   0.02060   0.92707
   D44       -1.21002   0.00021   0.00000   0.02654   0.02653  -1.18349
   D45        3.05081  -0.00048   0.00000   0.01361   0.01359   3.06439
   D46        3.04206   0.00003   0.00000   0.02219   0.02219   3.06425
   D47        0.92557   0.00042   0.00000   0.02811   0.02812   0.95369
   D48       -1.09679  -0.00027   0.00000   0.01519   0.01518  -1.08162
   D49       -1.21225   0.00065   0.00000   0.03193   0.03195  -1.18030
   D50        2.95445   0.00105   0.00000   0.03785   0.03788   2.99233
   D51        0.93209   0.00036   0.00000   0.02493   0.02494   0.95702
   D52       -0.90641   0.00019   0.00000  -0.02066  -0.02065  -0.92706
   D53       -3.04215  -0.00002   0.00000  -0.02213  -0.02213  -3.06428
   D54        1.21220  -0.00065   0.00000  -0.03189  -0.03191   1.18030
   D55        1.21013  -0.00022   0.00000  -0.02663  -0.02662   1.18351
   D56       -0.92560  -0.00043   0.00000  -0.02810  -0.02811  -0.95371
   D57       -2.95444  -0.00105   0.00000  -0.03785  -0.03788  -2.99232
   D58       -3.05073   0.00048   0.00000  -0.01368  -0.01365  -3.06438
   D59        1.09672   0.00027   0.00000  -0.01515  -0.01514   1.08158
   D60       -0.93212  -0.00036   0.00000  -0.02490  -0.02491  -0.95703
   D61        0.97595  -0.00089   0.00000  -0.01285  -0.01287   0.96308
   D62       -1.18158   0.00115   0.00000   0.03163   0.03147  -1.15011
   D63        3.09252  -0.00013   0.00000   0.00901   0.00902   3.10154
   D64        3.11092  -0.00103   0.00000  -0.01364  -0.01363   3.09729
   D65        0.95338   0.00101   0.00000   0.03084   0.03071   0.98410
   D66       -1.05570  -0.00026   0.00000   0.00822   0.00827  -1.04744
   D67       -1.14202  -0.00072   0.00000  -0.00747  -0.00744  -1.14946
   D68        2.98364   0.00132   0.00000   0.03700   0.03690   3.02053
   D69        0.97455   0.00005   0.00000   0.01439   0.01445   0.98900
         Item               Value     Threshold  Converged?
 Maximum Force            0.023921     0.000450     NO 
 RMS     Force            0.003279     0.000300     NO 
 Maximum Displacement     0.304571     0.001800     NO 
 RMS     Displacement     0.050298     0.001200     NO 
 Predicted change in Energy=-3.680837D-03
 GradGradGradGradGradGradGradGradGradGradGradGradGradGradGradGradGradGrad

                          Input orientation:                          
 ---------------------------------------------------------------------
 Center     Atomic      Atomic             Coordinates (Angstroms)
 Number     Number       Type             X           Y           Z
 ---------------------------------------------------------------------
      1          7           0        3.256024    0.007333    0.189259
      2          6           0        2.741402    0.612693    1.423589
      3          6           0        1.212012    0.794411    1.583946
      4          6           0        0.608329    1.744702    0.535166
      5          6           0       -0.888740    1.973104    0.777200
      6          6           0       -1.663368    0.648916    0.828831
      7          6           0       -1.051102   -0.330920    1.839406
      8          6           0        0.447261   -0.540709    1.588817
      9          1           0        2.868093   -0.922842    0.062513
     10          1           0        2.972172    0.554051   -0.618400
     11          1           0        3.218393    1.594424    1.530036
     12          1           0        3.106542    0.007176    2.261841
     13          1           0        1.038300    1.259616    2.566449
     14          1           0        0.745391    1.320693   -0.467871
     15          1           0        1.143840    2.703979    0.543562
     16          1           0       -1.303702    2.615936   -0.007734
     17          1           0       -1.018660    2.510006    1.725602
     18          1           0       -1.658422    0.188804   -0.168417
     19          1           0       -2.713278    0.838970    1.080599
     20          1           0       -1.578996   -1.290468    1.793238
     21          1           0       -1.191509    0.057316    2.856359
     22          1           0        0.578794   -1.043708    0.622186
     23          1           0        0.867825   -1.212881    2.349323
 ---------------------------------------------------------------------
                    Distance matrix (angstroms):
                    1          2          3          4          5
     1  N    0.000000
     2  C    1.467946   0.000000
     3  C    2.596658   1.548473   0.000000
     4  C    3.185654   2.573080   1.538643   0.000000
     5  C    4.624824   3.930199   2.540337   1.533611   0.000000
     6  C    5.002110   4.444890   2.976437   2.539211   1.534988
     7  C    4.624796   3.930190   2.540338   2.960229   2.542276
     8  C    3.185634   2.573076   1.538641   2.521751   2.960216
     9  H    1.015766   2.055832   2.829544   3.527850   4.796986
    10  H    1.015768   2.055824   2.829534   2.887234   4.343737
    11  H    2.077969   1.096653   2.160670   2.797282   4.192697
    12  H    2.077966   1.096652   2.160678   3.498782   4.693753
    13  H    3.483898   2.150627   1.100865   2.132204   2.724695
    14  H    2.908610   2.839532   2.169023   1.097567   2.155511
    15  H    3.443654   2.774911   2.175659   1.098660   2.172590
    16  H    5.256874   4.735455   3.490016   2.170173   1.096151
    17  H    5.186198   4.222449   2.817664   2.156368   1.097548
    18  H    4.930786   4.698150   3.417151   2.837958   2.161093
    19  H    6.092510   5.470135   3.957682   3.485817   2.169620
    20  H    5.256849   4.735451   3.490022   3.947074   3.487075
    21  H    5.186181   4.222447   2.817668   3.387421   2.843380
    22  H    2.908552   2.839504   2.169016   2.789924   3.358398
    23  H    3.443587   2.774886   2.175659   3.479339   3.963281
                    6          7          8          9         10
     6  C    0.000000
     7  C    1.534995   0.000000
     8  C    2.539201   1.533590   0.000000
     9  H    4.857140   4.343709   2.887223   0.000000
    10  H    4.857130   4.796949   3.527816   1.629628   0.000000
    11  H    5.021680   4.693746   3.498775   2.934785   2.399746
    12  H    5.021693   4.192704   2.797305   2.399758   2.934777
    13  H    3.269753   2.724702   2.132197   3.792224   3.792222
    14  H    2.816885   3.358383   2.789922   3.133787   2.359863
    15  H    3.490713   3.963280   3.479336   4.044537   3.052072
    16  H    2.167572   3.487075   3.947057   5.470992   4.786166
    17  H    2.164140   2.843390   3.387403   5.445839   5.024624
    18  H    1.098286   2.161088   2.837950   4.666736   4.666722
    19  H    1.096274   2.169622   3.485801   5.940722   5.940717
    20  H    2.167582   1.096146   2.170171   4.786142   5.470958
    21  H    2.164142   1.097558   2.156354   5.024604   5.445818
    22  H    2.816909   2.155517   1.097581   2.359816   3.133711
    23  H    3.490720   2.172592   1.098662   3.051998   4.044466
                   11         12         13         14         15
    11  H    0.000000
    12  H    1.751401   0.000000
    13  H    2.437017   2.437010   0.000000
    14  H    3.190973   3.840793   3.049037   0.000000
    15  H    2.551082   3.751990   2.487849   1.759329   0.000000
    16  H    4.884421   5.604182   3.735103   2.467421   2.510406
    17  H    4.339257   4.854792   2.549820   3.055760   2.472094
    18  H    5.351994   5.352012   3.987285   2.673791   3.832191
    19  H    5.996451   5.996459   4.056973   3.819975   4.317873
    20  H    5.604179   4.884438   3.735107   4.163358   4.993108
    21  H    4.854798   4.339263   2.549828   4.049470   4.219917
    22  H    3.840757   3.190978   3.049034   2.608902   3.790859
    23  H    3.751981   2.551087   2.487861   3.790854   4.321892
                   16         17         18         19         20
    16  H    0.000000
    17  H    1.759808   0.000000
    18  H    2.458173   3.063427   0.000000
    19  H    2.515746   2.465791   1.759397   0.000000
    20  H    4.310369   3.842156   2.458180   2.515742   0.000000
    21  H    3.842154   2.706321   3.063424   2.465783   1.759800
    22  H    4.163362   4.049478   2.673813   3.819995   2.467451
    23  H    4.993104   4.219923   3.832188   4.317876   2.510415
                   21         22         23
    21  H    0.000000
    22  H    3.055774   0.000000
    23  H    2.472113   1.759307   0.000000
 Stoichiometry    C7H15N
 Framework group  C1[X(C7H15N)]
 Deg. of freedom    63
 Full point group                 C1      NOp   1
 Largest Abelian subgroup         C1      NOp   1
 Largest concise Abelian subgroup C1      NOp   1
                         Standard orientation:                         
 ---------------------------------------------------------------------
 Center     Atomic      Atomic             Coordinates (Angstroms)
 Number     Number       Type             X           Y           Z
 ---------------------------------------------------------------------
      1          7           0       -2.769242   -0.000016    0.733136
      2          6           0       -2.094513    0.000017   -0.570554
      3          6           0       -0.546524    0.000016   -0.609309
      4          6           0        0.068636    1.260884    0.022523
      5          6           0        1.596209    1.271129   -0.113048
      6          6           0        2.226107   -0.000012    0.473139
      7          6           0        1.596182   -1.271147   -0.113053
      8          6           0        0.068629   -1.260867    0.022496
      9          1           0       -2.494755   -0.814841    1.273967
     10          1           0       -2.494745    0.814787    1.273999
     11          1           0       -2.453371    0.875736   -1.124616
     12          1           0       -2.453386   -0.875665   -1.124663
     13          1           0       -0.245018    0.000022   -1.668081
     14          1           0       -0.193800    1.304452    1.087362
     15          1           0       -0.358553    2.160959   -0.440541
     16          1           0        2.012767    2.155170    0.383440
     17          1           0        1.859243    1.353159   -1.175449
     18          1           0        2.091190   -0.000022    1.563107
     19          1           0        3.307249   -0.000026    0.291621
     20          1           0        2.012738   -2.155199    0.383403
     21          1           0        1.859226   -1.353162   -1.175463
     22          1           0       -0.193846   -1.304450    1.087340
     23          1           0       -0.358601   -2.160933   -0.440552
 ---------------------------------------------------------------------
 Rotational constants (GHZ):           3.5682294           1.3445637           1.1339944
 Standard basis: 6-31G(d,p) (6D, 7F)
 There are   195 symmetry adapted cartesian basis functions of A   symmetry.
 There are   195 symmetry adapted basis functions of A   symmetry.
   195 basis functions,   329 primitive gaussians,   195 cartesian basis functions
    32 alpha electrons       32 beta electrons
       nuclear repulsion energy       406.4869085814 Hartrees.
 NAtoms=   23 NActive=   23 NUniq=   23 SFac= 1.00D+00 NAtFMM=   60 NAOKFM=F Big=F
 Integral buffers will be    131072 words long.
 Raffenetti 2 integral format.
 Two-electron integral symmetry is turned on.
 Nuclear repulsion after empirical dispersion term =      406.4504704479 Hartrees.
 One-electron integrals computed using PRISM.
 NBasis=   195 RedAO= T EigKep=  3.53D-03  NBF=   195
 NBsUse=   195 1.00D-06 EigRej= -1.00D+00 NBFU=   195
 Initial guess from the checkpoint file:  "N2_conf-2.chk"
 B after Tr=    -0.000000   -0.000000    0.000000
         Rot=    0.999976   -0.000003    0.006965    0.000001 Ang=  -0.80 deg.
 ExpMin= 1.61D-01 ExpMax= 4.17D+03 ExpMxC= 6.27D+02 IAcc=3 IRadAn=         5 AccDes= 0.00D+00
 Harris functional with IExCor=  402 and IRadAn=       5 diagonalized for initial guess.
 HarFok:  IExCor=  402 AccDes= 0.00D+00 IRadAn=         5 IDoV= 1 UseB2=F ITyADJ=14
 ICtDFT=  3500011 ScaDFX=  1.000000  1.000000  1.000000  1.000000
 FoFCou: FMM=F IPFlag=           0 FMFlag=      100000 FMFlg1=           0
         NFxFlg=           0 DoJE=T BraDBF=F KetDBF=T FulRan=T
         wScrn=  0.000000 ICntrl=       500 IOpCl=  0 I1Cent=   200000004 NGrid=           0
         NMat0=    1 NMatS0=      1 NMatT0=    0 NMatD0=    1 NMtDS0=    0 NMtDT0=    0
 Petite list used in FoFCou.
 Requested convergence on RMS density matrix=1.00D-08 within 128 cycles.
 Requested convergence on MAX density matrix=1.00D-06.
 Requested convergence on             energy=1.00D-06.
 No special actions if energy rises.
 Integral accuracy reduced to 1.0D-05 until final iterations.
 Initial convergence to 1.0D-05 achieved.  Increase integral accuracy.
 SCF Done:  E(RB3LYP) =  -330.595209798     A.U. after   11 cycles
            NFock= 11  Conv=0.27D-08     -V/T= 2.0100
 Calling FoFJK, ICntrl=      2127 FMM=F ISym2X=0 I1Cent= 0 IOpClX= 0 NMat=1 NMatS=1 NMatT=0.
 ***** Axes restored to original set *****
 -------------------------------------------------------------------
 Center     Atomic                   Forces (Hartrees/Bohr)
 Number     Number              X              Y              Z
 -------------------------------------------------------------------
      1        7          -0.001947303    0.001440345    0.002819649
      2        6          -0.001113110    0.000570926    0.001067978
      3        6          -0.000079354   -0.001514090   -0.003295503
      4        6           0.000840811    0.000400211    0.001022517
      5        6          -0.000386795   -0.000520696   -0.001507592
      6        6           0.000089896    0.000622683    0.001374085
      7        6          -0.000412232   -0.000751103   -0.001386701
      8        6           0.000856068    0.000407677    0.001001524
      9        1          -0.000875952   -0.000683936   -0.000099669
     10        1          -0.000794043    0.000463821   -0.000629117
     11        1           0.000241882    0.000481902   -0.000441262
     12        1           0.000159714   -0.000672132    0.000091642
     13        1           0.002878176    0.000228512    0.000933831
     14        1           0.000688055   -0.001084371   -0.000907006
     15        1          -0.000221334   -0.000689418    0.000293044
     16        1          -0.000091684    0.000627283    0.000348840
     17        1          -0.000348967    0.000009680    0.000734199
     18        1           0.000481540   -0.000184519   -0.000328992
     19        1          -0.000142500   -0.000237780   -0.000537914
     20        1          -0.000145243   -0.000131517    0.000694834
     21        1          -0.000306878    0.000588258    0.000461558
     22        1           0.000755522   -0.000064786   -0.001369404
     23        1          -0.000126267    0.000693050   -0.000340543
 -------------------------------------------------------------------
 Cartesian Forces:  Max     0.003295503 RMS     0.000955841

 GradGradGradGradGradGradGradGradGradGradGradGradGradGradGradGradGradGrad
 Berny optimization.
 Using GEDIIS/GDIIS optimizer.
 FormGI is forming the generalized inverse of G from B-inverse, IUseBI=4.
 Internal  Forces:  Max     0.005891658 RMS     0.000904176
 Search for a local minimum.
 Step number   2 out of a maximum of  138
 All quantities printed in internal units (Hartrees-Bohrs-Radians)
 Mixed Optimization -- En-DIIS/RFO-DIIS
 Update second derivatives using D2CorX and points    1    2
 DE= -2.90D-03 DEPred=-3.68D-03 R= 7.89D-01
 TightC=F SS=  1.41D+00  RLast= 2.52D-01 DXNew= 5.0454D-01 7.5639D-01
 Trust test= 7.89D-01 RLast= 2.52D-01 DXMaxT set to 5.05D-01
 ITU=  1  0
 Use linear search instead of GDIIS.
     Eigenvalues ---    0.00230   0.00412   0.00414   0.00527   0.00980
     Eigenvalues ---    0.01745   0.01773   0.03295   0.03532   0.03573
     Eigenvalues ---    0.03796   0.03979   0.04417   0.04418   0.04710
     Eigenvalues ---    0.04711   0.04753   0.05377   0.05410   0.05492
     Eigenvalues ---    0.06189   0.06413   0.08097   0.08103   0.08111
     Eigenvalues ---    0.08132   0.08133   0.08250   0.08588   0.10422
     Eigenvalues ---    0.12072   0.12075   0.13489   0.14225   0.15985
     Eigenvalues ---    0.16000   0.16022   0.17541   0.20963   0.24480
     Eigenvalues ---    0.26526   0.26572   0.27131   0.27335   0.27979
     Eigenvalues ---    0.28161   0.29734   0.33771   0.34573   0.34577
     Eigenvalues ---    0.34601   0.34643   0.34648   0.34671   0.34673
     Eigenvalues ---    0.34684   0.34696   0.34701   0.34718   0.34933
     Eigenvalues ---    0.39241   0.45667   0.45932
 RFO step:  Lambda=-6.33387026D-04 EMin= 2.30000000D-03
 Quartic linear search produced a step of -0.12339.
 Iteration  1 RMS(Cart)=  0.03862311 RMS(Int)=  0.00051835
 Iteration  2 RMS(Cart)=  0.00077682 RMS(Int)=  0.00004659
 Iteration  3 RMS(Cart)=  0.00000013 RMS(Int)=  0.00004659
 Variable       Old X    -DE/DX   Delta X   Delta X   Delta X     New X
                                 (Linear)    (Quad)   (Total)
    R1        2.77402  -0.00353  -0.00330  -0.00297  -0.00628   2.76774
    R2        1.91952   0.00097  -0.00130   0.00389   0.00259   1.92211
    R3        1.91952   0.00097  -0.00127   0.00385   0.00258   1.92210
    R4        2.92619  -0.00475  -0.00038  -0.01427  -0.01464   2.91155
    R5        2.07237   0.00049  -0.00106   0.00291   0.00185   2.07422
    R6        2.07237   0.00049  -0.00107   0.00292   0.00185   2.07422
    R7        2.90761  -0.00133   0.00234  -0.00541  -0.00305   2.90457
    R8        2.90761  -0.00133   0.00234  -0.00541  -0.00304   2.90457
    R9        2.08033   0.00048  -0.00206   0.00443   0.00237   2.08270
   R10        2.89811   0.00060   0.00216  -0.00150   0.00066   2.89876
   R11        2.07410   0.00133  -0.00159   0.00584   0.00425   2.07836
   R12        2.07617  -0.00071  -0.00174   0.00094  -0.00080   2.07537
   R13        2.90071  -0.00001   0.00221  -0.00589  -0.00371   2.89700
   R14        2.07143   0.00015  -0.00120   0.00226   0.00106   2.07249
   R15        2.07407   0.00068  -0.00143   0.00396   0.00253   2.07659
   R16        2.90072  -0.00001   0.00221  -0.00590  -0.00372   2.89700
   R17        2.07546   0.00038  -0.00159   0.00344   0.00185   2.07731
   R18        2.07166  -0.00003  -0.00120   0.00181   0.00061   2.07227
   R19        2.89807   0.00061   0.00215  -0.00146   0.00069   2.89875
   R20        2.07142   0.00016  -0.00121   0.00229   0.00108   2.07249
   R21        2.07408   0.00068  -0.00142   0.00392   0.00251   2.07659
   R22        2.07413   0.00133  -0.00156   0.00578   0.00422   2.07835
   R23        2.07617  -0.00071  -0.00174   0.00094  -0.00080   2.07537
    A1        1.92695  -0.00054  -0.00166  -0.00262  -0.00427   1.92267
    A2        1.92693  -0.00054  -0.00166  -0.00260  -0.00426   1.92267
    A3        1.86183   0.00007  -0.00109  -0.00252  -0.00361   1.85822
    A4        2.07342  -0.00589  -0.01373  -0.00461  -0.01838   2.05504
    A5        1.87371   0.00162   0.00381  -0.00257   0.00125   1.87497
    A6        1.87371   0.00162   0.00381  -0.00257   0.00126   1.87497
    A7        1.89071   0.00179   0.00354   0.00169   0.00520   1.89591
    A8        1.89072   0.00179   0.00354   0.00167   0.00519   1.89591
    A9        1.84967  -0.00048   0.00006   0.00788   0.00805   1.85772
   A10        1.97078  -0.00022   0.00031  -0.01090  -0.01057   1.96021
   A11        1.97078  -0.00022   0.00031  -0.01091  -0.01057   1.96021
   A12        1.87325  -0.00079  -0.00055  -0.01103  -0.01146   1.86179
   A13        1.92098  -0.00010  -0.00273   0.00749   0.00454   1.92552
   A14        1.86026   0.00071   0.00145   0.01393   0.01522   1.87547
   A15        1.86025   0.00071   0.00144   0.01395   0.01523   1.87548
   A16        1.94702   0.00051  -0.00060   0.00808   0.00744   1.95446
   A17        1.91275  -0.00051   0.00241  -0.01137  -0.00889   1.90386
   A18        1.92071  -0.00046  -0.00117  -0.00112  -0.00228   1.91843
   A19        1.90040   0.00000   0.00406  -0.00545  -0.00133   1.89907
   A20        1.92257   0.00023  -0.00120   0.00335   0.00218   1.92475
   A21        1.85816   0.00022  -0.00365   0.00621   0.00250   1.86066
   A22        1.94922  -0.00066  -0.00049  -0.00369  -0.00431   1.94491
   A23        1.92183   0.00015  -0.00010   0.00311   0.00306   1.92489
   A24        1.90158   0.00045   0.00132  -0.00046   0.00087   1.90244
   A25        1.91660   0.00040   0.00038   0.00499   0.00542   1.92202
   A26        1.91049  -0.00008   0.00008  -0.00434  -0.00423   1.90627
   A27        1.86198  -0.00023  -0.00122   0.00047  -0.00076   1.86122
   A28        1.95145   0.00035   0.00119  -0.00907  -0.00801   1.94343
   A29        1.90561  -0.00022  -0.00002  -0.00098  -0.00099   1.90461
   A30        1.91928   0.00003   0.00002   0.00438   0.00446   1.92374
   A31        1.90559  -0.00022  -0.00003  -0.00095  -0.00097   1.90462
   A32        1.91928   0.00003   0.00002   0.00437   0.00446   1.92374
   A33        1.86029   0.00002  -0.00133   0.00275   0.00140   1.86170
   A34        1.94922  -0.00066  -0.00049  -0.00369  -0.00431   1.94491
   A35        1.91661   0.00040   0.00039   0.00497   0.00540   1.92202
   A36        1.91048  -0.00008   0.00008  -0.00432  -0.00421   1.90627
   A37        1.92186   0.00015  -0.00009   0.00309   0.00304   1.92490
   A38        1.90157   0.00045   0.00132  -0.00044   0.00088   1.90245
   A39        1.86196  -0.00023  -0.00122   0.00049  -0.00074   1.86121
   A40        1.94704   0.00051  -0.00059   0.00805   0.00742   1.95446
   A41        1.91273  -0.00051   0.00241  -0.01134  -0.00887   1.90386
   A42        1.92071  -0.00046  -0.00117  -0.00112  -0.00228   1.91843
   A43        1.90042   0.00000   0.00406  -0.00547  -0.00134   1.89908
   A44        1.92260   0.00023  -0.00120   0.00333   0.00216   1.92476
   A45        1.85810   0.00022  -0.00365   0.00625   0.00254   1.86064
    D1       -1.02724   0.00029   0.00165   0.00316   0.00481  -1.02243
    D2        3.10543   0.00079   0.00364   0.00646   0.01005   3.11548
    D3        1.12329  -0.00021  -0.00033  -0.00016  -0.00044   1.12285
    D4        1.02724  -0.00029  -0.00165  -0.00315  -0.00481   1.02243
    D5       -1.12328   0.00021   0.00033   0.00015   0.00043  -1.12285
    D6       -3.10542  -0.00079  -0.00364  -0.00647  -0.01006  -3.11548
    D7       -1.09670   0.00025   0.00160   0.00390   0.00548  -1.09122
    D8        1.09667  -0.00025  -0.00160  -0.00387  -0.00544   1.09123
    D9        3.14157   0.00000  -0.00000   0.00003   0.00002  -3.14159
   D10        1.04538  -0.00040  -0.00039  -0.00159  -0.00199   1.04340
   D11       -3.04443  -0.00089  -0.00358  -0.00935  -0.01291  -3.05734
   D12       -0.99953  -0.00064  -0.00199  -0.00546  -0.00744  -1.00697
   D13        3.04439   0.00089   0.00358   0.00939   0.01294   3.05734
   D14       -1.04542   0.00040   0.00038   0.00163   0.00202  -1.04340
   D15        0.99948   0.00064   0.00198   0.00552   0.00749   1.00697
   D16       -3.07758  -0.00036   0.00387  -0.04922  -0.04535  -3.12293
   D17        1.09963  -0.00035  -0.00256  -0.03999  -0.04252   1.05711
   D18       -0.93809  -0.00004   0.00114  -0.04019  -0.03905  -0.97714
   D19        0.98567   0.00018   0.00539  -0.03219  -0.02679   0.95888
   D20       -1.12031   0.00019  -0.00104  -0.02296  -0.02395  -1.14426
   D21        3.12516   0.00050   0.00267  -0.02317  -0.02048   3.10468
   D22       -1.02502  -0.00099   0.00429  -0.05993  -0.05571  -1.08073
   D23       -3.13100  -0.00098  -0.00214  -0.05071  -0.05287   3.09932
   D24        1.11447  -0.00067   0.00157  -0.05091  -0.04941   1.06507
   D25        3.07758   0.00036  -0.00386   0.04921   0.04535   3.12293
   D26       -1.09960   0.00035   0.00257   0.03996   0.04249  -1.05711
   D27        0.93804   0.00004  -0.00115   0.04022   0.03908   0.97712
   D28       -0.98567  -0.00018  -0.00539   0.03218   0.02678  -0.95889
   D29        1.12034  -0.00019   0.00105   0.02293   0.02392   1.14426
   D30       -3.12521  -0.00050  -0.00267   0.02320   0.02052  -3.10469
   D31        1.02502   0.00099  -0.00429   0.05992   0.05570   1.08072
   D32        3.13103   0.00098   0.00215   0.05067   0.05284  -3.09932
   D33       -1.11452   0.00067  -0.00157   0.05093   0.04943  -1.06509
   D34       -0.96310   0.00004  -0.00160   0.00110  -0.00047  -0.96357
   D35       -3.09728  -0.00012  -0.00168  -0.00492  -0.00657  -3.10385
   D36        1.14946  -0.00019  -0.00092  -0.00700  -0.00791   1.14155
   D37        1.15009  -0.00027   0.00387  -0.01159  -0.00773   1.14235
   D38       -0.98409  -0.00043   0.00379  -0.01762  -0.01384  -0.99793
   D39       -3.02053  -0.00050   0.00455  -0.01969  -0.01518  -3.03571
   D40       -3.10153   0.00012   0.00111  -0.00538  -0.00425  -3.10578
   D41        1.04748  -0.00004   0.00103  -0.01140  -0.01036   1.03712
   D42       -0.98896  -0.00011   0.00179  -0.01348  -0.01170  -1.00066
   D43        0.92707  -0.00005  -0.00254   0.02682   0.02426   0.95133
   D44       -1.18349   0.00016  -0.00327   0.03453   0.03126  -1.15223
   D45        3.06439   0.00024  -0.00168   0.02928   0.02759   3.09198
   D46        3.06425  -0.00003  -0.00274   0.03177   0.02901   3.09326
   D47        0.95369   0.00018  -0.00347   0.03948   0.03601   0.98970
   D48       -1.08162   0.00026  -0.00187   0.03423   0.03234  -1.04928
[...]
   XZ=     1.6943   YZ=    -2.1920   ZZ=    25.9957
   Eigenvalues:    25.2917    28.2000    37.0170
     21  H    Isotropic =    30.6633   Anisotropy =     8.7233
   XX=    30.6049   YX=    -1.3073   ZX=    -3.3858
   XY=    -1.3779   YY=    28.8739   ZY=     3.7615
   XZ=    -2.9347   YZ=     2.9296   ZZ=    32.5113
   Eigenvalues:    26.7926    28.7185    36.4789
     22  H    Isotropic =    30.8025   Anisotropy =     5.8755
   XX=    31.8131   YX=    -0.6736   ZX=    -2.5104
   XY=    -0.0059   YY=    28.9617   ZY=    -3.4309
   XZ=    -1.7037   YZ=    -3.0335   ZZ=    31.6329
   Eigenvalues:    26.3854    31.3026    34.7196
     23  H    Isotropic =    30.5861   Anisotropy =     9.1598
   XX=    30.4331   YX=     1.8805   ZX=     1.3963
   XY=     2.1338   YY=    34.9405   ZY=     2.8400
   XZ=     0.9098   YZ=     3.1108   ZZ=    26.3845
   Eigenvalues:    25.3967    29.6689    36.6926
 End of Minotr F.D. properties file   721 does not exist.
 End of Minotr F.D. properties file   722 does not exist.
 End of Minotr F.D. properties file   788 does not exist.

 **********************************************************************

            Population analysis using the SCF Density.

 **********************************************************************

 Orbital symmetries:
       Occupied  (A) (A) (A) (A) (A) (A) (A) (A) (A) (A) (A) (A)
                 (A) (A) (A) (A) (A) (A) (A) (A) (A) (A) (A) (A)
                 (A) (A) (A) (A) (A) (A) (A) (A)
       Virtual   (A) (A) (A) (A) (A) (A) (A) (A) (A) (A) (A) (A)
                 (A) (A) (A) (A) (A) (A) (A) (A) (A) (A) (A) (A)
                 (A) (A) (A) (A) (A) (A) (A) (A) (A) (A) (A) (A)
                 (A) (A) (A) (A) (A) (A) (A) (A) (A) (A) (A) (A)
                 (A) (A) (A) (A) (A) (A) (A) (A) (A) (A) (A) (A)
                 (A) (A) (A) (A) (A) (A) (A) (A) (A) (A) (A) (A)
                 (A) (A) (A) (A) (A) (A) (A) (A) (A) (A) (A) (A)
                 (A) (A) (A) (A) (A) (A) (A) (A) (A) (A) (A) (A)
                 (A) (A) (A) (A) (A) (A) (A) (A) (A) (A) (A) (A)
                 (A) (A) (A) (A) (A) (A) (A) (A) (A) (A) (A) (A)
                 (A) (A) (A) (A) (A) (A) (A) (A) (A) (A) (A) (A)
                 (A) (A) (A) (A) (A) (A) (A) (A) (A) (A) (A) (A)
                 (A) (A) (A) (A) (A) (A) (A) (A) (A) (A) (A) (A)
                 (A) (A) (A) (A) (A) (A) (A) (A) (A) (A) (A) (A)
                 (A) (A) (A) (A) (A) (A) (A) (A) (A) (A) (A) (A)
                 (A) (A) (A) (A) (A) (A) (A) (A) (A) (A) (A) (A)
                 (A) (A) (A) (A) (A) (A) (A) (A) (A) (A) (A) (A)
                 (A) (A) (A) (A) (A) (A) (A) (A) (A) (A) (A) (A)
                 (A) (A) (A) (A) (A) (A) (A) (A) (A) (A) (A) (A)
                 (A) (A) (A) (A) (A) (A) (A) (A) (A) (A) (A) (A)
                 (A) (A) (A) (A) (A) (A) (A) (A) (A) (A) (A) (A)
                 (A) (A) (A) (A) (A) (A) (A) (A) (A) (A) (A) (A)
                 (A) (A) (A) (A) (A) (A) (A) (A) (A) (A) (A) (A)
                 (A) (A) (A) (A) (A) (A) (A) (A) (A) (A) (A) (A)
                 (A) (A) (A) (A) (A) (A) (A) (A) (A) (A) (A) (A)
                 (A) (A) (A) (A) (A) (A)
 The electronic state is 1-A.
 Alpha  occ. eigenvalues --  -14.72191 -10.55222 -10.53224 -10.52912 -10.52905
 Alpha  occ. eigenvalues --  -10.52853 -10.52852 -10.52827  -0.98564  -0.92810
 Alpha  occ. eigenvalues --   -0.84344  -0.83535  -0.74691  -0.69431  -0.66497
 Alpha  occ. eigenvalues --   -0.62673  -0.56084  -0.54686  -0.51499  -0.51033
 Alpha  occ. eigenvalues --   -0.50773  -0.47646  -0.45529  -0.44022  -0.43673
 Alpha  occ. eigenvalues --   -0.40888  -0.39662  -0.39516  -0.37474  -0.36407
 Alpha  occ. eigenvalues --   -0.35025  -0.30071
 Alpha virt. eigenvalues --    0.05948   0.06976   0.08333   0.08760   0.11540
 Alpha virt. eigenvalues --    0.11886   0.12463   0.12896   0.13653   0.14379
 Alpha virt. eigenvalues --    0.15717   0.15854   0.16843   0.17457   0.19010
 Alpha virt. eigenvalues --    0.20296   0.20913   0.22585   0.23226   0.24301
 Alpha virt. eigenvalues --    0.25822   0.26061   0.26851   0.27848   0.28372
 Alpha virt. eigenvalues --    0.29560   0.30265   0.31258   0.32347   0.34548
 Alpha virt. eigenvalues --    0.35812   0.36917   0.38029   0.39196   0.40920
 Alpha virt. eigenvalues --    0.41833   0.42877   0.43665   0.44478   0.45328
 Alpha virt. eigenvalues --    0.45356   0.47029   0.47096   0.47210   0.48250
 Alpha virt. eigenvalues --    0.48415   0.48668   0.48889   0.49880   0.50159
 Alpha virt. eigenvalues --    0.51282   0.52093   0.53537   0.53761   0.54625
 Alpha virt. eigenvalues --    0.55748   0.57026   0.57711   0.58218   0.61115
 Alpha virt. eigenvalues --    0.62354   0.65736   0.66392   0.70091   0.71004
 Alpha virt. eigenvalues --    0.73340   0.76032   0.77940   0.78733   0.80695
 Alpha virt. eigenvalues --    0.81558   0.84156   0.84888   0.84949   0.88515
 Alpha virt. eigenvalues --    0.89584   0.90541   0.91497   0.95549   0.98023
 Alpha virt. eigenvalues --    0.99303   0.99798   1.04059   1.05724   1.06624
 Alpha virt. eigenvalues --    1.08898   1.09075   1.11825   1.14557   1.15252
 Alpha virt. eigenvalues --    1.18777   1.18857   1.19523   1.20691   1.24818
 Alpha virt. eigenvalues --    1.24986   1.26220   1.27647   1.30074   1.30553
 Alpha virt. eigenvalues --    1.31023   1.32888   1.35131   1.35963   1.38455
 Alpha virt. eigenvalues --    1.43620   1.44404   1.44523   1.45355   1.51245
 Alpha virt. eigenvalues --    1.56157   1.58422   1.60175   1.61854   1.62743
 Alpha virt. eigenvalues --    1.63876   1.65026   1.65537   1.65764   1.68554
 Alpha virt. eigenvalues --    1.68953   1.71196   1.73295   1.74252   1.75955
 Alpha virt. eigenvalues --    1.77043   1.78913   1.80333   1.81553   1.81557
 Alpha virt. eigenvalues --    1.84576   1.85643   1.89074   1.92737   1.92782
 Alpha virt. eigenvalues --    1.97018   1.97384   1.99104   2.00896   2.01108
 Alpha virt. eigenvalues --    2.01983   2.02100   2.04292   2.07549   2.08951
 Alpha virt. eigenvalues --    2.09714   2.12667   2.14842   2.15699   2.17917
 Alpha virt. eigenvalues --    2.18864   2.22422   2.25459   2.25994   2.28220
 Alpha virt. eigenvalues --    2.31683   2.31885   2.34664   2.36124   2.41828
 Alpha virt. eigenvalues --    2.43123   2.43894   2.44944   2.46156   2.50091
 Alpha virt. eigenvalues --    2.50698   2.51554   2.53016   2.55300   2.56335
 Alpha virt. eigenvalues --    2.57019   2.57416   2.58297   2.59444   2.60700
 Alpha virt. eigenvalues --    2.60954   2.64177   2.64950   2.65021   2.66202
 Alpha virt. eigenvalues --    2.67950   2.68210   2.70030   2.71435   2.71508
 Alpha virt. eigenvalues --    2.72702   2.74964   2.75372   2.77712   2.78195
 Alpha virt. eigenvalues --    2.80188   2.82155   2.84665   2.85048   2.87657
 Alpha virt. eigenvalues --    2.91710   2.92682   2.94608   2.94683   2.97486
 Alpha virt. eigenvalues --    3.00707   3.03695   3.03876   3.06941   3.07599
 Alpha virt. eigenvalues --    3.10055   3.10643   3.14789   3.15694   3.16610
 Alpha virt. eigenvalues --    3.18051   3.20885   3.21714   3.22511   3.23354
 Alpha virt. eigenvalues --    3.27317   3.27964   3.31113   3.32367   3.33466
 Alpha virt. eigenvalues --    3.34811   3.35267   3.38246   3.39450   3.41175
 Alpha virt. eigenvalues --    3.42335   3.45189   3.45453   3.47164   3.49603
 Alpha virt. eigenvalues --    3.49703   3.50388   3.51541   3.51993   3.54536
 Alpha virt. eigenvalues --    3.58742   3.59514   3.60902   3.61956   3.63975
 Alpha virt. eigenvalues --    3.63976   3.64950   3.67012   3.70818   3.72023
 Alpha virt. eigenvalues --    3.75501   3.81651   3.84843   3.86171   3.91858
 Alpha virt. eigenvalues --    3.91942   3.95374   3.96231   3.98376   3.98625
 Alpha virt. eigenvalues --    4.03726   4.04329   4.07108   4.10408   4.11135
 Alpha virt. eigenvalues --    4.14957   4.17479   4.17889   4.21715   4.25205
 Alpha virt. eigenvalues --    4.27684   4.28004   4.31846   4.32499   4.36676
 Alpha virt. eigenvalues --    4.37685   4.40681   4.43276   4.49720   4.52523
 Alpha virt. eigenvalues --    4.56462   4.57403   4.62115   4.63851   4.66190
 Alpha virt. eigenvalues --    4.72638   4.75382   4.75401   4.78353   4.83171
 Alpha virt. eigenvalues --    4.85066   4.86371   4.91973   4.99374   5.01902
 Alpha virt. eigenvalues --    5.04088   5.04092   5.10387   5.14862   5.20910
 Alpha virt. eigenvalues --    5.29445   5.48512   5.77065  22.53088  22.56007
 Alpha virt. eigenvalues --   22.56504  22.59009  22.62779  22.69779  22.79478
 Alpha virt. eigenvalues --   32.09068
          Condensed to atoms (all electrons):
               1          2          3          4          5          6
     1  N    6.634295   0.229835  -0.052564  -0.016612   0.004862  -0.000280
     2  C    0.229835   5.053987   0.297274  -0.043873   0.004192  -0.000994
     3  C   -0.052564   0.297274   5.397805   0.217207  -0.029107  -0.003413
     4  C   -0.016612  -0.043873   0.217207   5.400912   0.194835  -0.040498
     5  C    0.004862   0.004192  -0.029107   0.194835   5.178184   0.248335
     6  C   -0.000280  -0.000994  -0.003413  -0.040498   0.248335   5.185051
     7  C    0.004862   0.004192  -0.029107  -0.004998  -0.036470   0.248335
     8  C   -0.016612  -0.043873   0.217207  -0.050285  -0.004998  -0.040498
     9  H    0.385401  -0.060146  -0.000693  -0.003733   0.000174  -0.000023
    10  H    0.385401  -0.060146  -0.000693   0.006311   0.000478  -0.000023
    11  H   -0.034692   0.437185  -0.069559  -0.013223   0.000620   0.000100
    12  H   -0.034692   0.437185  -0.069559   0.013241  -0.000635   0.000100
    13  H    0.011500  -0.043424   0.425542  -0.062929   0.002601   0.000948
    14  H    0.016708  -0.019494  -0.046529   0.402852  -0.032967  -0.004710
    15  H    0.000065   0.000679  -0.052839   0.422404  -0.032667   0.008558
    16  H    0.000031  -0.000609   0.009194  -0.049957   0.436858  -0.043561
    17  H   -0.000066  -0.000258  -0.004102  -0.053089   0.436165  -0.052458
    18  H   -0.000089  -0.000064  -0.000130  -0.000753  -0.053612   0.430142
    19  H   -0.000001   0.000148  -0.001527   0.009910  -0.044961   0.433101
    20  H    0.000031  -0.000609   0.009194  -0.002338   0.009227  -0.043561
    21  H   -0.000066  -0.000258  -0.004102   0.001439  -0.002848  -0.052459
    22  H    0.016708  -0.019494  -0.046529  -0.015592   0.004727  -0.004710
    23  H    0.000065   0.000679  -0.052839   0.009495  -0.001882   0.008558
               7          8          9         10         11         12
     1  N    0.004862  -0.016612   0.385401   0.385401  -0.034692  -0.034692
     2  C    0.004192  -0.043873  -0.060146  -0.060146   0.437185   0.437185
     3  C   -0.029107   0.217207  -0.000693  -0.000693  -0.069559  -0.069559
     4  C   -0.004998  -0.050285  -0.003733   0.006311  -0.013223   0.013241
     5  C   -0.036470  -0.004998   0.000174   0.000478   0.000620  -0.000635
     6  C    0.248335  -0.040498  -0.000023  -0.000023   0.000100   0.000100
     7  C    5.178184   0.194835   0.000478   0.000174  -0.000635   0.000620
     8  C    0.194835   5.400912   0.006311  -0.003733   0.013241  -0.013223
     9  H    0.000478   0.006311   0.482561  -0.040707   0.007664  -0.006503
    10  H    0.000174  -0.003733  -0.040707   0.482561  -0.006503   0.007664
    11  H   -0.000635   0.013241   0.007664  -0.006503   0.530608  -0.017422
    12  H    0.000620  -0.013223  -0.006503   0.007664  -0.017422   0.530608
    13  H    0.002601  -0.062929  -0.000217  -0.000217  -0.002888  -0.002888
    14  H    0.004727  -0.015592   0.001895   0.000963   0.002071   0.000040
    15  H   -0.001882   0.009495   0.000181   0.000247   0.003747   0.000051
    16  H    0.009227  -0.002338   0.000002   0.000023  -0.000001   0.000020
    17  H   -0.002848   0.001439   0.000006  -0.000016   0.000060  -0.000006
    18  H   -0.053612  -0.000753   0.000007   0.000007   0.000009   0.000009
    19  H   -0.044961   0.009910  -0.000002  -0.000002  -0.000005  -0.000005
    20  H    0.436858  -0.049957   0.000023   0.000002   0.000020  -0.000001
    21  H    0.436165  -0.053089  -0.000016   0.000006  -0.000006   0.000060
    22  H   -0.032967   0.402852   0.000963   0.001895   0.000040   0.002071
    23  H   -0.032667   0.422404   0.000247   0.000181   0.000051   0.003747
              13         14         15         16         17         18
     1  N    0.011500   0.016708   0.000065   0.000031  -0.000066  -0.000089
     2  C   -0.043424  -0.019494   0.000679  -0.000609  -0.000258  -0.000064
     3  C    0.425542  -0.046529  -0.052839   0.009194  -0.004102  -0.000130
     4  C   -0.062929   0.402852   0.422404  -0.049957  -0.053089  -0.000753
     5  C    0.002601  -0.032967  -0.032667   0.436858   0.436165  -0.053612
     6  C    0.000948  -0.004710   0.008558  -0.043561  -0.052458   0.430142
     7  C    0.002601   0.004727  -0.001882   0.009227  -0.002848  -0.053612
     8  C   -0.062929  -0.015592   0.009495  -0.002338   0.001439  -0.000753
     9  H   -0.000217   0.001895   0.000181   0.000002   0.000006   0.000007
    10  H   -0.000217   0.000963   0.000247   0.000023  -0.000016   0.000007
    11  H   -0.002888   0.002071   0.003747  -0.000001   0.000060   0.000009
    12  H   -0.002888   0.000040   0.000051   0.000020  -0.000006   0.000009
    13  H    0.582303   0.010083  -0.003276  -0.000027   0.002036   0.000034
    14  H    0.010083   0.558650  -0.021753  -0.003178   0.006687   0.002268
    15  H   -0.003276  -0.021753   0.529596  -0.006636  -0.003446  -0.000131
    16  H   -0.000027  -0.003178  -0.006636   0.538194  -0.019531  -0.003239
    17  H    0.002036   0.006687  -0.003446  -0.019531   0.538099   0.007075
    18  H    0.000034   0.002268  -0.000131  -0.003239   0.007075   0.546675
    19  H   -0.000217  -0.000199  -0.000306  -0.005547  -0.003134  -0.019513
    20  H   -0.000027  -0.000101   0.000151  -0.000389  -0.000131  -0.003239
    21  H    0.002036   0.000080  -0.000148  -0.000131   0.002505   0.007075
    22  H    0.010083   0.007601  -0.000024  -0.000101   0.000080   0.002268
    23  H   -0.003276  -0.000024  -0.000413   0.000151  -0.000148  -0.000131
              19         20         21         22         23
     1  N   -0.000001   0.000031  -0.000066   0.016708   0.000065
     2  C    0.000148  -0.000609  -0.000258  -0.019494   0.000679
     3  C   -0.001527   0.009194  -0.004102  -0.046529  -0.052839
     4  C    0.009910  -0.002338   0.001439  -0.015592   0.009495
     5  C   -0.044961   0.009227  -0.002848   0.004727  -0.001882
     6  C    0.433101  -0.043561  -0.052459  -0.004710   0.008558
     7  C   -0.044961   0.436858   0.436165  -0.032967  -0.032667
     8  C    0.009910  -0.049957  -0.053089   0.402852   0.422404
     9  H   -0.000002   0.000023  -0.000016   0.000963   0.000247
    10  H   -0.000002   0.000002   0.000006   0.001895   0.000181
    11  H   -0.000005   0.000020  -0.000006   0.000040   0.000051
    12  H   -0.000005  -0.000001   0.000060   0.002071   0.003747
    13  H   -0.000217  -0.000027   0.002036   0.010083  -0.003276
    14  H   -0.000199  -0.000101   0.000080   0.007601  -0.000024
    15  H   -0.000306   0.000151  -0.000148  -0.000024  -0.000413
    16  H   -0.005547  -0.000389  -0.000131  -0.000101   0.000151
    17  H   -0.003134  -0.000131   0.002505   0.000080  -0.000148
    18  H   -0.019513  -0.003239   0.007075   0.002268  -0.000131
    19  H    0.533765  -0.005547  -0.003134  -0.000199  -0.000306
    20  H   -0.005547   0.538194  -0.019531  -0.003178  -0.006636
    21  H   -0.003134  -0.019531   0.538099   0.006687  -0.003446
    22  H   -0.000199  -0.003178   0.006687   0.558650  -0.021753
    23  H   -0.000306  -0.006636  -0.003446  -0.021753   0.529596
 Mulliken charges:
               1
     1  N   -0.534090
     2  C   -0.172115
     3  C   -0.110127
     4  C   -0.320727
     5  C   -0.281111
     6  C   -0.276041
     7  C   -0.281111
     8  C   -0.320727
     9  H    0.226128
    10  H    0.226128
    11  H    0.149520
    12  H    0.149520
    13  H    0.132548
    14  H    0.129922
    15  H    0.148346
    16  H    0.141543
    17  H    0.145080
    18  H    0.139695
    19  H    0.142729
    20  H    0.141543
    21  H    0.145080
    22  H    0.129922
    23  H    0.148346
 Sum of Mulliken charges =  -0.00000
 Mulliken charges with hydrogens summed into heavy atoms:
               1
     1  N   -0.081834
     2  C    0.126924
     3  C    0.022421
     4  C   -0.042460
     5  C    0.005512
     6  C    0.006384
     7  C    0.005512
     8  C   -0.042460
 Electronic spatial extent (au):  <R**2>=           1148.2608
 Charge=             -0.0000 electrons
 Dipole moment (field-independent basis, Debye):
    X=              1.5399    Y=              0.0000    Z=              0.0694  Tot=              1.5414
 Quadrupole moment (field-independent basis, Debye-Ang):
   XX=            -61.9309   YY=            -51.5082   ZZ=            -51.0692
   XY=             -0.0000   XZ=              0.7097   YZ=              0.0000
 Traceless Quadrupole moment (field-independent basis, Debye-Ang):
   XX=             -7.0947   YY=              3.3279   ZZ=              3.7669
   XY=             -0.0000   XZ=              0.7097   YZ=              0.0000
 Octapole moment (field-independent basis, Debye-Ang**2):
  XXX=             37.0504  YYY=              0.0000  ZZZ=              4.1440  XYY=             -5.7909
  XXY=              0.0000  XXZ=             -5.9271  XZZ=             -4.4910  YZZ=             -0.0000
  YYZ=              1.9869  XYZ=             -0.0000
 Hexadecapole moment (field-independent basis, Debye-Ang**3):
 XXXX=          -1173.8957 YYYY=           -385.9454 ZZZZ=           -179.6805 XXXY=             -0.0001
 XXXZ=             25.1839 YYYX=              0.0000 YYYZ=             -0.0000 ZZZX=            -11.9734
 ZZZY=              0.0000 XXYY=           -223.2071 XXZZ=           -196.4911 YYZZ=            -92.2199
 XXYZ=              0.0000 YYXZ=             -1.5475 ZZXY=             -0.0000
 N-N= 4.075773288225D+02 E-N=-1.581062152864D+03  KE= 3.285904319751D+02
 Unable to Open any file for archive entry.
 1\1\GINC-NOTCH229\SP\RM062X\def2TZVP\C7H15N1\U6032257\21-Feb-2022\0\\#
  M062X/def2tzvp int=(grid=ultrafine) nmr=giao guess=read geom=check\\N
 2.xyz\\0,1\N,0,3.1912797306,-0.001959686,0.159150135\C,0,2.7391338426,
 0.6074475678,1.4118640916\C,0,1.220886974,0.8043211894,1.6068117735\C,
 0,0.6161100301,1.7592555381,0.5654201934\C,0,-0.8887303744,1.967679197
 1,0.7791863718\C,0,-1.6403810906,0.6307540055,0.7929618538\C,0,-1.0503
 682342,-0.3259187786,1.8366095658\C,0,0.4549139734,-0.5280691863,1.619
 951458\H,0,2.7760491351,-0.9232558245,0.046194626\H,0,2.8800640353,0.5
 526698046,-0.6342558318\H,0,3.2346290283,1.5825235076,1.5006056597\H,0
 ,3.1224421198,-0.0093746936,2.2345236184\H,0,1.0916311186,1.2698714136
 ,2.5968525416\H,0,0.7761615008,1.3423591817,-0.4394198866\H,0,1.142301
 3082,2.7218321574,0.5926132374\H,0,-1.2947251734,2.6259945885,0.002365
 0443\H,0,-1.0477732512,2.4797940674,1.7383601502\H,0,-1.5682692764,0.1
 673291462,-0.2012041755\H,0,-2.7069483399,0.7945773064,0.9852670611\H,
 0,-1.5707224335,-1.2903204434,1.8079129442\H,0,-1.2162069438,0.0897764
 514,2.8402356766\H,0,0.6082921234,-1.0396616597,0.6587695042\H,0,0.866
 8301973,-1.1870248507,2.3947243874\\Version=ES64L-G16RevC.01\State=1-A
 \HF=-330.495435\RMSD=1.605e-09\Dipole=-0.6035954,0.053557,0.0239005\Qu
 adrupole=-5.009268,2.3942495,2.6150185,1.0432764,1.1189756,-0.0139367\
 PG=C01 [X(C7H15N1)]\\@
 The archive entry for this job was punched.


 If fifty million people say a stupid thing,
 it is still a stupid thing.
                   -- Anatole France
 Job cpu time:       0 days  0 hours 22 minutes 44.8 seconds.
 Elapsed time:       0 days  0 hours  0 minutes 25.6 seconds.
 File lengths (MBytes):  RWF=     70 Int=      0 D2E=      0 Chk=     12 Scr=      1
 Normal termination of Gaussian 16 at Mon Feb 21 19:07:54 2022.
