 Entering Gaussian System, Link 0=/uufs/chpc.utah.edu/sys/installdir/gaussian16/C01/AVX2/g16/g16
 Input=N3_conf-6.com
 Output=N3_conf-6.log
 Initial command:
 /uufs/chpc.utah.edu/sys/installdir/gaussian16/C01/AVX2/g16/l1.exe "/scratch/local/u6032257/4038679/notchpeak.peaks/Gau-309740.inp" -scrdir="/scratch/local/u6032257/4038679/notchpeak.peaks/"
 Entering Link 1 = /uufs/chpc.utah.edu/sys/installdir/gaussian16/C01/AVX2/g16/l1.exe PID=    309742.
  
 Copyright (c) 1988-2019, Gaussian, Inc.  All Rights Reserved.
  
 This is part of the Gaussian(R) 16 program.  It is based on
 the Gaussian(R) 09 system (copyright 2009, Gaussian, Inc.),
 the Gaussian(R) 03 system (copyright 2003, Gaussian, Inc.),
 the Gaussian(R) 98 system (copyright 1998, Gaussian, Inc.),
 the Gaussian(R) 94 system (copyright 1995, Gaussian, Inc.),
 the Gaussian 92(TM) system (copyright 1992, Gaussian, Inc.),
 the Gaussian 90(TM) system (copyright 1990, Gaussian, Inc.),
 the Gaussian 88(TM) system (copyright 1988, Gaussian, Inc.),
 the Gaussian 86(TM) system (copyright 1986, Carnegie Mellon
 University), and the Gaussian 82(TM) system (copyright 1983,
 Carnegie Mellon University). Gaussian is a federally registered
 trademark of Gaussian, Inc.
  
 This software contains proprietary and confidential information,
 including trade secrets, belonging to Gaussian, Inc.
  
 This software is provided under written license and may be
 used, copied, transmitted, or stored only in accord with that
 written license.
  
 The following legend is applicable only to US Government
 contracts under FAR:
  
                    RESTRICTED RIGHTS LEGEND
  
 Use, reproduction and disclosure by the US Government is
 subject to restrictions as set forth in subparagraphs (a)
 and (c) of the Commercial Computer Software - Restricted
 Rights clause in FAR 52.227-19.
  
 Gaussian, Inc.
 340 Quinnipiac St., Bldg. 40, Wallingford CT 06492
  
  
 ---------------------------------------------------------------
 Warning -- This program may not be used in any manner that
 competes with the business of Gaussian, Inc. or will provide
 assistance to any competitor of Gaussian, Inc.  The licensee
 of this program is prohibited from giving any competitor of
 Gaussian, Inc. access to this program.  By using this program,
 the user acknowledges that Gaussian, Inc. is engaged in the
 business of creating and licensing software in the field of
 computational chemistry and represents and warrants to the
 licensee that it is not a competitor of Gaussian, Inc. and that
 it will not use this program in any manner prohibited above.
 ---------------------------------------------------------------
  

 Cite this work as:
 Gaussian 16, Revision C.01,
 M. J. Frisch, G. W. Trucks, H. B. Schlegel, G. E. Scuseria, 
 M. A. Robb, J. R. Cheeseman, G. Scalmani, V. Barone, 
 G. A. Petersson, H. Nakatsuji, X. Li, M. Caricato, A. V. Marenich, 
 J. Bloino, B. G. Janesko, R. Gomperts, B. Mennucci, H. P. Hratchian, 
 J. V. Ortiz, A. F. Izmaylov, J. L. Sonnenberg, D. Williams-Young, 
 F. Ding, F. Lipparini, F. Egidi, J. Goings, B. Peng, A. Petrone, 
 T. Henderson, D. Ranasinghe, V. G. Zakrzewski, J. Gao, N. Rega, 
 G. Zheng, W. Liang, M. Hada, M. Ehara, K. Toyota, R. Fukuda, 
 J. Hasegawa, M. Ishida, T. Nakajima, Y. Honda, O. Kitao, H. Nakai, 
 T. Vreven, K. Throssell, J. A. Montgomery, Jr., J. E. Peralta, 
 F. Ogliaro, M. J. Bearpark, J. J. Heyd, E. N. Brothers, K. N. Kudin, 
 V. N. Staroverov, T. A. Keith, R. Kobayashi, J. Normand, 
 K. Raghavachari, A. P. Rendell, J. C. Burant, S. S. Iyengar, 
 J. Tomasi, M. Cossi, J. M. Millam, M. Klene, C. Adamo, R. Cammi, 
 J. W. Ochterski, R. L. Martin, K. Morokuma, O. Farkas, 
 J. B. Foresman, and D. J. Fox, Gaussian, Inc., Wallingford CT, 2019.
 
 ******************************************
 Gaussian 16:  ES64L-G16RevC.01  3-Jul-2019
                21-Feb-2022 
 ******************************************
 %NProcShared=52
 Will use up to   52 processors via shared memory.
 %mem=16GB
 %chk=N3_conf-6.chk
 ----------------------------------------------------------------------
 # B3LYP/6-31G(d,p) empiricaldispersion=GD3BJ int=(grid=ultrafine) opt 
 freq=noraman
 ----------------------------------------------------------------------
 1/18=20,19=15,26=4,38=1/1,3;
 2/9=110,12=2,17=6,18=5,40=1/2;
 3/5=1,6=6,7=101,11=2,25=1,30=1,71=1,74=-5,75=-5,124=41/1,2,3;
 4//1;
 5/5=2,38=5/2;
 6/7=2,8=2,9=2,10=2,28=1/1;
 7//1,2,3,16;
 1/18=20,19=15,26=4/3(2);
 2/9=110/2;
 99//99;
 2/9=110/2;
 3/5=1,6=6,7=101,11=2,25=1,30=1,71=1,74=-5,75=-5,124=41/1,2,3;
 4/5=5,16=3,69=1/1;
 5/5=2,38=5/2;
 7//1,2,3,16;
 1/18=20,19=15,26=4/3(-5);
 2/9=110/2;
 6/7=2,8=2,9=2,10=2,19=2,28=1/1;
 99/9=1/99;
 ------
 N3.xyz
 ------
 Symbolic Z-matrix:
 Charge =  0 Multiplicity = 1
 Cl                    0.042     2.5877    0.9619 
 C                    -0.8545    1.2221    0.3935 
 C                    -2.1336    1.445    -0.1189 
 C                    -2.9028    0.3811   -0.5887 
 C                    -2.3929   -0.9152   -0.5466 
 C                    -1.1156   -1.1455   -0.0357 
 C                    -0.3338   -0.0841    0.4374 
 C                     1.0614   -0.3909    0.9854 
 C                     2.1484   -0.48     -0.1 
 N                     2.4927    0.8479   -0.5739 
 H                    -2.5285    2.4501   -0.1483 
 H                    -3.8925    0.5625   -0.9826 
 H                    -2.987    -1.7421   -0.9091 
 H                    -0.7319   -2.1554   -0.0103 
 H                     1.0137   -1.3465    1.5084 
 H                     1.3418    0.3219    1.7624 
 H                     1.8104   -1.1064   -0.9286 
 H                     3.0467   -0.9508    0.3051 
 H                     1.6473    1.3702   -0.7734 
 H                     3.0184    0.8079   -1.436 
 

 GradGradGradGradGradGradGradGradGradGradGradGradGradGradGradGradGradGrad
 Berny optimization.
 Initialization pass.
                           ----------------------------
                           !    Initial Parameters    !
                           ! (Angstroms and Degrees)  !
 --------------------------                            --------------------------
 ! Name  Definition              Value          Derivative Info.                !
 --------------------------------------------------------------------------------
 ! R1    R(1,2)                  1.7296         estimate D2E/DX2                !
 ! R2    R(2,3)                  1.3958         estimate D2E/DX2                !
 ! R3    R(2,7)                  1.4068         estimate D2E/DX2                !
 ! R4    R(3,4)                  1.3944         estimate D2E/DX2                !
 ! R5    R(3,11)                 1.0803         estimate D2E/DX2                !
 ! R6    R(4,5)                  1.3936         estimate D2E/DX2                !
 ! R7    R(4,12)                 1.0805         estimate D2E/DX2                !
 ! R8    R(5,6)                  1.3948         estimate D2E/DX2                !
 ! R9    R(5,13)                 1.0808         estimate D2E/DX2                !
 ! R10   R(6,7)                  1.4006         estimate D2E/DX2                !
 ! R11   R(6,14)                 1.0806         estimate D2E/DX2                !
 ! R12   R(7,8)                  1.53           estimate D2E/DX2                !
 ! R13   R(8,9)                  1.5387         estimate D2E/DX2                !
 ! R14   R(8,15)                 1.0904         estimate D2E/DX2                !
 ! R15   R(8,16)                 1.0911         estimate D2E/DX2                !
 ! R16   R(9,10)                 1.4514         estimate D2E/DX2                !
 ! R17   R(9,17)                 1.0923         estimate D2E/DX2                !
 ! R18   R(9,18)                 1.0921         estimate D2E/DX2                !
 ! R19   R(10,19)                1.0136         estimate D2E/DX2                !
 ! R20   R(10,20)                1.0105         estimate D2E/DX2                !
 ! A1    A(1,2,3)              118.0036         estimate D2E/DX2                !
 ! A2    A(1,2,7)              122.0698         estimate D2E/DX2                !
 ! A3    A(3,2,7)              119.9265         estimate D2E/DX2                !
 ! A4    A(2,3,4)              120.4879         estimate D2E/DX2                !
 ! A5    A(2,3,11)             119.5738         estimate D2E/DX2                !
 ! A6    A(4,3,11)             119.9382         estimate D2E/DX2                !
 ! A7    A(3,4,5)              119.848          estimate D2E/DX2                !
 ! A8    A(3,4,12)             120.0002         estimate D2E/DX2                !
 ! A9    A(5,4,12)             120.1517         estimate D2E/DX2                !
 ! A10   A(4,5,6)              119.98           estimate D2E/DX2                !
 ! A11   A(4,5,13)             120.0268         estimate D2E/DX2                !
 ! A12   A(6,5,13)             119.9932         estimate D2E/DX2                !
 ! A13   A(5,6,7)              120.6482         estimate D2E/DX2                !
 ! A14   A(5,6,14)             119.2133         estimate D2E/DX2                !
 ! A15   A(7,6,14)             120.1383         estimate D2E/DX2                !
 ! A16   A(2,7,6)              119.1093         estimate D2E/DX2                !
 ! A17   A(2,7,8)              122.3338         estimate D2E/DX2                !
 ! A18   A(6,7,8)              118.557          estimate D2E/DX2                !
 ! A19   A(7,8,9)              113.7751         estimate D2E/DX2                !
 ! A20   A(7,8,15)             107.9163         estimate D2E/DX2                !
 ! A21   A(7,8,16)             111.0026         estimate D2E/DX2                !
 ! A22   A(9,8,15)             108.5719         estimate D2E/DX2                !
 ! A23   A(9,8,16)             111.0158         estimate D2E/DX2                !
 ! A24   A(15,8,16)            104.0169         estimate D2E/DX2                !
 ! A25   A(8,9,10)             110.1778         estimate D2E/DX2                !
 ! A26   A(8,9,17)             110.469          estimate D2E/DX2                !
 ! A27   A(8,9,18)             110.1439         estimate D2E/DX2                !
 ! A28   A(10,9,17)            110.5111         estimate D2E/DX2                !
 ! A29   A(10,9,18)            108.6879         estimate D2E/DX2                !
 ! A30   A(17,9,18)            106.779          estimate D2E/DX2                !
 ! A31   A(9,10,19)            109.7478         estimate D2E/DX2                !
 ! A32   A(9,10,20)            111.454          estimate D2E/DX2                !
 ! A33   A(19,10,20)           106.6419         estimate D2E/DX2                !
 ! D1    D(1,2,3,4)           -179.8665         estimate D2E/DX2                !
 ! D2    D(1,2,3,11)            -0.0025         estimate D2E/DX2                !
 ! D3    D(7,2,3,4)              0.0284         estimate D2E/DX2                !
 ! D4    D(7,2,3,11)           179.8923         estimate D2E/DX2                !
 ! D5    D(1,2,7,6)            179.7896         estimate D2E/DX2                !
 ! D6    D(1,2,7,8)             -0.2019         estimate D2E/DX2                !
 ! D7    D(3,2,7,6)             -0.1009         estimate D2E/DX2                !
 ! D8    D(3,2,7,8)            179.9076         estimate D2E/DX2                !
 ! D9    D(2,3,4,5)              0.0339         estimate D2E/DX2                !
 ! D10   D(2,3,4,12)           179.9238         estimate D2E/DX2                !
 ! D11   D(11,3,4,5)          -179.8295         estimate D2E/DX2                !
 ! D12   D(11,3,4,12)            0.0604         estimate D2E/DX2                !
 ! D13   D(3,4,5,6)             -0.0224         estimate D2E/DX2                !
 ! D14   D(3,4,5,13)           179.9411         estimate D2E/DX2                !
 ! D15   D(12,4,5,6)          -179.9122         estimate D2E/DX2                !
 ! D16   D(12,4,5,13)            0.0514         estimate D2E/DX2                !
 ! D17   D(4,5,6,7)             -0.0517         estimate D2E/DX2                !
 ! D18   D(4,5,6,14)          -179.9083         estimate D2E/DX2                !
 ! D19   D(13,5,6,7)           179.9847         estimate D2E/DX2                !
 ! D20   D(13,5,6,14)            0.1282         estimate D2E/DX2                !
 ! D21   D(5,6,7,2)              0.1129         estimate D2E/DX2                !
 ! D22   D(5,6,7,8)           -179.8952         estimate D2E/DX2                !
 ! D23   D(14,6,7,2)           179.9682         estimate D2E/DX2                !
 ! D24   D(14,6,7,8)            -0.04           estimate D2E/DX2                !
 ! D25   D(2,7,8,9)            -95.7593         estimate D2E/DX2                !
 ! D26   D(2,7,8,15)           143.6971         estimate D2E/DX2                !
 ! D27   D(2,7,8,16)            30.3195         estimate D2E/DX2                !
 ! D28   D(6,7,8,9)             84.2492         estimate D2E/DX2                !
 ! D29   D(6,7,8,15)           -36.2944         estimate D2E/DX2                !
 ! D30   D(6,7,8,16)          -149.672          estimate D2E/DX2                !
 ! D31   D(7,8,9,10)            74.9427         estimate D2E/DX2                !
 ! D32   D(7,8,9,17)           -47.4439         estimate D2E/DX2                !
 ! D33   D(7,8,9,18)          -165.1628         estimate D2E/DX2                !
 ! D34   D(15,8,9,10)         -164.8827         estimate D2E/DX2                !
 ! D35   D(15,8,9,17)           72.7308         estimate D2E/DX2                !
 ! D36   D(15,8,9,18)          -44.9881         estimate D2E/DX2                !
 ! D37   D(16,8,9,10)          -51.1292         estimate D2E/DX2                !
 ! D38   D(16,8,9,17)         -173.5158         estimate D2E/DX2                !
 ! D39   D(16,8,9,18)           68.7653         estimate D2E/DX2                !
 ! D40   D(8,9,10,19)          -47.505          estimate D2E/DX2                !
 ! D41   D(8,9,10,20)         -165.4106         estimate D2E/DX2                !
 ! D42   D(17,9,10,19)          74.8568         estimate D2E/DX2                !
 ! D43   D(17,9,10,20)         -43.0489         estimate D2E/DX2                !
 ! D44   D(18,9,10,19)        -168.2766         estimate D2E/DX2                !
 ! D45   D(18,9,10,20)          73.8178         estimate D2E/DX2                !
 --------------------------------------------------------------------------------
 Trust Radius=3.00D-01 FncErr=1.00D-07 GrdErr=1.00D-06 EigMax=2.50D+02 EigMin=1.00D-04
 Number of steps in this run=    108 maximum allowed number of steps=    120.
 GradGradGradGradGradGradGradGradGradGradGradGradGradGradGradGradGradGrad

                          Input orientation:                          
 ---------------------------------------------------------------------
 Center     Atomic      Atomic             Coordinates (Angstroms)
 Number     Number       Type             X           Y           Z
 ---------------------------------------------------------------------
      1         17           0        0.042000    2.587700    0.961900
      2          6           0       -0.854500    1.222100    0.393500
      3          6           0       -2.133600    1.445000   -0.118900
      4          6           0       -2.902800    0.381100   -0.588700
      5          6           0       -2.392900   -0.915200   -0.546600
      6          6           0       -1.115600   -1.145500   -0.035700
      7          6           0       -0.333800   -0.084100    0.437400
      8          6           0        1.061400   -0.390900    0.985400
      9          6           0        2.148400   -0.480000   -0.100000
     10          7           0        2.492700    0.847900   -0.573900
     11          1           0       -2.528500    2.450100   -0.148300
     12          1           0       -3.892500    0.562500   -0.982600
     13          1           0       -2.987000   -1.742100   -0.909100
     14          1           0       -0.731900   -2.155400   -0.010300
     15          1           0        1.013700   -1.346500    1.508400
     16          1           0        1.341800    0.321900    1.762400
     17          1           0        1.810400   -1.106400   -0.928600
     18          1           0        3.046700   -0.950800    0.305100
     19          1           0        1.647300    1.370200   -0.773400
     20          1           0        3.018400    0.807900   -1.436000
 ---------------------------------------------------------------------
                    Distance matrix (angstroms):
                    1          2          3          4          5
     1  Cl   0.000000
     2  C    1.729640   0.000000
     3  C    2.684609   1.395828   0.000000
     4  C    3.993156   2.422299   1.394369   0.000000
     5  C    4.524889   2.796161   2.412614   1.393615   0.000000
     6  C    4.033860   2.420313   2.784589   2.414622   1.394831
     7  C    2.748607   1.406845   2.426293   2.805183   2.428760
     8  C    3.148299   2.573478   3.846821   4.334588   3.814984
     9  C    3.869798   3.486846   4.694838   5.147324   4.583913
    10  N    3.375132   3.504231   4.686812   5.415676   5.194069
    11  H    2.803382   2.145648   1.080295   2.148212   3.391500
    12  H    4.833509   3.399730   2.149073   1.080541   2.149998
    13  H    5.605591   3.876958   3.392685   2.148889   1.080798
    14  H    4.903172   3.403761   3.865157   3.388390   2.141176
    15  H    4.089107   3.366137   4.510662   4.766697   4.001746
    16  H    2.732056   2.740070   4.108412   4.852608   4.561785
    17  H    4.510832   3.777771   4.766591   4.954033   4.224951
    18  H    4.688346   4.466393   5.723211   6.161930   5.505988
    19  H    2.659053   2.764524   3.837860   4.660026   4.647333
    20  H    4.216227   4.303253   5.355722   5.996723   5.748241
                    6          7          8          9         10
     6  C    0.000000
     7  C    1.400573   0.000000
     8  C    2.520197   1.530037   0.000000
     9  C    3.331774   2.570380   1.538701   0.000000
    10  N    4.157299   3.143319   2.452481   1.451359   0.000000
    11  H    3.864881   3.403222   4.716348   5.519168   5.287781
    12  H    3.394857   3.885722   5.415083   6.193405   6.404629
    13  H    2.149627   3.406097   4.669520   5.349754   6.070220
    14  H    1.080634   2.156201   2.705698   3.333338   4.442466
    15  H    2.637909   2.134585   1.090402   2.150655   3.367314
    16  H    3.380124   2.174419   1.091071   2.182242   2.656980
    17  H    3.059457   2.740191   2.176313   1.092336   2.100151
    18  H    4.180765   3.492342   2.172030   1.092109   2.077229
    19  H    3.808748   2.739668   2.556977   2.031701   1.013557
    20  H    4.781900   3.942402   3.336188   2.049508   1.010533
                   11         12         13         14         15
    11  H    0.000000
    12  H    2.473780   0.000000
    13  H    4.285275   2.477199   0.000000
    14  H    4.945447   4.280390   2.462546   0.000000
    15  H    5.450322   5.824102   4.691099   2.451099   0.000000
    16  H    4.812404   5.915303   5.489583   3.685066   1.719222
    17  H    5.664240   5.942324   4.839374   2.899477   2.575140
    18  H    6.546338   7.218085   6.205318   3.978487   2.395328
    19  H    4.358238   5.602279   5.584045   4.321200   3.603959
    20  H    5.926474   6.930103   6.545606   4.987837   4.162902
                   16         17         18         19         20
    16  H    0.000000
    17  H    3.082387   0.000000
    18  H    2.578793   1.753472   0.000000
    19  H    2.760896   2.486812   2.916937   0.000000
    20  H    3.643754   2.319755   2.474925   1.623310   0.000000
 Stoichiometry    C8H10ClN
 Framework group  C1[X(C8H10ClN)]
 Deg. of freedom    54
 Full point group                 C1      NOp   1
 Largest Abelian subgroup         C1      NOp   1
 Largest concise Abelian subgroup C1      NOp   1
                         Standard orientation:                         
 ---------------------------------------------------------------------
 Center     Atomic      Atomic             Coordinates (Angstroms)
 Number     Number       Type             X           Y           Z
 ---------------------------------------------------------------------
      1         17           0       -0.522270    2.089256   -0.267914
      2          6           0        0.538149    0.730837   -0.120044
      3          6           0        1.839959    0.961331    0.327726
      4          6           0        2.739005   -0.095823    0.463388
      5          6           0        2.337083   -1.392772    0.149465
      6          6           0        1.037826   -1.630579   -0.298788
      7          6           0        0.126160   -0.576397   -0.437245
      8          6           0       -1.287400   -0.891905   -0.930518
      9          6           0       -2.246458   -1.345619    0.183911
     10          7           0       -2.649732   -0.208726    0.990935
     11          1           0        2.150810    1.967642    0.568030
     12          1           0        3.745272    0.091754    0.809527
     13          1           0        3.031866   -2.214206    0.252647
     14          1           0        0.738885   -2.641286   -0.537276
     15          1           0       -1.214129   -1.688644   -1.671337
     16          1           0       -1.704135   -0.051064   -1.487075
     17          1           0       -1.774534   -2.108916    0.806699
     18          1           0       -3.139195   -1.800730   -0.250367
     19          1           0       -1.834751    0.338572    1.243065
     20          1           0       -3.079320   -0.503829    1.856698
 ---------------------------------------------------------------------
 Rotational constants (GHZ):           1.5141072           0.9959368           0.6759622
 Standard basis: 6-31G(d,p) (6D, 7F)
 There are   204 symmetry adapted cartesian basis functions of A   symmetry.
 There are   204 symmetry adapted basis functions of A   symmetry.
   204 basis functions,   374 primitive gaussians,   204 cartesian basis functions
    41 alpha electrons       41 beta electrons
       nuclear repulsion energy       588.8459471347 Hartrees.
 NAtoms=   20 NActive=   20 NUniq=   20 SFac= 1.00D+00 NAtFMM=   60 NAOKFM=F Big=F
 Integral buffers will be    131072 words long.
 Raffenetti 2 integral format.
 Two-electron integral symmetry is turned on.
 Nuclear repulsion after empirical dispersion term =      588.8062366071 Hartrees.
 One-electron integrals computed using PRISM.
 NBasis=   204 RedAO= T EigKep=  4.47D-04  NBF=   204
 NBsUse=   204 1.00D-06 EigRej= -1.00D+00 NBFU=   204
 ExpMin= 1.43D-01 ExpMax= 2.52D+04 ExpMxC= 3.78D+03 IAcc=3 IRadAn=         5 AccDes= 0.00D+00
 Harris functional with IExCor=  402 and IRadAn=       5 diagonalized for initial guess.
 HarFok:  IExCor=  402 AccDes= 0.00D+00 IRadAn=         5 IDoV= 1 UseB2=F ITyADJ=14
 ICtDFT=  3500011 ScaDFX=  1.000000  1.000000  1.000000  1.000000
 FoFCou: FMM=F IPFlag=           0 FMFlag=      100000 FMFlg1=           0
         NFxFlg=           0 DoJE=T BraDBF=F KetDBF=T FulRan=T
         wScrn=  0.000000 ICntrl=       500 IOpCl=  0 I1Cent=   200000004 NGrid=           0
         NMat0=    1 NMatS0=      1 NMatT0=    0 NMatD0=    1 NMtDS0=    0 NMtDT0=    0
 Petite list used in FoFCou.
 Requested convergence on RMS density matrix=1.00D-08 within 128 cycles.
 Requested convergence on MAX density matrix=1.00D-06.
 Requested convergence on             energy=1.00D-06.
 No special actions if energy rises.
 Integral accuracy reduced to 1.0D-05 until final iterations.
 Initial convergence to 1.0D-05 achieved.  Increase integral accuracy.
 SCF Done:  E(RB3LYP) =  -825.867497956     A.U. after   14 cycles
            NFock= 14  Conv=0.46D-08     -V/T= 2.0059

 **********************************************************************

            Population analysis using the SCF Density.

 **********************************************************************

 Orbital symmetries:
       Occupied  (A) (A) (A) (A) (A) (A) (A) (A) (A) (A) (A) (A)
                 (A) (A) (A) (A) (A) (A) (A) (A) (A) (A) (A) (A)
                 (A) (A) (A) (A) (A) (A) (A) (A) (A) (A) (A) (A)
                 (A) (A) (A) (A) (A)
       Virtual   (A) (A) (A) (A) (A) (A) (A) (A) (A) (A) (A) (A)
                 (A) (A) (A) (A) (A) (A) (A) (A) (A) (A) (A) (A)
                 (A) (A) (A) (A) (A) (A) (A) (A) (A) (A) (A) (A)
                 (A) (A) (A) (A) (A) (A) (A) (A) (A) (A) (A) (A)
                 (A) (A) (A) (A) (A) (A) (A) (A) (A) (A) (A) (A)
                 (A) (A) (A) (A) (A) (A) (A) (A) (A) (A) (A) (A)
                 (A) (A) (A) (A) (A) (A) (A) (A) (A) (A) (A) (A)
                 (A) (A) (A) (A) (A) (A) (A) (A) (A) (A) (A) (A)
                 (A) (A) (A) (A) (A) (A) (A) (A) (A) (A) (A) (A)
                 (A) (A) (A) (A) (A) (A) (A) (A) (A) (A) (A) (A)
                 (A) (A) (A) (A) (A) (A) (A) (A) (A) (A) (A) (A)
                 (A) (A) (A) (A) (A) (A) (A) (A) (A) (A) (A) (A)
                 (A) (A) (A) (A) (A) (A) (A) (A) (A) (A) (A) (A)
                 (A) (A) (A) (A) (A) (A) (A)
 The electronic state is 1-A.
 Alpha  occ. eigenvalues -- -101.54902 -14.29870 -10.25020 -10.21029 -10.20522
 Alpha  occ. eigenvalues --  -10.20145 -10.19884 -10.19854 -10.19699 -10.18847
 Alpha  occ. eigenvalues --   -9.46564  -7.22951  -7.22004  -7.21946  -0.89765
 Alpha  occ. eigenvalues --   -0.87407  -0.83808  -0.77904  -0.73718  -0.70786
 Alpha  occ. eigenvalues --   -0.62780  -0.60712  -0.57905  -0.51344  -0.49034
 Alpha  occ. eigenvalues --   -0.47702  -0.46435  -0.44763  -0.43218  -0.42423
 Alpha  occ. eigenvalues --   -0.39607  -0.38939  -0.37300  -0.36465  -0.35037
 Alpha  occ. eigenvalues --   -0.34229  -0.33069  -0.30933  -0.25500  -0.24356
 Alpha  occ. eigenvalues --   -0.22091
 Alpha virt. eigenvalues --   -0.01356  -0.01068   0.04029   0.09574   0.10816
 Alpha virt. eigenvalues --    0.12301   0.13784   0.14622   0.16062   0.16909
 Alpha virt. eigenvalues --    0.17448   0.17782   0.18367   0.19338   0.22596
 Alpha virt. eigenvalues --    0.25026   0.25942   0.28565   0.30006   0.31194
 Alpha virt. eigenvalues --    0.32515   0.41293   0.41462   0.45443   0.46701
 Alpha virt. eigenvalues --    0.47395   0.51618   0.52203   0.53718   0.54989
 Alpha virt. eigenvalues --    0.55979   0.57218   0.57991   0.59756   0.60052
 Alpha virt. eigenvalues --    0.60386   0.61284   0.62301   0.63840   0.65567
 Alpha virt. eigenvalues --    0.67412   0.72098   0.73694   0.75065   0.76656
 Alpha virt. eigenvalues --    0.77661   0.77867   0.80597   0.81172   0.81662
 Alpha virt. eigenvalues --    0.83122   0.83482   0.86894   0.87499   0.88517
 Alpha virt. eigenvalues --    0.89750   0.90681   0.92113   0.93642   0.94859
 Alpha virt. eigenvalues --    0.96420   0.96944   0.99568   1.01684   1.05924
 Alpha virt. eigenvalues --    1.07902   1.10010   1.10822   1.13073   1.16747
 Alpha virt. eigenvalues --    1.18364   1.23890   1.25527   1.30591   1.33756
 Alpha virt. eigenvalues --    1.39248   1.40177   1.40240   1.41073   1.43060
 Alpha virt. eigenvalues --    1.46068   1.50504   1.53241   1.53942   1.66148
 Alpha virt. eigenvalues --    1.71622   1.75209   1.78553   1.80198   1.83209
 Alpha virt. eigenvalues --    1.84935   1.87020   1.87964   1.88664   1.92785
 Alpha virt. eigenvalues --    1.93861   1.98306   1.98536   1.99057   2.00132
 Alpha virt. eigenvalues --    2.01807   2.05412   2.08359   2.11539   2.13522
 Alpha virt. eigenvalues --    2.18348   2.19517   2.20930   2.24746   2.28567
 Alpha virt. eigenvalues --    2.30202   2.30862   2.34572   2.36292   2.38049
 Alpha virt. eigenvalues --    2.39072   2.39896   2.42128   2.43569   2.46673
 Alpha virt. eigenvalues --    2.47528   2.50317   2.52088   2.54480   2.56202
 Alpha virt. eigenvalues --    2.56525   2.62600   2.63651   2.66419   2.67374
 Alpha virt. eigenvalues --    2.72468   2.73489   2.76002   2.78889   2.82292
 Alpha virt. eigenvalues --    2.88554   2.89633   2.93692   2.98351   3.02026
 Alpha virt. eigenvalues --    3.04950   3.19141   3.24242   3.29531   3.30347
 Alpha virt. eigenvalues --    3.32042   3.34787   3.35742   3.39723   3.46806
 Alpha virt. eigenvalues --    3.54099   3.58653   3.83068   3.98822   4.09252
 Alpha virt. eigenvalues --    4.13675   4.16435   4.30248   4.37203   4.42000
 Alpha virt. eigenvalues --    4.52012   4.66927   4.80369
          Condensed to atoms (all electrons):
               1          2          3          4          5          6
     1  Cl  16.907270   0.241740  -0.078751   0.004791   0.000305   0.004261
     2  C    0.241740   5.121902   0.502498  -0.039316  -0.042200  -0.041007
     3  C   -0.078751   0.502498   4.880472   0.536572  -0.029040  -0.045033
     4  C    0.004791  -0.039316   0.536572   4.800352   0.545663  -0.038680
     5  C    0.000305  -0.042200  -0.029040   0.545663   4.827407   0.519980
     6  C    0.004261  -0.041007  -0.045033  -0.038680   0.519980   4.880640
     7  C   -0.077572   0.499963  -0.033223  -0.030922  -0.026428   0.541260
     8  C   -0.004703  -0.057866   0.005616   0.000377   0.006166  -0.050403
     9  C   -0.000397  -0.002058  -0.000116   0.000024  -0.000080  -0.004900
    10  N   -0.003791  -0.000460  -0.000029   0.000002   0.000003  -0.000202
    11  H   -0.000807  -0.040798   0.370008  -0.036271   0.004548   0.000864
    12  H   -0.000184   0.004893  -0.040502   0.371236  -0.040941   0.004641
    13  H    0.000014   0.000973   0.004738  -0.041211   0.365873  -0.037332
    14  H   -0.000144   0.005866   0.000416   0.004738  -0.043538   0.370100
    15  H    0.000306   0.005110  -0.000166  -0.000001   0.000273  -0.008785
    16  H    0.005483  -0.010197   0.000127   0.000007  -0.000222   0.003927
    17  H    0.000037  -0.000199  -0.000025  -0.000003  -0.000160   0.004418
    18  H   -0.000119  -0.000034   0.000003  -0.000000   0.000004   0.000093
    19  H    0.000045   0.004139  -0.000025  -0.000039  -0.000017   0.000124
    20  H    0.000342  -0.000060   0.000001   0.000000  -0.000001  -0.000021
               7          8          9         10         11         12
     1  Cl  -0.077572  -0.004703  -0.000397  -0.003791  -0.000807  -0.000184
     2  C    0.499963  -0.057866  -0.002058  -0.000460  -0.040798   0.004893
     3  C   -0.033223   0.005616  -0.000116  -0.000029   0.370008  -0.040502
     4  C   -0.030922   0.000377   0.000024   0.000002  -0.036271   0.371236
     5  C   -0.026428   0.006166  -0.000080   0.000003   0.004548  -0.040941
     6  C    0.541260  -0.050403  -0.004900  -0.000202   0.000864   0.004641
     7  C    4.784341   0.364426  -0.038193  -0.002748   0.003500   0.000730
     8  C    0.364426   5.024903   0.365340  -0.055327  -0.000166   0.000006
     9  C   -0.038193   0.365340   4.777229   0.320103   0.000000   0.000000
    10  N   -0.002748  -0.055327   0.320103   6.768933  -0.000000  -0.000000
    11  H    0.003500  -0.000166   0.000000  -0.000000   0.600600  -0.006442
    12  H    0.000730   0.000006   0.000000  -0.000000  -0.006442   0.619602
    13  H    0.004187  -0.000179   0.000000   0.000000  -0.000188  -0.006017
    14  H   -0.043249  -0.009791   0.000558   0.000007   0.000017  -0.000211
    15  H   -0.033427   0.365792  -0.031788   0.004237   0.000003  -0.000000
    16  H   -0.029806   0.373700  -0.032610   0.000899   0.000001  -0.000000
    17  H   -0.011044  -0.039621   0.375759  -0.054766   0.000000  -0.000000
    18  H    0.005231  -0.026557   0.378459  -0.049002  -0.000000   0.000000
    19  H    0.008146  -0.011964  -0.042673   0.335611  -0.000003   0.000000
    20  H    0.000171   0.005929  -0.034104   0.337261   0.000000   0.000000
              13         14         15         16         17         18
     1  Cl   0.000014  -0.000144   0.000306   0.005483   0.000037  -0.000119
     2  C    0.000973   0.005866   0.005110  -0.010197  -0.000199  -0.000034
     3  C    0.004738   0.000416  -0.000166   0.000127  -0.000025   0.000003
     4  C   -0.041211   0.004738  -0.000001   0.000007  -0.000003  -0.000000
     5  C    0.365873  -0.043538   0.000273  -0.000222  -0.000160   0.000004
     6  C   -0.037332   0.370100  -0.008785   0.003927   0.004418   0.000093
     7  C    0.004187  -0.043249  -0.033427  -0.029806  -0.011044   0.005231
     8  C   -0.000179  -0.009791   0.365792   0.373700  -0.039621  -0.026557
     9  C    0.000000   0.000558  -0.031788  -0.032610   0.375759   0.378459
    10  N    0.000000   0.000007   0.004237   0.000899  -0.054766  -0.049002
    11  H   -0.000188   0.000017   0.000003   0.000001   0.000000  -0.000000
    12  H   -0.006017  -0.000211  -0.000000  -0.000000  -0.000000   0.000000
    13  H    0.625261  -0.005850  -0.000008   0.000002   0.000004  -0.000000
    14  H   -0.005850   0.624844   0.004385   0.000160   0.001301  -0.000131
    15  H   -0.000008   0.004385   0.630920  -0.034843  -0.000012  -0.004969
    16  H    0.000002   0.000160  -0.034843   0.589161   0.006457  -0.004177
    17  H    0.000004   0.001301  -0.000012   0.006457   0.707923  -0.055751
    18  H   -0.000000  -0.000131  -0.004969  -0.004177  -0.055751   0.650053
    19  H   -0.000000  -0.000004   0.000161  -0.001217  -0.003366   0.007461
    20  H    0.000000   0.000000  -0.000265   0.000037  -0.007360  -0.000820
              19         20
     1  Cl   0.000045   0.000342
     2  C    0.004139  -0.000060
     3  C   -0.000025   0.000001
     4  C   -0.000039   0.000000
     5  C   -0.000017  -0.000001
     6  C    0.000124  -0.000021
     7  C    0.008146   0.000171
     8  C   -0.011964   0.005929
     9  C   -0.042673  -0.034104
    10  N    0.335611   0.337261
    11  H   -0.000003   0.000000
    12  H    0.000000   0.000000
    13  H   -0.000000   0.000000
    14  H   -0.000004   0.000000
    15  H    0.000161  -0.000265
    16  H   -0.001217   0.000037
    17  H   -0.003366  -0.007360
    18  H    0.007461  -0.000820
    19  H    0.494684  -0.033209
    20  H   -0.033209   0.499955
 Mulliken charges:
               1
     1  Cl   0.001875
     2  C   -0.152888
     3  C   -0.073541
     4  C   -0.077322
     5  C   -0.087595
     6  C   -0.103945
     7  C    0.114657
     8  C   -0.255680
     9  C   -0.030554
    10  N   -0.600731
    11  H    0.105135
    12  H    0.093190
    13  H    0.089734
    14  H    0.090526
    15  H    0.103076
    16  H    0.133110
    17  H    0.076409
    18  H    0.100255
    19  H    0.242145
    20  H    0.232142
 Sum of Mulliken charges =  -0.00000
 Mulliken charges with hydrogens summed into heavy atoms:
               1
     1  Cl   0.001875
     2  C   -0.152888
     3  C    0.031594
     4  C    0.015868
     5  C    0.002140
     6  C   -0.013419
     7  C    0.114657
     8  C   -0.019493
     9  C    0.146109
    10  N   -0.126443
 Electronic spatial extent (au):  <R**2>=           1728.1400
 Charge=             -0.0000 electrons
 Dipole moment (field-independent basis, Debye):
    X=              1.5947    Y=             -1.9350    Z=              0.7948  Tot=              2.6304
 Quadrupole moment (field-independent basis, Debye-Ang):
   XX=            -65.1693   YY=            -63.5956   ZZ=            -64.9380
   XY=              3.0456   XZ=              0.3181   YZ=              1.0407
 Traceless Quadrupole moment (field-independent basis, Debye-Ang):
   XX=             -0.6016   YY=              0.9720   ZZ=             -0.3704
   XY=              3.0456   XZ=              0.3181   YZ=              1.0407
 Octapole moment (field-independent basis, Debye-Ang**2):
  XXX=             21.0796  YYY=              0.8741  ZZZ=              6.3645  XYY=              0.8553
  XXY=             -7.0008  XXZ=             11.5780  XZZ=            -15.0981  YZZ=              2.1503
  YYZ=              0.2091  XYZ=              2.8919
 Hexadecapole moment (field-independent basis, Debye-Ang**3):
 XXXX=          -1293.6902 YYYY=           -761.7166 ZZZZ=           -193.0064 XXXY=             21.5879
 XXXZ=              5.5466 YYYX=            -14.3111 YYYZ=              4.4448 ZZZX=            -24.3025
 ZZZY=             -3.7796 XXYY=           -323.1579 XXZZ=           -233.0921 YYZZ=           -166.8550
 XXYZ=             -7.9571 YYXZ=              1.8978 ZZXY=              6.6068
 N-N= 5.888062366071D+02 E-N=-3.118483157425D+03  KE= 8.209846627080D+02
 Calling FoFJK, ICntrl=      2127 FMM=F ISym2X=0 I1Cent= 0 IOpClX= 0 NMat=1 NMatS=1 NMatT=0.
 ***** Axes restored to original set *****
 -------------------------------------------------------------------
 Center     Atomic                   Forces (Hartrees/Bohr)
 Number     Number              X              Y              Z
 -------------------------------------------------------------------
      1       17           0.006391081    0.009704140    0.005504909
      2        6          -0.012894616   -0.017970919   -0.008141761
      3        6          -0.003243354   -0.000332439   -0.001306010
      4        6           0.005170434   -0.000359820    0.002063537
      5        6           0.002537305    0.000347321    0.000544968
      6        6          -0.008695467    0.009808272   -0.003488591
      7        6           0.018442574    0.000093286    0.008527351
      8        6          -0.006426062   -0.006041564    0.000127878
      9        6          -0.001854997    0.006229102   -0.001179371
     10        7           0.003208515    0.011329069    0.004794938
     11        1          -0.000436204    0.003119264    0.000281995
     12        1          -0.002804586    0.001474611   -0.000937902
     13        1          -0.001773762   -0.002701930   -0.000960018
     14        1           0.003577028   -0.002184834    0.001607274
     15        1          -0.001336559   -0.005317883   -0.001438683
     16        1           0.002737850    0.004869339   -0.003811011
     17        1          -0.006406009   -0.010206505    0.000049544
     18        1           0.001638013   -0.001312294    0.003430365
     19        1          -0.000715054    0.001048137   -0.001993488
     20        1           0.002883870   -0.001594352   -0.003675924
 -------------------------------------------------------------------
 Cartesian Forces:  Max     0.018442574 RMS     0.005733972

 GradGradGradGradGradGradGradGradGradGradGradGradGradGradGradGradGradGrad
 Berny optimization.
 FormGI is forming the generalized inverse of G from B-inverse, IUseBI=4.
 Internal  Forces:  Max     0.012783201 RMS     0.003257862
 Search for a local minimum.
 Step number   1 out of a maximum of  108
 All quantities printed in internal units (Hartrees-Bohrs-Radians)
 Mixed Optimization -- RFO/linear search
 Second derivative matrix not updated -- first step.
 ITU=  0
     Eigenvalues ---    0.00254   0.00369   0.01012   0.01367   0.02045
     Eigenvalues ---    0.02073   0.02118   0.02136   0.02153   0.02164
     Eigenvalues ---    0.02164   0.02169   0.03697   0.04367   0.04374
     Eigenvalues ---    0.05251   0.05430   0.09170   0.09563   0.12639
     Eigenvalues ---    0.13012   0.16000   0.16000   0.16000   0.16000
     Eigenvalues ---    0.16000   0.16000   0.21865   0.21889   0.22000
     Eigenvalues ---    0.22490   0.24479   0.25000   0.25000   0.28634
     Eigenvalues ---    0.29420   0.32547   0.34544   0.34570   0.34689
     Eigenvalues ---    0.34766   0.35898   0.35918   0.35929   0.35959
     Eigenvalues ---    0.38068   0.41671   0.41984   0.45280   0.45382
     Eigenvalues ---    0.45883   0.46040   0.46399   0.46598
 RFO step:  Lambda=-6.53715146D-03 EMin= 2.54006620D-03
 Linear search not attempted -- first point.
 Iteration  1 RMS(Cart)=  0.11755719 RMS(Int)=  0.00433787
 Iteration  2 RMS(Cart)=  0.00602307 RMS(Int)=  0.00043675
 Iteration  3 RMS(Cart)=  0.00001892 RMS(Int)=  0.00043648
 Iteration  4 RMS(Cart)=  0.00000006 RMS(Int)=  0.00043648
 Variable       Old X    -DE/DX   Delta X   Delta X   Delta X     New X
                                 (Linear)    (Quad)   (Total)
    R1        3.26855   0.01278   0.00000   0.03850   0.03850   3.30705
    R2        2.63773   0.00167   0.00000   0.00384   0.00387   2.64160
    R3        2.65855  -0.00112   0.00000  -0.00247  -0.00243   2.65612
    R4        2.63497  -0.00262   0.00000  -0.00526  -0.00528   2.62970
    R5        2.04146   0.00305   0.00000   0.00834   0.00834   2.04980
    R6        2.63355   0.00004   0.00000   0.00008   0.00003   2.63358
    R7        2.04193   0.00316   0.00000   0.00863   0.00863   2.05056
    R8        2.63585  -0.00082   0.00000  -0.00202  -0.00204   2.63380
    R9        2.04241   0.00336   0.00000   0.00920   0.00920   2.05162
   R10        2.64670  -0.00070   0.00000  -0.00181  -0.00179   2.64490
   R11        2.04210   0.00335   0.00000   0.00916   0.00916   2.05126
   R12        2.89135  -0.00684   0.00000  -0.02275  -0.02275   2.86860
   R13        2.90772  -0.00220   0.00000  -0.00752  -0.00752   2.90020
   R14        2.06056   0.00403   0.00000   0.01137   0.01137   2.07193
   R15        2.06183   0.00117   0.00000   0.00331   0.00331   2.06514
   R16        2.74267   0.01143   0.00000   0.02951   0.02951   2.77218
   R17        2.06422   0.00780   0.00000   0.02215   0.02215   2.08637
   R18        2.06379   0.00319   0.00000   0.00904   0.00904   2.07283
   R19        1.91535   0.00153   0.00000   0.00332   0.00332   1.91867
   R20        1.90963   0.00470   0.00000   0.01010   0.01010   1.91973
    A1        2.05955  -0.00225   0.00000  -0.00898  -0.00919   2.05036
    A2        2.13052  -0.00346   0.00000  -0.01369  -0.01390   2.11662
    A3        2.09311   0.00570   0.00000   0.02261   0.02253   2.11565
    A4        2.10291  -0.00182   0.00000  -0.00699  -0.00697   2.09594
    A5        2.08696   0.00007   0.00000  -0.00153  -0.00154   2.08542
    A6        2.09332   0.00174   0.00000   0.00851   0.00849   2.10181
    A7        2.09174  -0.00060   0.00000  -0.00223  -0.00228   2.08946
    A8        2.09440  -0.00069   0.00000  -0.00484  -0.00483   2.08957
    A9        2.09704   0.00129   0.00000   0.00706   0.00707   2.10411
   A10        2.09405  -0.00094   0.00000  -0.00491  -0.00497   2.08908
   A11        2.09486   0.00065   0.00000   0.00353   0.00355   2.09841
   A12        2.09428   0.00029   0.00000   0.00138   0.00139   2.09567
   A13        2.10571   0.00529   0.00000   0.02196   0.02197   2.12768
   A14        2.08066   0.00039   0.00000   0.00721   0.00720   2.08786
   A15        2.09681  -0.00567   0.00000  -0.02918  -0.02919   2.06762
   A16        2.07885  -0.00764   0.00000  -0.03046  -0.03038   2.04847
   A17        2.13513   0.00725   0.00000   0.02859   0.02854   2.16367
   A18        2.06921   0.00039   0.00000   0.00187   0.00182   2.07103
   A19        1.98575   0.00218   0.00000   0.00090   0.00080   1.98656
   A20        1.88349  -0.00075   0.00000  -0.00377  -0.00384   1.87966
   A21        1.93736   0.00011   0.00000  -0.00039  -0.00058   1.93678
   A22        1.89494  -0.00182   0.00000  -0.01387  -0.01386   1.88107
   A23        1.93759  -0.00307   0.00000  -0.02513  -0.02518   1.91241
   A24        1.81544   0.00346   0.00000   0.04663   0.04662   1.86206
   A25        1.92296   0.00736   0.00000   0.03759   0.03753   1.96050
   A26        1.92805  -0.00758   0.00000  -0.04806  -0.05018   1.87786
   A27        1.92237  -0.00372   0.00000  -0.04182  -0.04240   1.87997
   A28        1.92878   0.00447   0.00000   0.06752   0.06804   1.99682
   A29        1.89696  -0.00232   0.00000  -0.01023  -0.00952   1.88744
   A30        1.86365   0.00162   0.00000  -0.00636  -0.00842   1.85522
   A31        1.91546   0.00185   0.00000   0.00912   0.00913   1.92459
   A32        1.94524  -0.00268   0.00000  -0.01802  -0.01802   1.92722
   A33        1.86125  -0.00005   0.00000  -0.00423  -0.00421   1.85704
    D1       -3.13926   0.00079   0.00000   0.02881   0.02892  -3.11034
    D2       -0.00004   0.00066   0.00000   0.02434   0.02441   0.02437
    D3        0.00050  -0.00013   0.00000  -0.00476  -0.00470  -0.00421
    D4        3.13971  -0.00025   0.00000  -0.00922  -0.00921   3.13050
    D5        3.13792  -0.00110   0.00000  -0.04031  -0.04020   3.09772
    D6       -0.00352  -0.00119   0.00000  -0.04465  -0.04457  -0.04810
    D7       -0.00176  -0.00015   0.00000  -0.00534  -0.00531  -0.00707
    D8        3.13998  -0.00024   0.00000  -0.00968  -0.00968   3.13030
    D9        0.00059   0.00024   0.00000   0.00852   0.00851   0.00910
   D10        3.14026  -0.00001   0.00000  -0.00022  -0.00026   3.14000
   D11       -3.13862   0.00036   0.00000   0.01301   0.01307  -3.12555
   D12        0.00105   0.00012   0.00000   0.00427   0.00430   0.00535
   D13       -0.00039  -0.00006   0.00000  -0.00204  -0.00214  -0.00253
   D14        3.14056  -0.00025   0.00000  -0.00861  -0.00872   3.13184
   D15       -3.14006   0.00019   0.00000   0.00673   0.00672  -3.13334
   D16        0.00090   0.00000   0.00000   0.00015   0.00014   0.00103
   D17       -0.00090  -0.00024   0.00000  -0.00824  -0.00835  -0.00925
   D18       -3.13999  -0.00013   0.00000  -0.00456  -0.00458   3.13861
   D19        3.14133  -0.00005   0.00000  -0.00167  -0.00177   3.13955
   D20        0.00224   0.00005   0.00000   0.00201   0.00199   0.00423
   D21        0.00197   0.00033   0.00000   0.01185   0.01187   0.01384
   D22       -3.13976   0.00041   0.00000   0.01603   0.01600  -3.12376
   D23        3.14104   0.00024   0.00000   0.00819   0.00819  -3.13395
   D24       -0.00070   0.00032   0.00000   0.01237   0.01233   0.01163
   D25       -1.67132  -0.00107   0.00000  -0.13097  -0.13091  -1.80222
   D26        2.50799   0.00037   0.00000  -0.11137  -0.11129   2.39670
   D27        0.52918  -0.00339   0.00000  -0.16455  -0.16455   0.36463
   D28        1.47043  -0.00116   0.00000  -0.13529  -0.13533   1.33510
   D29       -0.63346   0.00028   0.00000  -0.11569  -0.11571  -0.74916
   D30       -2.61227  -0.00348   0.00000  -0.16887  -0.16897  -2.78123
   D31        1.30800   0.00180   0.00000  -0.00270  -0.00295   1.30505
   D32       -0.82805  -0.00370   0.00000  -0.08094  -0.07983  -0.90788
   D33       -2.88263   0.00122   0.00000  -0.01808  -0.01884  -2.90148
   D34       -2.87775   0.00097   0.00000  -0.01668  -0.01693  -2.89468
   D35        1.26939  -0.00453   0.00000  -0.09492  -0.09381   1.17558
   D36       -0.78519   0.00040   0.00000  -0.03205  -0.03282  -0.81802
   D37       -0.89237   0.00244   0.00000   0.01784   0.01749  -0.87488
   D38       -3.02842  -0.00306   0.00000  -0.06041  -0.05939  -3.08781
   D39        1.20018   0.00187   0.00000   0.00246   0.00160   1.20178
   D40       -0.82912  -0.00087   0.00000  -0.05810  -0.05893  -0.88805
   D41       -2.88696  -0.00035   0.00000  -0.04759  -0.04841  -2.93537
   D42        1.30650  -0.00247   0.00000  -0.04796  -0.04709   1.25940
   D43       -0.75134  -0.00194   0.00000  -0.03744  -0.03657  -0.78791
   D44       -2.93698   0.00066   0.00000  -0.02330  -0.02334  -2.96033
   D45        1.28836   0.00119   0.00000  -0.01278  -0.01282   1.27554
         Item               Value     Threshold  Converged?
 Maximum Force            0.012783     0.000450     NO 
 RMS     Force            0.003258     0.000300     NO 
 Maximum Displacement     0.445957     0.001800     NO 
 RMS     Displacement     0.118760     0.001200     NO 
 Predicted change in Energy=-3.813978D-03
 GradGradGradGradGradGradGradGradGradGradGradGradGradGradGradGradGradGrad

                          Input orientation:                          
 ---------------------------------------------------------------------
 Center     Atomic      Atomic             Coordinates (Angstroms)
 Number     Number       Type             X           Y           Z
 ---------------------------------------------------------------------
      1         17           0       -0.105070    2.609368    1.197890
      2          6           0       -0.916779    1.236511    0.477513
      3          6           0       -2.196010    1.445375   -0.045934
      4          6           0       -2.905938    0.383343   -0.597815
      5          6           0       -2.340473   -0.890282   -0.616263
      6          6           0       -1.067497   -1.088314   -0.084424
      7          6           0       -0.323510   -0.037642    0.464680
      8          6           0        1.065194   -0.332104    1.002364
      9          6           0        2.129663   -0.502135   -0.090048
     10          7           0        2.522750    0.777898   -0.689231
     11          1           0       -2.631122    2.438414   -0.012126
     12          1           0       -3.899118    0.551870   -1.001121
     13          1           0       -2.890620   -1.726560   -1.036565
     14          1           0       -0.629281   -2.081330   -0.096867
     15          1           0        1.011958   -1.270535    1.566856
     16          1           0        1.383696    0.440247    1.706846
     17          1           0        1.750984   -1.246677   -0.811994
     18          1           0        3.017133   -0.948287    0.375272
     19          1           0        1.700271    1.298211   -0.978484
     20          1           0        3.073467    0.622129   -1.528548
 ---------------------------------------------------------------------
                    Distance matrix (angstroms):
                    1          2          3          4          5
     1  Cl   0.000000
     2  C    1.750015   0.000000
     3  C    2.697038   1.397875   0.000000
     4  C    4.003075   2.416812   1.391576   0.000000
     5  C    4.531636   2.783253   2.408617   1.393632   0.000000
     6  C    4.030317   2.396519   2.773915   2.410230   1.393749
     7  C    2.755354   1.405560   2.442605   2.824014   2.442042
     8  C    3.171751   2.581519   3.859251   4.340775   3.811834
     9  C    4.041567   3.553284   4.744069   5.138014   4.517707
    10  N    3.717654   3.660871   4.808956   5.443776   5.141895
    11  H    2.806119   2.150183   1.084708   2.154501   3.395537
    12  H    4.843940   3.398446   2.147396   1.085110   2.158076
    13  H    5.617148   3.868885   3.394849   2.155093   1.085669
    14  H    4.894266   3.379443   3.859389   3.392452   2.148615
    15  H    4.054323   3.345441   4.502035   4.771900   4.018631
    16  H    2.679654   2.727175   4.110574   4.869873   4.586565
    17  H    4.727966   3.866008   4.838673   4.938600   4.111612
    18  H    4.804348   4.501051   5.751860   6.148407   5.448894
    19  H    3.116889   2.995444   4.009030   4.711588   4.609590
    20  H    4.635265   4.508193   5.535636   6.056119   5.694769
                    6          7          8          9         10
     6  C    0.000000
     7  C    1.399623   0.000000
     8  C    2.510246   1.517996   0.000000
     9  C    3.250458   2.557643   1.534721   0.000000
    10  N    4.091261   3.177706   2.493605   1.466977   0.000000
    11  H    3.858492   3.418079   4.729452   5.596246   5.456939
    12  H    3.398325   3.909100   5.425842   6.187664   6.433409
    13  H    2.153533   3.419975   4.663711   5.253413   5.974741
    14  H    1.085481   2.141376   2.671955   3.178943   4.296671
    15  H    2.661591   2.125628   1.096420   2.141269   3.401249
    16  H    3.399044   2.164696   1.092825   2.161800   2.674442
    17  H    2.915180   2.719411   2.144445   1.104060   2.170161
    18  H    4.112801   3.463693   2.140792   1.096894   2.087413
    19  H    3.762365   2.821865   2.642917   2.053032   1.015316
    20  H    4.707302   3.993459   3.368862   2.055241   1.015877
                   11         12         13         14         15
    11  H    0.000000
    12  H    2.478906   0.000000
    13  H    4.296955   2.491900   0.000000
    14  H    4.943949   4.294561   2.474378   0.000000
    15  H    5.433371   5.833895   4.713372   2.473667   0.000000
    16  H    4.802739   5.937480   5.521877   3.696459   1.756291
    17  H    5.781223   5.932470   4.671746   2.621777   2.491116
    18  H    6.597166   7.209678   6.123768   3.847472   2.354664
    19  H    4.582016   5.648955   5.498081   4.198257   3.681167
    20  H    6.175820   6.992857   6.428741   4.802993   4.172951
                   16         17         18         19         20
    16  H    0.000000
    17  H    3.053715   0.000000
    18  H    2.523734   1.761184   0.000000
    19  H    2.836781   2.550833   2.934882   0.000000
    20  H    3.654611   2.398926   2.468585   1.626445   0.000000
 Stoichiometry    C8H10ClN
 Framework group  C1[X(C8H10ClN)]
 Deg. of freedom    54
 Full point group                 C1      NOp   1
 Largest Abelian subgroup         C1      NOp   1
 Largest concise Abelian subgroup C1      NOp   1
                         Standard orientation:                         
 ---------------------------------------------------------------------
 Center     Atomic      Atomic             Coordinates (Angstroms)
 Number     Number       Type             X           Y           Z
 ---------------------------------------------------------------------
      1         17           0       -0.232685    2.223495   -0.228861
      2          6           0        0.631168    0.708363   -0.085035
      3          6           0        1.947510    0.758325    0.382725
      4          6           0        2.697107   -0.409815    0.482904
      5          6           0        2.133406   -1.626965    0.104753
      6          6           0        0.822659   -1.663722   -0.367610
      7          6           0        0.039311   -0.508077   -0.466581
      8          6           0       -1.387375   -0.636384   -0.968994
      9          6           0       -2.363710   -1.197229    0.073882
     10          7           0       -2.707536   -0.210025    1.103072
     11          1           0        2.379750    1.713829    0.659805
     12          1           0        3.718865   -0.363986    0.845358
     13          1           0        2.713705   -2.542143    0.170930
     14          1           0        0.385660   -2.611973   -0.664458
     15          1           0       -1.379291   -1.323329   -1.823499
     16          1           0       -1.758936    0.321937   -1.340249
     17          1           0       -1.930763   -2.133857    0.466606
     18          1           0       -3.285212   -1.479893   -0.449673
     19          1           0       -1.864459    0.200871    1.491982
     20          1           0       -3.191377   -0.657671    1.876064
 ---------------------------------------------------------------------
 Rotational constants (GHZ):           1.4225662           0.9946034           0.6657949
 Standard basis: 6-31G(d,p) (6D, 7F)
 There are   204 symmetry adapted cartesian basis functions of A   symmetry.
 There are   204 symmetry adapted basis functions of A   symmetry.
   204 basis functions,   374 primitive gaussians,   204 cartesian basis functions
    41 alpha electrons       41 beta electrons
       nuclear repulsion energy       584.4430333225 Hartrees.
 NAtoms=   20 NActive=   20 NUniq=   20 SFac= 1.00D+00 NAtFMM=   60 NAOKFM=F Big=F
 Integral buffers will be    131072 words long.
 Raffenetti 2 integral format.
 Two-electron integral symmetry is turned on.
 Nuclear repulsion after empirical dispersion term =      584.4038305709 Hartrees.
 One-electron integrals computed using PRISM.
 NBasis=   204 RedAO= T EigKep=  4.42D-04  NBF=   204
 NBsUse=   204 1.00D-06 EigRej= -1.00D+00 NBFU=   204
 Initial guess from the checkpoint file:  "N3_conf-6.chk"
 B after Tr=     0.000000    0.000000    0.000000
         Rot=    0.998317   -0.031298    0.000992    0.048810 Ang=  -6.65 deg.
 ExpMin= 1.43D-01 ExpMax= 2.52D+04 ExpMxC= 3.78D+03 IAcc=3 IRadAn=         5 AccDes= 0.00D+00
 Harris functional with IExCor=  402 and IRadAn=       5 diagonalized for initial guess.
 HarFok:  IExCor=  402 AccDes= 0.00D+00 IRadAn=         5 IDoV= 1 UseB2=F ITyADJ=14
 ICtDFT=  3500011 ScaDFX=  1.000000  1.000000  1.000000  1.000000
 FoFCou: FMM=F IPFlag=           0 FMFlag=      100000 FMFlg1=           0
         NFxFlg=           0 DoJE=T BraDBF=F KetDBF=T FulRan=T
         wScrn=  0.000000 ICntrl=       500 IOpCl=  0 I1Cent=   200000004 NGrid=           0
         NMat0=    1 NMatS0=      1 NMatT0=    0 NMatD0=    1 NMtDS0=    0 NMtDT0=    0
 Petite list used in FoFCou.
 Requested convergence on RMS density matrix=1.00D-08 within 128 cycles.
 Requested convergence on MAX density matrix=1.00D-06.
 Requested convergence on             energy=1.00D-06.
 No special actions if energy rises.
 Integral accuracy reduced to 1.0D-05 until final iterations.
 Initial convergence to 1.0D-05 achieved.  Increase integral accuracy.
 SCF Done:  E(RB3LYP) =  -825.870352976     A.U. after   11 cycles
            NFock= 11  Conv=0.96D-08     -V/T= 2.0061
 Calling FoFJK, ICntrl=      2127 FMM=F ISym2X=0 I1Cent= 0 IOpClX= 0 NMat=1 NMatS=1 NMatT=0.
 ***** Axes restored to original set *****
 -------------------------------------------------------------------
 Center     Atomic                   Forces (Hartrees/Bohr)
 Number     Number              X              Y              Z
 -------------------------------------------------------------------
      1       17           0.003586925    0.003440809    0.000969936
      2        6          -0.005474537   -0.007910084   -0.002554831
      3        6          -0.000015060    0.001938417    0.000285658
      4        6           0.000526660    0.000049757    0.000222486
      5        6           0.001276078   -0.001649657    0.000244540
      6        6          -0.004046206    0.001024593   -0.003549613
      7        6           0.006243143    0.003625314    0.003048957
      8        6          -0.002897135    0.000730216    0.002842123
      9        6           0.001578441    0.000347057   -0.001557148
     10        7          -0.001498770   -0.001398291    0.003985900
     11        1           0.000690517   -0.000088003    0.000168618
     12        1          -0.000015186    0.000195099   -0.000071797
     13        1           0.000248903   -0.000013745    0.000213908
     14        1           0.000486373   -0.000515635    0.000360838
     15        1           0.000210613   -0.000020501   -0.000634319
     16        1           0.000353898    0.000531256   -0.001471931
     17        1          -0.000127289    0.000214124   -0.001178162
     18        1           0.000688178    0.000600191   -0.000635392
     19        1          -0.002310608   -0.000259713   -0.000823385
     20        1           0.000495061   -0.000841205    0.000133612
 -------------------------------------------------------------------
 Cartesian Forces:  Max     0.007910084 RMS     0.002163789

 GradGradGradGradGradGradGradGradGradGradGradGradGradGradGradGradGradGrad
 Berny optimization.
 Using GEDIIS/GDIIS optimizer.
 FormGI is forming the generalized inverse of G from B-inverse, IUseBI=4.
 Internal  Forces:  Max     0.006003768 RMS     0.001432602
 Search for a local minimum.
 Step number   2 out of a maximum of  108
 All quantities printed in internal units (Hartrees-Bohrs-Radians)
 Mixed Optimization -- RFO/linear search
 Update second derivatives using D2CorX and points    1    2
 DE= -2.86D-03 DEPred=-3.81D-03 R= 7.49D-01
 TightC=F SS=  1.41D+00  RLast= 4.20D-01 DXNew= 5.0454D-01 1.2595D+00
 Trust test= 7.49D-01 RLast= 4.20D-01 DXMaxT set to 5.05D-01
 ITU=  1  0
 Use linear search instead of GDIIS.
     Eigenvalues ---    0.00249   0.00476   0.00996   0.01345   0.02059
     Eigenvalues ---    0.02117   0.02134   0.02152   0.02163   0.02164
     Eigenvalues ---    0.02168   0.02190   0.03668   0.04305   0.04421
     Eigenvalues ---    0.05171   0.05696   0.09062   0.09494   0.12706
     Eigenvalues ---    0.12938   0.15632   0.15999   0.16000   0.16000
     Eigenvalues ---    0.16000   0.16138   0.21367   0.21965   0.22313
     Eigenvalues ---    0.22791   0.23870   0.24965   0.26257   0.28445
     Eigenvalues ---    0.28835   0.31185   0.34453   0.34571   0.34700
     Eigenvalues ---    0.34799   0.35853   0.35909   0.35931   0.35980
     Eigenvalues ---    0.39660   0.41851   0.42151   0.45294   0.45362
     Eigenvalues ---    0.45848   0.46165   0.46563   0.46801
 RFO step:  Lambda=-1.55876190D-03 EMin= 2.49388807D-03
 Quartic linear search produced a step of -0.05605.
 Iteration  1 RMS(Cart)=  0.07550072 RMS(Int)=  0.00262262
 Iteration  2 RMS(Cart)=  0.00328785 RMS(Int)=  0.00013616
 Iteration  3 RMS(Cart)=  0.00000661 RMS(Int)=  0.00013610
 Iteration  4 RMS(Cart)=  0.00000000 RMS(Int)=  0.00013610
 Variable       Old X    -DE/DX   Delta X   Delta X   Delta X     New X
                                 (Linear)    (Quad)   (Total)
    R1        3.30705   0.00476  -0.00216   0.02554   0.02338   3.33043
    R2        2.64160  -0.00124  -0.00022  -0.00143  -0.00161   2.63999
    R3        2.65612  -0.00290   0.00014  -0.00703  -0.00684   2.64929
    R4        2.62970   0.00029   0.00030  -0.00099  -0.00070   2.62899
    R5        2.04980  -0.00035  -0.00047   0.00166   0.00119   2.05099
    R6        2.63358   0.00104  -0.00000   0.00227   0.00222   2.63580
    R7        2.05056   0.00007  -0.00048   0.00285   0.00237   2.05293
    R8        2.63380  -0.00158   0.00011  -0.00367  -0.00360   2.63020
    R9        2.05162  -0.00020  -0.00052   0.00232   0.00181   2.05342
   R10        2.64490   0.00224   0.00010   0.00399   0.00410   2.64900
   R11        2.05126   0.00066  -0.00051   0.00455   0.00404   2.05530
   R12        2.86860  -0.00295   0.00128  -0.01639  -0.01511   2.85348
   R13        2.90020  -0.00061   0.00042  -0.00432  -0.00390   2.89630
   R14        2.07193  -0.00032  -0.00064   0.00265   0.00202   2.07395
   R15        2.06514  -0.00047  -0.00019  -0.00024  -0.00043   2.06471
   R16        2.77218  -0.00442  -0.00165  -0.00173  -0.00338   2.76880
   R17        2.08637   0.00067  -0.00124   0.00865   0.00741   2.09378
   R18        2.07283   0.00004  -0.00051   0.00291   0.00240   2.07523
   R19        1.91867   0.00197  -0.00019   0.00509   0.00490   1.92357
   R20        1.91973   0.00029  -0.00057   0.00371   0.00314   1.92287
    A1        2.05036   0.00047   0.00052  -0.00035  -0.00014   2.05022
    A2        2.11662  -0.00292   0.00078  -0.01448  -0.01401   2.10261
    A3        2.11565   0.00248  -0.00126   0.01605   0.01470   2.13035
    A4        2.09594  -0.00115   0.00039  -0.00713  -0.00667   2.08927
    A5        2.08542  -0.00006   0.00009  -0.00163  -0.00159   2.08382
    A6        2.10181   0.00121  -0.00048   0.00881   0.00828   2.11009
    A7        2.08946   0.00008   0.00013   0.00021   0.00030   2.08976
    A8        2.08957  -0.00022   0.00027  -0.00292  -0.00265   2.08691
    A9        2.10411   0.00014  -0.00040   0.00280   0.00240   2.10651
   A10        2.08908  -0.00045   0.00028  -0.00274  -0.00251   2.08657
   A11        2.09841   0.00048  -0.00020   0.00316   0.00298   2.10140
   A12        2.09567  -0.00002  -0.00008  -0.00040  -0.00046   2.09521
   A13        2.12768   0.00060  -0.00123   0.00951   0.00829   2.13597
   A14        2.08786   0.00008  -0.00040   0.00308   0.00265   2.09051
   A15        2.06762  -0.00069   0.00164  -0.01254  -0.01093   2.05669
   A16        2.04847  -0.00157   0.00170  -0.01569  -0.01402   2.03445
   A17        2.16367  -0.00110  -0.00160   0.00489   0.00306   2.16673
   A18        2.07103   0.00266  -0.00010   0.01069   0.01035   2.08139
   A19        1.98656  -0.00337  -0.00005  -0.01759  -0.01797   1.96859
   A20        1.87966   0.00175   0.00022   0.01889   0.01919   1.89885
   A21        1.93678   0.00074   0.00003  -0.00961  -0.01026   1.92652
   A22        1.88107   0.00108   0.00078   0.00890   0.00985   1.89092
   A23        1.91241  -0.00011   0.00141  -0.02273  -0.02177   1.89064
   A24        1.86206   0.00018  -0.00261   0.02677   0.02427   1.88633
   A25        1.96050  -0.00600  -0.00210  -0.01716  -0.01927   1.94123
   A26        1.87786   0.00272   0.00281  -0.00438  -0.00142   1.87644
   A27        1.87997   0.00211   0.00238   0.00061   0.00301   1.88298
   A28        1.99682   0.00070  -0.00381   0.01357   0.00966   2.00647
   A29        1.88744   0.00148   0.00053   0.00250   0.00295   1.89039
   A30        1.85522  -0.00063   0.00047   0.00551   0.00606   1.86128
   A31        1.92459  -0.00197  -0.00051  -0.01128  -0.01189   1.91270
   A32        1.92722  -0.00108   0.00101  -0.01445  -0.01353   1.91369
   A33        1.85704   0.00096   0.00024  -0.00112  -0.00108   1.85596
    D1       -3.11034  -0.00099  -0.00162  -0.03630  -0.03809   3.13476
    D2        0.02437  -0.00078  -0.00137  -0.02786  -0.02938  -0.00501
    D3       -0.00421   0.00013   0.00026   0.00201   0.00229  -0.00192
    D4        3.13050   0.00034   0.00052   0.01046   0.01099   3.14149
    D5        3.09772   0.00139   0.00225   0.05002   0.05198  -3.13348
    D6       -0.04810   0.00085   0.00250   0.01553   0.01801  -0.03009
    D7       -0.00707   0.00015   0.00030   0.00993   0.01012   0.00305
    D8        3.13030  -0.00038   0.00054  -0.02456  -0.02386   3.10645
    D9        0.00910  -0.00021  -0.00048  -0.00770  -0.00819   0.00091
   D10        3.14000   0.00001   0.00001   0.00085   0.00088   3.14088
   D11       -3.12555  -0.00042  -0.00073  -0.01618  -0.01699   3.14064
   D12        0.00535  -0.00019  -0.00024  -0.00763  -0.00792  -0.00257
   D13       -0.00253   0.00001   0.00012   0.00120   0.00136  -0.00117
   D14        3.13184   0.00009   0.00049   0.00320   0.00374   3.13559
   D15       -3.13334  -0.00021  -0.00038  -0.00739  -0.00779  -3.14113
   D16        0.00103  -0.00014  -0.00001  -0.00538  -0.00540  -0.00437
   D17       -0.00925   0.00027   0.00047   0.01120   0.01174   0.00248
   D18        3.13861   0.00001   0.00026   0.00002   0.00026   3.13888
   D19        3.13955   0.00019   0.00010   0.00918   0.00934  -3.13429
   D20        0.00423  -0.00007  -0.00011  -0.00200  -0.00213   0.00210
   D21        0.01384  -0.00035  -0.00067  -0.01657  -0.01718  -0.00334
   D22       -3.12376   0.00016  -0.00090   0.01603   0.01506  -3.10870
   D23       -3.13395  -0.00009  -0.00046  -0.00546  -0.00588  -3.13983
   D24        0.01163   0.00043  -0.00069   0.02714   0.02637   0.03800
   D25       -1.80222   0.00140   0.00734   0.05563   0.06295  -1.73927
   D26        2.39670   0.00092   0.00624   0.04232   0.04868   2.44538
   D27        0.36463  -0.00073   0.00922   0.00430   0.01368   0.37831
   D28        1.33510   0.00085   0.00758   0.02067   0.02806   1.36316
   D29       -0.74916   0.00037   0.00649   0.00735   0.01379  -0.73537
   D30       -2.78123  -0.00128   0.00947  -0.03066  -0.02121  -2.80244
   D31        1.30505  -0.00151   0.00017  -0.11260  -0.11224   1.19281
   D32       -0.90788  -0.00023   0.00447  -0.11476  -0.11021  -1.01809
   D33       -2.90148  -0.00189   0.00106  -0.11929  -0.11802  -3.01949
   D34       -2.89468  -0.00065   0.00095  -0.09363  -0.09262  -2.98730
   D35        1.17558   0.00063   0.00526  -0.09578  -0.09059   1.08499
   D36       -0.81802  -0.00103   0.00184  -0.10031  -0.09840  -0.91641
   D37       -0.87488   0.00010  -0.00098  -0.06900  -0.07013  -0.94501
   D38       -3.08781   0.00137   0.00333  -0.07115  -0.06809   3.12728
   D39        1.20178  -0.00028  -0.00009  -0.07568  -0.07590   1.12587
   D40       -0.88805  -0.00052   0.00330  -0.04810  -0.04467  -0.93272
   D41       -2.93537   0.00017   0.00271  -0.03106  -0.02833  -2.96370
   D42        1.25940  -0.00114   0.00264  -0.05723  -0.05463   1.20477
   D43       -0.78791  -0.00046   0.00205  -0.04019  -0.03829  -0.82620
   D44       -2.96033  -0.00048   0.00131  -0.04021  -0.03883  -2.99915
   D45        1.27554   0.00020   0.00072  -0.02317  -0.02248   1.25306
         Item               Value     Threshold  Converged?
 Maximum Force            0.006004     0.000450     NO 
 RMS     Force            0.001433     0.000300     NO 
 Maximum Displacement     0.386478     0.001800     NO 
 RMS     Displacement     0.075797     0.001200     NO 
 Predicted change in Energy=-8.816140D-04
 GradGradGradGradGradGradGradGradGradGradGradGradGradGradGradGradGradGrad

                          Input orientation:                          
 ---------------------------------------------------------------------
 Center     Atomic      Atomic             Coordinates (Angstroms)
 Number     Number       Type             X           Y           Z
 ---------------------------------------------------------------------
      1         17           0       -0.017074    2.585329    1.172574
      2          6           0       -0.883826    1.211887    0.488167
      3          6           0       -2.146521    1.454154   -0.058260
      4          6           0       -2.868174    0.404929   -0.618428
      5          6           0       -2.325598   -0.879977   -0.628835
      6          6           0       -1.065641   -1.097568   -0.078933
      7          6           0       -0.309057   -0.066795    0.495617
      8          6           0        1.068138   -0.373844    1.033345
      9          6           0        2.125321   -0.485430   -0.070718
     10          7           0        2.376014    0.814553   -0.698386
     11          1           0       -2.550174    2.461488   -0.040810
     12          1           0       -3.850149    0.595670   -1.042130
     13          1           0       -2.882167   -1.708438   -1.058531
     14          1           0       -0.640119   -2.098482   -0.082800
     15          1           0        1.031845   -1.327969    1.574460
     16          1           0        1.384451    0.401904    1.734721
     17          1           0        1.799105   -1.284813   -0.765115
     18          1           0        3.059722   -0.831673    0.390773
     19          1           0        1.495756    1.216471   -1.014219
     20          1           0        2.947847    0.688105   -1.530493
 ---------------------------------------------------------------------
                    Distance matrix (angstroms):
                    1          2          3          4          5
     1  Cl   0.000000
     2  C    1.762389   0.000000
     3  C    2.707222   1.397024   0.000000
     4  C    4.011309   2.411094   1.391203   0.000000
     5  C    4.536816   2.775301   2.409521   1.394804   0.000000
     6  C    4.028584   2.385003   2.771284   2.407836   1.391843
     7  C    2.752687   1.401942   2.448743   2.830671   2.447876
     8  C    3.154960   2.573309   3.855802   4.339285   3.812670
     9  C    3.945274   3.499742   4.691564   5.101736   4.503092
    10  N    3.516107   3.491753   4.612177   5.260769   4.998142
    11  H    2.811446   2.148962   1.085339   2.159676   3.400234
    12  H    4.853465   3.394202   2.146473   1.086361   2.161620
    13  H    5.623435   3.861857   3.397603   2.158751   1.086626
    14  H    4.888991   3.368076   3.858895   3.393846   2.150290
    15  H    4.071320   3.361651   4.528575   4.798108   4.040746
    16  H    2.654737   2.712019   4.097532   4.860261   4.581930
    17  H    4.693734   3.873286   4.854848   4.965907   4.146762
    18  H    4.664096   4.442656   5.703648   6.139025   5.481205
    19  H    2.990734   2.814177   3.773133   4.456359   4.375655
    20  H    4.438106   4.362459   5.357881   5.893908   5.575041
                    6          7          8          9         10
     6  C    0.000000
     7  C    1.401792   0.000000
     8  C    2.512758   1.509998   0.000000
     9  C    3.249157   2.534203   1.532658   0.000000
    10  N    3.985589   3.067902   2.474211   1.465186   0.000000
    11  H    3.856445   3.420903   4.720709   5.526795   5.235659
    12  H    3.398277   3.916996   5.425596   6.149687   6.239485
    13  H    2.152333   3.425093   4.664975   5.248472   5.843257
    14  H    1.087618   2.138205   2.671759   3.201522   4.238134
    15  H    2.680717   2.133654   1.097487   2.147597   3.400445
    16  H    3.397162   2.150122   1.092597   2.143795   2.659603
    17  H    2.951724   2.741780   2.144443   1.107979   2.178214
    18  H    4.160523   3.456111   2.142175   1.098164   2.088968
    19  H    3.576351   2.680247   2.627637   2.045241   1.017911
    20  H    4.626418   3.909273   3.351762   2.045648   1.017538
                   11         12         13         14         15
    11  H    0.000000
    12  H    2.484724   0.000000
    13  H    4.305143   2.499234   0.000000
    14  H    4.944027   4.299193   2.476078   0.000000
    15  H    5.458932   5.863514   4.732535   2.477027   0.000000
    16  H    4.782852   5.928700   5.519042   3.695159   1.772703
    17  H    5.785811   5.960455   4.709549   2.660343   2.462551
    18  H    6.519364   7.199781   6.178612   3.939277   2.399940
    19  H    4.343632   5.381902   5.265288   4.051964   3.659323
    20  H    5.965926   6.816142   6.321015   4.768059   4.168495
                   16         17         18         19         20
    16  H    0.000000
    17  H    3.044032   0.000000
    18  H    2.476781   1.769342   0.000000
    19  H    2.869247   2.531895   2.935113   0.000000
    20  H    3.631493   2.407866   2.452245   1.629195   0.000000
 Stoichiometry    C8H10ClN
 Framework group  C1[X(C8H10ClN)]
 Deg. of freedom    54
 Full point group                 C1      NOp   1
 Largest Abelian subgroup         C1      NOp   1
 Largest concise Abelian subgroup C1      NOp   1
                         Standard orientation:                         
 ---------------------------------------------------------------------
 Center     Atomic      Atomic             Coordinates (Angstroms)
 Number     Number       Type             X           Y           Z
 ---------------------------------------------------------------------
      1         17           0       -0.402931    2.176551   -0.239521
      2          6           0        0.579942    0.718282   -0.123651
      3          6           0        1.884493    0.856919    0.356559
      4          6           0        2.698469   -0.265086    0.474850
      5          6           0        2.205780   -1.518539    0.112092
      6          6           0        0.902709   -1.632571   -0.363543
      7          6           0        0.053137   -0.525732   -0.498279
      8          6           0       -1.361970   -0.736146   -0.981284
      9          6           0       -2.290430   -1.269707    0.115218
     10          7           0       -2.518265   -0.261935    1.154091
     11          1           0        2.248180    1.841110    0.634160
     12          1           0        3.712779   -0.154666    0.847895
     13          1           0        2.833983   -2.401303    0.194820
     14          1           0        0.515612   -2.607813   -0.649856
     15          1           0       -1.350117   -1.459937   -1.806186
     16          1           0       -1.778638    0.200867   -1.358328
     17          1           0       -1.863836   -2.226108    0.477065
     18          1           0       -3.256025   -1.511504   -0.348598
     19          1           0       -1.624009    0.075707    1.504014
     20          1           0       -2.993019   -0.688702    1.946469
 ---------------------------------------------------------------------
 Rotational constants (GHZ):           1.4410960           1.0203411           0.6859640
 Standard basis: 6-31G(d,p) (6D, 7F)
 There are   204 symmetry adapted cartesian basis functions of A   symmetry.
 There are   204 symmetry adapted basis functions of A   symmetry.
   204 basis functions,   374 primitive gaussians,   204 cartesian basis functions
    41 alpha electrons       41 beta electrons
       nuclear repulsion energy       587.8929263345 Hartrees.
 NAtoms=   20 NActive=   20 NUniq=   20 SFac= 1.00D+00 NAtFMM=   60 NAOKFM=F Big=F
 Integral buffers will be    131072 words long.
 Raffenetti 2 integral format.
 Two-electron integral symmetry is turned on.
 Nuclear repulsion after empirical dispersion term =      587.8532180560 Hartrees.
 One-electron integrals computed using PRISM.
 NBasis=   204 RedAO= T EigKep=  4.38D-04  NBF=   204
 NBsUse=   204 1.00D-06 EigRej= -1.00D+00 NBFU=   204
 Initial guess from the checkpoint file:  "N3_conf-6.chk"
 B after Tr=    -0.000000   -0.000000    0.000000
         Rot=    0.999612    0.007316   -0.008294   -0.025572 Ang=   3.19 deg.
 ExpMin= 1.43D-01 ExpMax= 2.52D+04 ExpMxC= 3.78D+03 IAcc=3 IRadAn=         5 AccDes= 0.00D+00
 Harris functional with IExCor=  402 and IRadAn=       5 diagonalized for initial guess.
 HarFok:  IExCor=  402 AccDes= 0.00D+00 IRadAn=         5 IDoV= 1 UseB2=F ITyADJ=14
 ICtDFT=  3500011 ScaDFX=  1.000000  1.000000  1.000000  1.000000
 FoFCou: FMM=F IPFlag=           0 FMFlag=      100000 FMFlg1=           0
         NFxFlg=           0 DoJE=T BraDBF=F KetDBF=T FulRan=T
         wScrn=  0.000000 ICntrl=       500 IOpCl=  0 I1Cent=   200000004 NGrid=           0
         NMat0=    1 NMatS0=      1 NMatT0=    0 NMatD0=    1 NMtDS0=    0 NMtDT0=    0
 Petite list used in FoFCou.
 Requested convergence on RMS density matrix=1.00D-08 within 128 cycles.
 Requested convergence on MAX density matrix=1.00D-06.
 Requested convergence on             energy=1.00D-06.
 No special actions if energy rises.
 Integral accuracy reduced to 1.0D-05 until final iterations.
 Initial convergence to 1.0D-05 achieved.  Increase integral accuracy.
 SCF Done:  E(RB3LYP) =  -825.871052803     A.U. after   11 cycles
            NFock= 11  Conv=0.64D-08     -V/T= 2.0061
 Calling FoFJK, ICntrl=      2127 FMM=F ISym2X=0 I1Cent= 0 IOpClX= 0 NMat=1 NMatS=1 NMatT=0.
 ***** Axes restored to original set *****
 -------------------------------------------------------------------
 Center     Atomic                   Forces (Hartrees/Bohr)
 Number     Number              X              Y              Z
 -------------------------------------------------------------------
      1       17          -0.000575718    0.000795577    0.000538804
      2        6          -0.000227737    0.000082796   -0.000605922
      3        6           0.000539631    0.001380648    0.000623424
      4        6          -0.000982006    0.000236880   -0.000435039
      5        6           0.000261601   -0.000835661   -0.000045411
      6        6          -0.000640350   -0.002365415   -0.000308007
      7        6          -0.000441835    0.000835431   -0.000886130
      8        6          -0.000091978    0.001957285    0.003296216
      9        6           0.001025837   -0.001807835   -0.001198275
     10        7          -0.000599917   -0.002816144    0.000150776
     11        1           0.000439063   -0.000909043    0.000147676
     12        1           0.000616634   -0.000322581    0.000284411
     13        1           0.000556913    0.000731522    0.000296095
     14        1          -0.000597718    0.000295175   -0.000168501
     15        1          -0.000034803    0.001390810   -0.000508904
     16        1          -0.000329906   -0.001080487    0.000686517
     17        1           0.001102086    0.002074597   -0.000632812
     18        1          -0.000265244    0.000398622   -0.001301178
     19        1           0.000226381   -0.000583491   -0.000628670
     20        1           0.000019064    0.000541315    0.000694932
 -------------------------------------------------------------------
 Cartesian Forces:  Max     0.003296216 RMS     0.000992946

 GradGradGradGradGradGradGradGradGradGradGradGradGradGradGradGradGradGrad
 Berny optimization.
 Using GEDIIS/GDIIS optimizer.
 FormGI is forming the generalized inverse of G from B-inverse, IUseBI=4.
 Internal  Forces:  Max     0.003299948 RMS     0.000747430
 Search for a local minimum.
 Step number   3 out of a maximum of  108
 All quantities printed in internal units (Hartrees-Bohrs-Radians)
 Mixed Optimization -- En-DIIS/RFO-DIIS
 Update second derivatives using D2CorX and points    1    2    3
 DE= -7.00D-04 DEPred=-8.82D-04 R= 7.94D-01
[...]
   XY=    -3.6915   YY=    22.9563   ZY=    -0.2075
   XZ=     0.7330   YZ=    -0.0655   ZZ=    20.9404
   Eigenvalues:    20.3140    21.0772    30.0716
     15  H    Isotropic =    29.2804   Anisotropy =     8.6289
   XX=    27.6245   YX=     0.0540   ZX=     0.1203
   XY=    -0.4494   YY=    27.5967   ZY=     3.4503
   XZ=     1.8488   YZ=     4.8383   ZZ=    32.6201
   Eigenvalues:    25.0890    27.7193    35.0330
     16  H    Isotropic =    28.3149   Anisotropy =     5.2635
   XX=    27.4777   YX=     0.1346   ZX=     2.5734
   XY=     1.5873   YY=    31.4576   ZY=    -0.8590
   XZ=     3.3503   YZ=    -2.0387   ZZ=    26.0094
   Eigenvalues:    23.3472    29.7735    31.8239
     17  H    Isotropic =    28.8652   Anisotropy =     8.6647
   XX=    25.8481   YX=    -0.4498   ZX=    -0.9143
   XY=    -0.9919   YY=    34.5513   ZY=     0.3886
   XZ=    -3.0918   YZ=     0.2819   ZZ=    26.1960
   Eigenvalues:    24.0026    27.9513    34.6416
     18  H    Isotropic =    28.8398   Anisotropy =     8.2168
   XX=    32.4390   YX=     2.7220   ZX=     1.5492
   XY=     2.7964   YY=    26.7678   ZY=     2.4833
   XZ=     1.5411   YZ=     1.9342   ZZ=    27.3126
   Eigenvalues:    24.6298    27.5720    34.3177
     19  H    Isotropic =    31.8906   Anisotropy =     9.8174
   XX=    37.1750   YX=     2.4857   ZX=     1.3916
   XY=     4.9997   YY=    25.7390   ZY=     1.2610
   XZ=    -0.9002   YZ=     3.2527   ZZ=    32.7578
   Eigenvalues:    24.1132    33.1230    38.4356
     20  H    Isotropic =    31.7435   Anisotropy =    16.7093
   XX=    31.9157   YX=     4.2052   ZX=    -5.9926
   XY=     3.4159   YY=    27.3088   ZY=    -0.7517
   XZ=    -9.7529   YZ=    -2.1361   ZZ=    36.0060
   Eigenvalues:    24.0640    28.2835    42.8830
 End of Minotr F.D. properties file   721 does not exist.
 End of Minotr F.D. properties file   722 does not exist.
 End of Minotr F.D. properties file   788 does not exist.

 **********************************************************************

            Population analysis using the SCF Density.

 **********************************************************************

 Orbital symmetries:
       Occupied  (A) (A) (A) (A) (A) (A) (A) (A) (A) (A) (A) (A)
                 (A) (A) (A) (A) (A) (A) (A) (A) (A) (A) (A) (A)
                 (A) (A) (A) (A) (A) (A) (A) (A) (A) (A) (A) (A)
                 (A) (A) (A) (A) (A)
       Virtual   (A) (A) (A) (A) (A) (A) (A) (A) (A) (A) (A) (A)
                 (A) (A) (A) (A) (A) (A) (A) (A) (A) (A) (A) (A)
                 (A) (A) (A) (A) (A) (A) (A) (A) (A) (A) (A) (A)
                 (A) (A) (A) (A) (A) (A) (A) (A) (A) (A) (A) (A)
                 (A) (A) (A) (A) (A) (A) (A) (A) (A) (A) (A) (A)
                 (A) (A) (A) (A) (A) (A) (A) (A) (A) (A) (A) (A)
                 (A) (A) (A) (A) (A) (A) (A) (A) (A) (A) (A) (A)
                 (A) (A) (A) (A) (A) (A) (A) (A) (A) (A) (A) (A)
                 (A) (A) (A) (A) (A) (A) (A) (A) (A) (A) (A) (A)
                 (A) (A) (A) (A) (A) (A) (A) (A) (A) (A) (A) (A)
                 (A) (A) (A) (A) (A) (A) (A) (A) (A) (A) (A) (A)
                 (A) (A) (A) (A) (A) (A) (A) (A) (A) (A) (A) (A)
                 (A) (A) (A) (A) (A) (A) (A) (A) (A) (A) (A) (A)
                 (A) (A) (A) (A) (A) (A) (A) (A) (A) (A) (A) (A)
                 (A) (A) (A) (A) (A) (A) (A) (A) (A) (A) (A) (A)
                 (A) (A) (A) (A) (A) (A) (A) (A) (A) (A) (A) (A)
                 (A) (A) (A) (A) (A) (A) (A) (A) (A) (A) (A) (A)
                 (A) (A) (A) (A) (A) (A) (A) (A) (A) (A) (A) (A)
                 (A) (A) (A) (A) (A) (A) (A) (A) (A) (A) (A) (A)
                 (A) (A) (A) (A) (A) (A) (A) (A) (A) (A) (A) (A)
                 (A) (A) (A) (A) (A) (A) (A) (A) (A) (A) (A) (A)
                 (A) (A) (A) (A) (A) (A) (A) (A) (A) (A) (A) (A)
                 (A) (A) (A) (A) (A) (A) (A) (A) (A) (A) (A) (A)
                 (A) (A) (A) (A) (A) (A) (A) (A) (A) (A) (A) (A)
                 (A) (A) (A) (A) (A) (A) (A) (A) (A) (A) (A) (A)
                 (A) (A) (A) (A) (A) (A) (A) (A) (A) (A) (A) (A)
                 (A) (A) (A) (A) (A) (A) (A) (A) (A) (A) (A) (A)
                 (A) (A) (A) (A) (A) (A) (A) (A) (A) (A) (A)
 The electronic state is 1-A.
 Alpha  occ. eigenvalues -- -102.63984 -14.72436 -10.60709 -10.56530 -10.56355
 Alpha  occ. eigenvalues --  -10.55603 -10.55383 -10.55360 -10.55190 -10.54138
 Alpha  occ. eigenvalues --   -9.80227  -7.52424  -7.51916  -7.51896  -1.00009
 Alpha  occ. eigenvalues --   -0.98350  -0.93350  -0.88340  -0.83301  -0.80592
 Alpha  occ. eigenvalues --   -0.71664  -0.69032  -0.66099  -0.58870  -0.56751
 Alpha  occ. eigenvalues --   -0.55914  -0.53172  -0.52204  -0.49605  -0.49281
 Alpha  occ. eigenvalues --   -0.47295  -0.44922  -0.44125  -0.43081  -0.40930
 Alpha  occ. eigenvalues --   -0.40552  -0.39701  -0.37051  -0.31438  -0.31050
 Alpha  occ. eigenvalues --   -0.29598
 Alpha virt. eigenvalues --    0.00649   0.01173   0.06335   0.06726   0.08593
 Alpha virt. eigenvalues --    0.10154   0.10827   0.11368   0.12531   0.13465
 Alpha virt. eigenvalues --    0.13903   0.15478   0.16677   0.17671   0.18803
 Alpha virt. eigenvalues --    0.19579   0.21342   0.21939   0.22871   0.23328
 Alpha virt. eigenvalues --    0.24869   0.25906   0.26246   0.28143   0.28432
 Alpha virt. eigenvalues --    0.29258   0.29810   0.31196   0.31836   0.33477
 Alpha virt. eigenvalues --    0.34433   0.35208   0.35593   0.36728   0.37276
 Alpha virt. eigenvalues --    0.38118   0.38453   0.39860   0.40511   0.41199
 Alpha virt. eigenvalues --    0.41968   0.42650   0.43816   0.44699   0.44786
 Alpha virt. eigenvalues --    0.45750   0.46578   0.46993   0.47358   0.48415
 Alpha virt. eigenvalues --    0.48978   0.50351   0.51533   0.51975   0.52267
 Alpha virt. eigenvalues --    0.53512   0.54204   0.55219   0.55855   0.56608
 Alpha virt. eigenvalues --    0.58452   0.59075   0.60062   0.62528   0.64053
 Alpha virt. eigenvalues --    0.65778   0.67656   0.67817   0.69477   0.69618
 Alpha virt. eigenvalues --    0.71170   0.73059   0.74727   0.76072   0.77619
 Alpha virt. eigenvalues --    0.78393   0.80678   0.81705   0.82948   0.83862
 Alpha virt. eigenvalues --    0.86827   0.88295   0.89967   0.90143   0.91035
 Alpha virt. eigenvalues --    0.92265   0.94053   0.96821   0.97521   1.02245
 Alpha virt. eigenvalues --    1.02931   1.05631   1.05918   1.07638   1.08866
 Alpha virt. eigenvalues --    1.11160   1.14109   1.14343   1.16698   1.17381
 Alpha virt. eigenvalues --    1.20855   1.23007   1.23748   1.24805   1.25971
 Alpha virt. eigenvalues --    1.26423   1.27114   1.29578   1.30383   1.31689
 Alpha virt. eigenvalues --    1.34681   1.36495   1.37111   1.39139   1.41271
 Alpha virt. eigenvalues --    1.42217   1.43473   1.46281   1.48634   1.49168
 Alpha virt. eigenvalues --    1.50273   1.52613   1.54946   1.56578   1.58713
 Alpha virt. eigenvalues --    1.59805   1.62357   1.63105   1.64099   1.64372
 Alpha virt. eigenvalues --    1.67193   1.68156   1.68672   1.71516   1.72259
 Alpha virt. eigenvalues --    1.73508   1.74674   1.76132   1.78257   1.79706
 Alpha virt. eigenvalues --    1.82018   1.84174   1.85956   1.86715   1.87884
 Alpha virt. eigenvalues --    1.88965   1.90171   1.90987   1.95102   1.95824
 Alpha virt. eigenvalues --    1.96490   1.96781   1.98444   2.00199   2.01988
 Alpha virt. eigenvalues --    2.03025   2.04039   2.05964   2.07606   2.09161
 Alpha virt. eigenvalues --    2.09988   2.12690   2.13784   2.15898   2.16272
 Alpha virt. eigenvalues --    2.18666   2.18937   2.20833   2.22089   2.23630
 Alpha virt. eigenvalues --    2.24420   2.25678   2.26593   2.28018   2.28957
 Alpha virt. eigenvalues --    2.30459   2.31270   2.35099   2.35372   2.38095
 Alpha virt. eigenvalues --    2.41952   2.45763   2.47405   2.48547   2.49604
 Alpha virt. eigenvalues --    2.50305   2.52405   2.56226   2.57049   2.58314
 Alpha virt. eigenvalues --    2.59475   2.60795   2.61177   2.61298   2.63401
 Alpha virt. eigenvalues --    2.65966   2.66706   2.66870   2.69227   2.70587
 Alpha virt. eigenvalues --    2.71454   2.73666   2.73786   2.75612   2.77265
 Alpha virt. eigenvalues --    2.77857   2.79056   2.80195   2.80646   2.83182
 Alpha virt. eigenvalues --    2.84323   2.87826   2.87878   2.89558   2.90492
 Alpha virt. eigenvalues --    2.91587   2.93928   2.96257   2.97976   3.00001
 Alpha virt. eigenvalues --    3.00937   3.03437   3.04916   3.06677   3.07274
 Alpha virt. eigenvalues --    3.10746   3.11339   3.13810   3.14130   3.15588
 Alpha virt. eigenvalues --    3.17235   3.18750   3.18980   3.20363   3.23420
 Alpha virt. eigenvalues --    3.24033   3.25268   3.26390   3.27415   3.28624
 Alpha virt. eigenvalues --    3.29592   3.31651   3.33240   3.34456   3.35909
 Alpha virt. eigenvalues --    3.36360   3.39014   3.40307   3.41609   3.42235
 Alpha virt. eigenvalues --    3.44784   3.46510   3.48532   3.48765   3.50897
 Alpha virt. eigenvalues --    3.51286   3.53227   3.54967   3.55699   3.59644
 Alpha virt. eigenvalues --    3.64299   3.66801   3.70019   3.71507   3.73775
 Alpha virt. eigenvalues --    3.75491   3.77111   3.80520   3.83212   3.86188
 Alpha virt. eigenvalues --    3.89588   3.89992   3.92873   3.95405   3.97035
 Alpha virt. eigenvalues --    4.01166   4.04033   4.06929   4.08198   4.10931
 Alpha virt. eigenvalues --    4.12468   4.14310   4.15916   4.17574   4.20197
 Alpha virt. eigenvalues --    4.20293   4.22757   4.28229   4.28660   4.31520
 Alpha virt. eigenvalues --    4.32385   4.33940   4.37915   4.42341   4.46825
 Alpha virt. eigenvalues --    4.49396   4.54585   4.58984   4.62337   4.64222
 Alpha virt. eigenvalues --    4.69396   4.69521   4.75348   4.75435   4.82767
 Alpha virt. eigenvalues --    4.83637   4.87722   4.90123   4.91667   5.02612
 Alpha virt. eigenvalues --    5.06465   5.09798   5.11377   5.13078   5.19056
 Alpha virt. eigenvalues --    5.26509   5.28094   5.35287   5.42055   5.53069
 Alpha virt. eigenvalues --    5.53726   5.75320  10.83715  10.93702  11.42777
 Alpha virt. eigenvalues --   22.07755  22.51523  22.61696  22.71253  22.76246
 Alpha virt. eigenvalues --   22.82297  22.91837  23.31536  26.04152  32.08012
          Condensed to atoms (all electrons):
               1          2          3          4          5          6
     1  Cl  16.862189   0.351271  -0.056867   0.011111  -0.002964   0.020916
     2  C    0.351271   5.320001   0.287313   0.074643  -0.121528   0.098259
     3  C   -0.056867   0.287313   5.122935   0.412792   0.027844  -0.162855
     4  C    0.011111   0.074643   0.412792   4.977674   0.446423   0.039925
     5  C   -0.002964  -0.121528   0.027844   0.446423   4.956243   0.427311
     6  C    0.020916   0.098259  -0.162855   0.039925   0.427311   5.187410
     7  C   -0.099459   0.105561   0.100556  -0.146613   0.044951   0.295767
     8  C   -0.016945  -0.072401   0.029082  -0.006645   0.010521  -0.087323
     9  C    0.000437  -0.007467   0.002144  -0.001504   0.004931  -0.013723
    10  N   -0.005374   0.003655   0.000129   0.000140  -0.000376   0.002094
    11  H    0.003573  -0.055567   0.418627  -0.040636   0.007879  -0.004668
    12  H   -0.000368   0.006343  -0.034454   0.410381  -0.036178   0.006344
    13  H    0.000016  -0.001506   0.005844  -0.036471   0.414219  -0.037150
    14  H   -0.000093   0.007232  -0.000009   0.003351  -0.022876   0.400373
    15  H    0.000997   0.007262  -0.001055   0.000313  -0.000340  -0.012743
    16  H    0.004750  -0.005597   0.002642  -0.000390   0.000261   0.002977
    17  H   -0.000331   0.006008   0.000885  -0.000532   0.001919  -0.015770
    18  H    0.000069  -0.001492  -0.000096   0.000030  -0.000121   0.001656
    19  H    0.001235  -0.007698  -0.000933   0.000299  -0.000241   0.001939
    20  H    0.000189  -0.000160  -0.000065   0.000020  -0.000028   0.000270
               7          8          9         10         11         12
     1  Cl  -0.099459  -0.016945   0.000437  -0.005374   0.003573  -0.000368
     2  C    0.105561  -0.072401  -0.007467   0.003655  -0.055567   0.006343
     3  C    0.100556   0.029082   0.002144   0.000129   0.418627  -0.034454
     4  C   -0.146613  -0.006645  -0.001504   0.000140  -0.040636   0.410381
     5  C    0.044951   0.010521   0.004931  -0.000376   0.007879  -0.036178
     6  C    0.295767  -0.087323  -0.013723   0.002094  -0.004668   0.006344
     7  C    5.633006   0.152159  -0.030560   0.017381   0.019952  -0.000856
     8  C    0.152159   5.345828   0.256434  -0.056273   0.000316   0.000036
     9  C   -0.030560   0.256434   5.013343   0.235025   0.000017  -0.000010
    10  N    0.017381  -0.056273   0.235025   6.703907   0.000002   0.000000
    11  H    0.019952   0.000316   0.000017   0.000002   0.498274  -0.004099
    12  H   -0.000856   0.000036  -0.000010   0.000000  -0.004099   0.509530
    13  H    0.007831  -0.000065   0.000098  -0.000002  -0.000169  -0.003765
    14  H   -0.046301   0.008508  -0.003352  -0.000031   0.000046  -0.000277
    15  H   -0.039137   0.428607  -0.060069   0.006032   0.000000   0.000002
    16  H   -0.067448   0.450965  -0.033226   0.004233   0.000012  -0.000001
    17  H   -0.023388  -0.027278   0.436151  -0.063176   0.000005  -0.000003
    18  H    0.017961  -0.049760   0.419403  -0.030731  -0.000001   0.000000
    19  H    0.018932  -0.022541  -0.043100   0.368250  -0.000035   0.000001
    20  H   -0.002488   0.011744  -0.042489   0.362356  -0.000001   0.000000
              13         14         15         16         17         18
     1  Cl   0.000016  -0.000093   0.000997   0.004750  -0.000331   0.000069
     2  C   -0.001506   0.007232   0.007262  -0.005597   0.006008  -0.001492
     3  C    0.005844  -0.000009  -0.001055   0.002642   0.000885  -0.000096
     4  C   -0.036471   0.003351   0.000313  -0.000390  -0.000532   0.000030
     5  C    0.414219  -0.022876  -0.000340   0.000261   0.001919  -0.000121
     6  C   -0.037150   0.400373  -0.012743   0.002977  -0.015770   0.001656
     7  C    0.007831  -0.046301  -0.039137  -0.067448  -0.023388   0.017961
     8  C   -0.000065   0.008508   0.428607   0.450965  -0.027278  -0.049760
     9  C    0.000098  -0.003352  -0.060069  -0.033226   0.436151   0.419403
    10  N   -0.000002  -0.000031   0.006032   0.004233  -0.063176  -0.030731
    11  H   -0.000169   0.000046   0.000000   0.000012   0.000005  -0.000001
    12  H   -0.003765  -0.000277   0.000002  -0.000001  -0.000003   0.000000
    13  H    0.508160  -0.003528  -0.000038   0.000009   0.000047  -0.000002
    14  H   -0.003528   0.497112  -0.000281   0.000163   0.001516  -0.000084
    15  H   -0.000038  -0.000281   0.520594  -0.010147   0.002780  -0.002603
    16  H    0.000009   0.000163  -0.010147   0.478743   0.006413  -0.005223
    17  H    0.000047   0.001516   0.002780   0.006413   0.603962  -0.041539
    18  H   -0.000002  -0.000084  -0.002603  -0.005223  -0.041539   0.558593
    19  H   -0.000003  -0.000155  -0.000278  -0.000406  -0.005967   0.008100
    20  H   -0.000000  -0.000031  -0.000579  -0.000737  -0.008422  -0.005076
              19         20
     1  Cl   0.001235   0.000189
     2  C   -0.007698  -0.000160
     3  C   -0.000933  -0.000065
     4  C    0.000299   0.000020
     5  C   -0.000241  -0.000028
     6  C    0.001939   0.000270
     7  C    0.018932  -0.002488
     8  C   -0.022541   0.011744
     9  C   -0.043100  -0.042489
    10  N    0.368250   0.362356
    11  H   -0.000035  -0.000001
    12  H    0.000001   0.000000
    13  H   -0.000003  -0.000000
    14  H   -0.000155  -0.000031
    15  H   -0.000278  -0.000579
    16  H   -0.000406  -0.000737
    17  H   -0.005967  -0.008422
    18  H    0.008100  -0.005076
    19  H    0.469700  -0.030316
    20  H   -0.030316   0.489789
 Mulliken charges:
               1
     1  Cl  -0.074352
     2  C    0.005870
     3  C   -0.154459
     4  C   -0.144312
     5  C   -0.157850
     6  C   -0.151010
     7  C    0.042192
     8  C   -0.354970
     9  C   -0.132480
    10  N   -0.547240
    11  H    0.156473
    12  H    0.147375
    13  H    0.146476
    14  H    0.158716
    15  H    0.160683
    16  H    0.172008
    17  H    0.126724
    18  H    0.130917
    19  H    0.243218
    20  H    0.226024
 Sum of Mulliken charges =  -0.00000
 Mulliken charges with hydrogens summed into heavy atoms:
               1
     1  Cl  -0.074352
     2  C    0.005870
     3  C    0.002014
     4  C    0.003062
     5  C   -0.011374
     6  C    0.007705
     7  C    0.042192
     8  C   -0.022279
     9  C    0.125160
    10  N   -0.077999
 Electronic spatial extent (au):  <R**2>=           1726.0239
 Charge=              0.0000 electrons
 Dipole moment (field-independent basis, Debye):
    X=              0.8620    Y=             -2.5616    Z=              0.5092  Tot=              2.7503
 Quadrupole moment (field-independent basis, Debye-Ang):
   XX=            -62.8120   YY=            -65.6326   ZZ=            -66.5457
   XY=              3.6988   XZ=              1.9154   YZ=              0.3314
 Traceless Quadrupole moment (field-independent basis, Debye-Ang):
   XX=              2.1847   YY=             -0.6358   ZZ=             -1.5489
   XY=              3.6988   XZ=              1.9154   YZ=              0.3314
 Octapole moment (field-independent basis, Debye-Ang**2):
  XXX=              6.1714  YYY=             -0.1251  ZZZ=              7.5359  XYY=              2.0079
  XXY=             -9.6451  XXZ=             10.8849  XZZ=            -14.1674  YZZ=              1.5116
  YYZ=             -0.7301  XYZ=              4.8651
 Hexadecapole moment (field-independent basis, Debye-Ang**3):
 XXXX=          -1193.3663 YYYY=           -801.5315 ZZZZ=           -227.8310 XXXY=             29.2990
 XXXZ=             12.7067 YYYX=            -17.0282 YYYZ=              4.7161 ZZZX=            -23.8022
 ZZZY=             -5.1292 XXYY=           -328.5173 XXZZ=           -236.5519 YYZZ=           -182.0862
 XXYZ=            -15.1867 YYXZ=              3.6608 ZZXY=             13.2188
 N-N= 5.871640932573D+02 E-N=-3.117446358747D+03  KE= 8.233562619641D+02
 Unable to Open any file for archive entry.
 1\1\GINC-NOTCH267\SP\RM062X\def2TZVP\C8H10Cl1N1\U6032257\21-Feb-2022\0
 \\# M062X/def2tzvp int=(grid=ultrafine) nmr=giao guess=read geom=check
 \\N3.xyz\\0,1\Cl,0,-0.0696049713,2.5904008113,1.2640888284\C,0,-0.8981
 196229,1.2216801666,0.5245778385\C,0,-2.1595468501,1.4598657866,-0.025
 2464737\C,0,-2.8617711215,0.4153129235,-0.6186655719\C,0,-2.3019381029
 ,-0.8623510412,-0.6549891738\C,0,-1.0456516828,-1.0793958122,-0.098564
 1072\C,0,-0.306691465,-0.0492301528,0.5047453616\C,0,1.0701981731,-0.3
 515364027,1.0507046103\C,0,2.1195979758,-0.4967077692,-0.063584426\N,0
 ,2.3256278294,0.7774068794,-0.7489801504\H,0,-2.5776975342,2.458876240
 3,0.0179232717\H,0,-3.8422141031,0.600831667,-1.0454824216\H,0,-2.8436
 799447,-1.6853880692,-1.10998689\H,0,-0.611263677,-2.0752404128,-0.122
 2276184\H,0,1.0273343049,-1.2927009323,1.6102963633\H,0,1.3932876675,0
 .4319149734,1.7378807822\H,0,1.8098204665,-1.3252767321,-0.7267399724\
 H,0,3.0705882255,-0.7962788776,0.3921300029\H,0,1.4544533481,1.0758668
 407,-1.1823442975\H,0,2.9969710846,0.6614499134,-1.503535956\\Version=
 ES64L-G16RevC.01\State=1-A\HF=-825.7938916\RMSD=2.118e-09\Dipole=-0.28
 79435,-0.8610855,-0.5885922\Quadrupole=1.5090341,-0.3663227,-1.1427115
 ,-3.081656,0.5738801,-0.24598\PG=C01 [X(C8H10Cl1N1)]\\@
 The archive entry for this job was punched.


 IF YOU PERCEIVE THAT THERE ARE FOUR POSSIBLE WAYS IN
 WHICH A PROCEDURE CAN GO WRONG AND CIRCUMVENT THESE, 
 THEN A FIFTH WAY WILL DEVELOP.

                              -- MURPHY'S TWELFTH LAW
 Job cpu time:       0 days  0 hours 25 minutes 43.0 seconds.
 Elapsed time:       0 days  0 hours  0 minutes 34.2 seconds.
 File lengths (MBytes):  RWF=     83 Int=      0 D2E=      0 Chk=     14 Scr=      1
 Normal termination of Gaussian 16 at Mon Feb 21 19:23:05 2022.
