 Entering Gaussian System, Link 0=/uufs/chpc.utah.edu/sys/installdir/gaussian16/C01/AVX2/g16/g16
 Input=N3_conf-5.com
 Output=N3_conf-5.log
 Initial command:
 /uufs/chpc.utah.edu/sys/installdir/gaussian16/C01/AVX2/g16/l1.exe "/scratch/local/u6032257/4038678/notchpeak.peaks/Gau-25897.inp" -scrdir="/scratch/local/u6032257/4038678/notchpeak.peaks/"
 Entering Link 1 = /uufs/chpc.utah.edu/sys/installdir/gaussian16/C01/AVX2/g16/l1.exe PID=     25899.
  
 Copyright (c) 1988-2019, Gaussian, Inc.  All Rights Reserved.
  
 This is part of the Gaussian(R) 16 program.  It is based on
 the Gaussian(R) 09 system (copyright 2009, Gaussian, Inc.),
 the Gaussian(R) 03 system (copyright 2003, Gaussian, Inc.),
 the Gaussian(R) 98 system (copyright 1998, Gaussian, Inc.),
 the Gaussian(R) 94 system (copyright 1995, Gaussian, Inc.),
 the Gaussian 92(TM) system (copyright 1992, Gaussian, Inc.),
 the Gaussian 90(TM) system (copyright 1990, Gaussian, Inc.),
 the Gaussian 88(TM) system (copyright 1988, Gaussian, Inc.),
 the Gaussian 86(TM) system (copyright 1986, Carnegie Mellon
 University), and the Gaussian 82(TM) system (copyright 1983,
 Carnegie Mellon University). Gaussian is a federally registered
 trademark of Gaussian, Inc.
  
 This software contains proprietary and confidential information,
 including trade secrets, belonging to Gaussian, Inc.
  
 This software is provided under written license and may be
 used, copied, transmitted, or stored only in accord with that
 written license.
  
 The following legend is applicable only to US Government
 contracts under FAR:
  
                    RESTRICTED RIGHTS LEGEND
  
 Use, reproduction and disclosure by the US Government is
 subject to restrictions as set forth in subparagraphs (a)
 and (c) of the Commercial Computer Software - Restricted
 Rights clause in FAR 52.227-19.
  
 Gaussian, Inc.
 340 Quinnipiac St., Bldg. 40, Wallingford CT 06492
  
  
 ---------------------------------------------------------------
 Warning -- This program may not be used in any manner that
 competes with the business of Gaussian, Inc. or will provide
 assistance to any competitor of Gaussian, Inc.  The licensee
 of this program is prohibited from giving any competitor of
 Gaussian, Inc. access to this program.  By using this program,
 the user acknowledges that Gaussian, Inc. is engaged in the
 business of creating and licensing software in the field of
 computational chemistry and represents and warrants to the
 licensee that it is not a competitor of Gaussian, Inc. and that
 it will not use this program in any manner prohibited above.
 ---------------------------------------------------------------
  

 Cite this work as:
 Gaussian 16, Revision C.01,
 M. J. Frisch, G. W. Trucks, H. B. Schlegel, G. E. Scuseria, 
 M. A. Robb, J. R. Cheeseman, G. Scalmani, V. Barone, 
 G. A. Petersson, H. Nakatsuji, X. Li, M. Caricato, A. V. Marenich, 
 J. Bloino, B. G. Janesko, R. Gomperts, B. Mennucci, H. P. Hratchian, 
 J. V. Ortiz, A. F. Izmaylov, J. L. Sonnenberg, D. Williams-Young, 
 F. Ding, F. Lipparini, F. Egidi, J. Goings, B. Peng, A. Petrone, 
 T. Henderson, D. Ranasinghe, V. G. Zakrzewski, J. Gao, N. Rega, 
 G. Zheng, W. Liang, M. Hada, M. Ehara, K. Toyota, R. Fukuda, 
 J. Hasegawa, M. Ishida, T. Nakajima, Y. Honda, O. Kitao, H. Nakai, 
 T. Vreven, K. Throssell, J. A. Montgomery, Jr., J. E. Peralta, 
 F. Ogliaro, M. J. Bearpark, J. J. Heyd, E. N. Brothers, K. N. Kudin, 
 V. N. Staroverov, T. A. Keith, R. Kobayashi, J. Normand, 
 K. Raghavachari, A. P. Rendell, J. C. Burant, S. S. Iyengar, 
 J. Tomasi, M. Cossi, J. M. Millam, M. Klene, C. Adamo, R. Cammi, 
 J. W. Ochterski, R. L. Martin, K. Morokuma, O. Farkas, 
 J. B. Foresman, and D. J. Fox, Gaussian, Inc., Wallingford CT, 2019.
 
 ******************************************
 Gaussian 16:  ES64L-G16RevC.01  3-Jul-2019
                21-Feb-2022 
 ******************************************
 %NProcShared=64
 Will use up to   64 processors via shared memory.
 %mem=16GB
 %chk=N3_conf-5.chk
 ----------------------------------------------------------------------
 # B3LYP/6-31G(d,p) empiricaldispersion=GD3BJ int=(grid=ultrafine) opt 
 freq=noraman
 ----------------------------------------------------------------------
 1/18=20,19=15,26=4,38=1/1,3;
 2/9=110,12=2,17=6,18=5,40=1/2;
 3/5=1,6=6,7=101,11=2,25=1,30=1,71=1,74=-5,75=-5,124=41/1,2,3;
 4//1;
 5/5=2,38=5/2;
 6/7=2,8=2,9=2,10=2,28=1/1;
 7//1,2,3,16;
 1/18=20,19=15,26=4/3(2);
 2/9=110/2;
 99//99;
 2/9=110/2;
 3/5=1,6=6,7=101,11=2,25=1,30=1,71=1,74=-5,75=-5,124=41/1,2,3;
 4/5=5,16=3,69=1/1;
 5/5=2,38=5/2;
 7//1,2,3,16;
 1/18=20,19=15,26=4/3(-5);
 2/9=110/2;
 6/7=2,8=2,9=2,10=2,19=2,28=1/1;
 99/9=1/99;
 ------
 N3.xyz
 ------
 Symbolic Z-matrix:
 Charge =  0 Multiplicity = 1
 Cl                   -0.4455    2.7422    1.3664 
 C                    -1.1204    1.3631    0.5672 
 C                    -2.5064    1.3017    0.4168 
 C                    -3.0989    0.2126   -0.2194 
 C                    -2.3029   -0.821    -0.7081 
 C                    -0.9168   -0.7657   -0.561 
 C                    -0.3063    0.3256    0.0779 
 C                     1.2156    0.4083    0.2512 
 C                     2.04     -0.7649   -0.3102 
 N                     3.4528   -0.5339   -0.0663 
 H                    -3.121     2.1046    0.7968 
 H                    -4.1727    0.1709   -0.3327 
 H                    -2.7594   -1.6671   -1.202 
 H                    -0.3311   -1.5842   -0.9518 
 H                     1.4169    0.5105    1.3188 
 H                     1.5469    1.3367   -0.2167 
 H                     1.8736   -0.8736   -1.3844 
 H                     1.7428   -1.7048    0.1604 
 H                     3.7607    0.3256   -0.5015 
 H                     3.6401   -0.441     0.9232 
 

 GradGradGradGradGradGradGradGradGradGradGradGradGradGradGradGradGradGrad
 Berny optimization.
 Initialization pass.
                           ----------------------------
                           !    Initial Parameters    !
                           ! (Angstroms and Degrees)  !
 --------------------------                            --------------------------
 ! Name  Definition              Value          Derivative Info.                !
 --------------------------------------------------------------------------------
 ! R1    R(1,2)                  1.7309         estimate D2E/DX2                !
 ! R2    R(2,3)                  1.3955         estimate D2E/DX2                !
 ! R3    R(2,7)                  1.4066         estimate D2E/DX2                !
 ! R4    R(3,4)                  1.3935         estimate D2E/DX2                !
 ! R5    R(3,11)                 1.0802         estimate D2E/DX2                !
 ! R6    R(4,5)                  1.3931         estimate D2E/DX2                !
 ! R7    R(4,12)                 1.0806         estimate D2E/DX2                !
 ! R8    R(5,6)                  1.395          estimate D2E/DX2                !
 ! R9    R(5,13)                 1.0808         estimate D2E/DX2                !
 ! R10   R(6,7)                  1.4042         estimate D2E/DX2                !
 ! R11   R(6,14)                 1.0797         estimate D2E/DX2                !
 ! R12   R(7,8)                  1.534          estimate D2E/DX2                !
 ! R13   R(8,9)                  1.5399         estimate D2E/DX2                !
 ! R14   R(8,15)                 1.0912         estimate D2E/DX2                !
 ! R15   R(8,16)                 1.0912         estimate D2E/DX2                !
 ! R16   R(9,10)                 1.4522         estimate D2E/DX2                !
 ! R17   R(9,17)                 1.0924         estimate D2E/DX2                !
 ! R18   R(9,18)                 1.0923         estimate D2E/DX2                !
 ! R19   R(10,19)                1.0114         estimate D2E/DX2                !
 ! R20   R(10,20)                1.0113         estimate D2E/DX2                !
 ! A1    A(1,2,3)              118.1689         estimate D2E/DX2                !
 ! A2    A(1,2,7)              121.5074         estimate D2E/DX2                !
 ! A3    A(3,2,7)              120.3237         estimate D2E/DX2                !
 ! A4    A(2,3,4)              120.3896         estimate D2E/DX2                !
 ! A5    A(2,3,11)             119.6363         estimate D2E/DX2                !
 ! A6    A(4,3,11)             119.9741         estimate D2E/DX2                !
 ! A7    A(3,4,5)              119.8058         estimate D2E/DX2                !
 ! A8    A(3,4,12)             120.036          estimate D2E/DX2                !
 ! A9    A(5,4,12)             120.1582         estimate D2E/DX2                !
 ! A10   A(4,5,6)              120.0887         estimate D2E/DX2                !
 ! A11   A(4,5,13)             119.9849         estimate D2E/DX2                !
 ! A12   A(6,5,13)             119.9264         estimate D2E/DX2                !
 ! A13   A(5,6,7)              120.7157         estimate D2E/DX2                !
 ! A14   A(5,6,14)             118.0863         estimate D2E/DX2                !
 ! A15   A(7,6,14)             121.198          estimate D2E/DX2                !
 ! A16   A(2,7,6)              118.6765         estimate D2E/DX2                !
 ! A17   A(2,7,8)              119.6794         estimate D2E/DX2                !
 ! A18   A(6,7,8)              121.6441         estimate D2E/DX2                !
 ! A19   A(7,8,9)              116.6728         estimate D2E/DX2                !
 ! A20   A(7,8,15)             107.3737         estimate D2E/DX2                !
 ! A21   A(7,8,16)             107.3772         estimate D2E/DX2                !
 ! A22   A(9,8,15)             109.2252         estimate D2E/DX2                !
 ! A23   A(9,8,16)             109.2297         estimate D2E/DX2                !
 ! A24   A(15,8,16)            106.4893         estimate D2E/DX2                !
 ! A25   A(8,9,10)             109.7809         estimate D2E/DX2                !
 ! A26   A(8,9,17)             110.6558         estimate D2E/DX2                !
 ! A27   A(8,9,18)             110.6606         estimate D2E/DX2                !
 ! A28   A(10,9,17)            109.2182         estimate D2E/DX2                !
 ! A29   A(10,9,18)            109.2209         estimate D2E/DX2                !
 ! A30   A(17,9,18)            107.2516         estimate D2E/DX2                !
 ! A31   A(9,10,19)            111.0437         estimate D2E/DX2                !
 ! A32   A(9,10,20)            111.0457         estimate D2E/DX2                !
 ! A33   A(19,10,20)           106.6519         estimate D2E/DX2                !
 ! D1    D(1,2,3,4)            179.9993         estimate D2E/DX2                !
 ! D2    D(1,2,3,11)            -0.0014         estimate D2E/DX2                !
 ! D3    D(7,2,3,4)             -0.0012         estimate D2E/DX2                !
 ! D4    D(7,2,3,11)           179.9981         estimate D2E/DX2                !
 ! D5    D(1,2,7,6)           -179.9996         estimate D2E/DX2                !
 ! D6    D(1,2,7,8)             -0.0031         estimate D2E/DX2                !
 ! D7    D(3,2,7,6)              0.0008         estimate D2E/DX2                !
 ! D8    D(3,2,7,8)            179.9974         estimate D2E/DX2                !
 ! D9    D(2,3,4,5)              0.0026         estimate D2E/DX2                !
 ! D10   D(2,3,4,12)           179.9966         estimate D2E/DX2                !
 ! D11   D(11,3,4,5)          -179.9967         estimate D2E/DX2                !
 ! D12   D(11,3,4,12)           -0.0027         estimate D2E/DX2                !
 ! D13   D(3,4,5,6)             -0.0037         estimate D2E/DX2                !
 ! D14   D(3,4,5,13)           179.9984         estimate D2E/DX2                !
 ! D15   D(12,4,5,6)          -179.9977         estimate D2E/DX2                !
 ! D16   D(12,4,5,13)            0.0045         estimate D2E/DX2                !
 ! D17   D(4,5,6,7)              0.0034         estimate D2E/DX2                !
 ! D18   D(4,5,6,14)          -179.9988         estimate D2E/DX2                !
 ! D19   D(13,5,6,7)          -179.9987         estimate D2E/DX2                !
 ! D20   D(13,5,6,14)           -0.001          estimate D2E/DX2                !
 ! D21   D(5,6,7,2)             -0.0019         estimate D2E/DX2                !
 ! D22   D(5,6,7,8)           -179.9985         estimate D2E/DX2                !
 ! D23   D(14,6,7,2)          -179.9997         estimate D2E/DX2                !
 ! D24   D(14,6,7,8)             0.0038         estimate D2E/DX2                !
 ! D25   D(2,7,8,9)            179.9986         estimate D2E/DX2                !
 ! D26   D(2,7,8,15)            57.0909         estimate D2E/DX2                !
 ! D27   D(2,7,8,16)           -57.0851         estimate D2E/DX2                !
 ! D28   D(6,7,8,9)             -0.0049         estimate D2E/DX2                !
 ! D29   D(6,7,8,15)          -122.9126         estimate D2E/DX2                !
 ! D30   D(6,7,8,16)           122.9114         estimate D2E/DX2                !
 ! D31   D(7,8,9,10)          -179.9982         estimate D2E/DX2                !
 ! D32   D(7,8,9,17)            59.3766         estimate D2E/DX2                !
 ! D33   D(7,8,9,18)           -59.3665         estimate D2E/DX2                !
 ! D34   D(15,8,9,10)          -58.0544         estimate D2E/DX2                !
 ! D35   D(15,8,9,17)         -178.6797         estimate D2E/DX2                !
 ! D36   D(15,8,9,18)           62.5772         estimate D2E/DX2                !
 ! D37   D(16,8,9,10)           58.0498         estimate D2E/DX2                !
 ! D38   D(16,8,9,17)          -62.5754         estimate D2E/DX2                !
 ! D39   D(16,8,9,18)          178.6815         estimate D2E/DX2                !
 ! D40   D(8,9,10,19)          -59.2437         estimate D2E/DX2                !
 ! D41   D(8,9,10,20)           59.2471         estimate D2E/DX2                !
 ! D42   D(17,9,10,19)          62.2474         estimate D2E/DX2                !
 ! D43   D(17,9,10,20)        -179.2618         estimate D2E/DX2                !
 ! D44   D(18,9,10,19)         179.2575         estimate D2E/DX2                !
 ! D45   D(18,9,10,20)         -62.2516         estimate D2E/DX2                !
 --------------------------------------------------------------------------------
 Trust Radius=3.00D-01 FncErr=1.00D-07 GrdErr=1.00D-06 EigMax=2.50D+02 EigMin=1.00D-04
 Number of steps in this run=    108 maximum allowed number of steps=    120.
 GradGradGradGradGradGradGradGradGradGradGradGradGradGradGradGradGradGrad

                          Input orientation:                          
 ---------------------------------------------------------------------
 Center     Atomic      Atomic             Coordinates (Angstroms)
 Number     Number       Type             X           Y           Z
 ---------------------------------------------------------------------
      1         17           0       -0.445500    2.742200    1.366400
      2          6           0       -1.120400    1.363100    0.567200
      3          6           0       -2.506400    1.301700    0.416800
      4          6           0       -3.098900    0.212600   -0.219400
      5          6           0       -2.302900   -0.821000   -0.708100
      6          6           0       -0.916800   -0.765700   -0.561000
      7          6           0       -0.306300    0.325600    0.077900
      8          6           0        1.215600    0.408300    0.251200
      9          6           0        2.040000   -0.764900   -0.310200
     10          7           0        3.452800   -0.533900   -0.066300
     11          1           0       -3.121000    2.104600    0.796800
     12          1           0       -4.172700    0.170900   -0.332700
     13          1           0       -2.759400   -1.667100   -1.202000
     14          1           0       -0.331100   -1.584200   -0.951800
     15          1           0        1.416900    0.510500    1.318800
     16          1           0        1.546900    1.336700   -0.216700
     17          1           0        1.873600   -0.873600   -1.384400
     18          1           0        1.742800   -1.704800    0.160400
     19          1           0        3.760700    0.325600   -0.501500
     20          1           0        3.640100   -0.441000    0.923200
 ---------------------------------------------------------------------
                    Distance matrix (angstroms):
                    1          2          3          4          5
     1  Cl   0.000000
     2  C    1.730933   0.000000
     3  C    2.687767   1.395488   0.000000
     4  C    3.994267   2.420093   1.393537   0.000000
     5  C    4.522154   2.791951   2.410947   1.393116   0.000000
     6  C    4.030181   2.417866   2.785151   2.415641   1.394980
     7  C    2.742182   1.406620   2.430651   2.810653   2.432879
     8  C    3.074087   2.543304   3.831301   4.344499   3.848542
     9  C    4.613941   3.909775   5.046694   5.231830   4.361451
    10  N    5.289821   4.991402   6.254189   6.595868   5.798484
    11  H    2.808786   2.145912   1.080177   2.147746   3.390154
    12  H    4.836377   3.398190   2.148724   1.080566   2.149638
    13  H    5.602922   3.872790   3.390914   2.148031   1.080840
    14  H    4.909672   3.408362   3.864378   3.380180   2.128347
    15  H    2.907109   2.780238   4.102668   4.779880   4.440510
    16  H    2.907111   2.780231   4.102656   4.779860   4.440507
    17  H    5.100896   4.216113   5.211588   5.221380   4.231229
    18  H    5.100873   4.216090   5.211572   5.221372   4.231204
    19  H    5.198185   5.103299   6.408790   6.866328   6.174514
    20  H    5.198203   5.103320   6.408815   6.866356   6.174527
                    6          7          8          9         10
     6  C    0.000000
     7  C    1.404222   0.000000
     8  C    2.566140   1.533966   0.000000
     9  C    2.967418   2.616283   1.539871   0.000000
    10  N    4.403619   3.858804   2.448185   1.452189   0.000000
    11  H    3.865325   3.406493   4.688413   6.007945   7.135928
    12  H    3.395619   3.891217   5.425041   6.282823   7.662634
    13  H    2.149088   3.409794   4.713778   4.964223   6.416026
    14  H    1.079681   2.169846   2.794557   2.589405   4.025561
    15  H    3.257068   2.131534   1.091209   2.160680   2.674727
    16  H    3.257061   2.131540   1.091154   2.160697   2.674737
    17  H    2.911351   2.885891   2.179775   1.092433   2.084864
    18  H    2.911323   2.885852   2.179765   1.092339   2.084826
    19  H    4.803486   4.108064   2.655359   2.046117   1.011406
    20  H    4.803501   4.108075   2.655390   2.046095   1.011347
                   11         12         13         14         15
    11  H    0.000000
    12  H    2.474073   0.000000
    13  H    4.283886   2.476155   0.000000
    14  H    4.944531   4.268671   2.442563   0.000000
    15  H    4.837993   5.838357   5.342083   3.549492   0.000000
    16  H    4.837990   5.838353   5.342083   3.549495   1.748504
    17  H    6.210744   6.225335   4.703998   2.356437   3.071091
    18  H    6.210723   6.225314   4.703973   2.356394   2.521043
    19  H    7.225526   7.936703   6.853704   4.537944   2.973395
    20  H    7.225547   7.936722   6.853714   4.537947   2.450402
                   16         17         18         19         20
    16  H    0.000000
    17  H    2.521048   0.000000
    18  H    3.071043   1.759093   0.000000
    19  H    2.450376   2.403901   2.938121   0.000000
    20  H    2.973395   2.938143   2.403914   1.622341   0.000000
 Stoichiometry    C8H10ClN
 Framework group  C1[X(C8H10ClN)]
 Deg. of freedom    54
 Full point group                 C1      NOp   1
 Largest Abelian subgroup         C1      NOp   1
 Largest concise Abelian subgroup C1      NOp   1
                         Standard orientation:                         
 ---------------------------------------------------------------------
 Center     Atomic      Atomic             Coordinates (Angstroms)
 Number     Number       Type             X           Y           Z
 ---------------------------------------------------------------------
      1         17           0        0.833494    2.293405   -0.000007
      2          6           0        1.052885    0.576432   -0.000001
      3          6           0        2.356667    0.078899    0.000009
      4          6           0        2.586723   -1.295517    0.000029
      5          6           0        1.508799   -2.178043   -0.000016
      6          6           0        0.203042   -1.687159   -0.000002
      7          6           0       -0.043516   -0.304752   -0.000016
      8          6           0       -1.470435    0.258233    0.000034
      9          6           0       -2.618450   -0.768055   -0.000020
     10          7           0       -3.895583   -0.076836   -0.000007
     11          1           0        3.190440    0.765634   -0.000011
     12          1           0        3.598637   -1.674533   -0.000019
     13          1           0        1.683900   -3.244605   -0.000026
     14          1           0       -0.607953   -2.399900   -0.000019
     15          1           0       -1.565891    0.904184   -0.874250
     16          1           0       -1.565883    0.904178    0.874254
     17          1           0       -2.558698   -1.413143    0.879583
     18          1           0       -2.558693   -1.413136   -0.879510
     19          1           0       -3.985219    0.520533    0.811201
     20          1           0       -3.985250    0.520529   -0.811140
 ---------------------------------------------------------------------
 Rotational constants (GHZ):           1.4951705           0.8231562           0.5358655
 Standard basis: 6-31G(d,p) (6D, 7F)
 There are   204 symmetry adapted cartesian basis functions of A   symmetry.
 There are   204 symmetry adapted basis functions of A   symmetry.
   204 basis functions,   374 primitive gaussians,   204 cartesian basis functions
    41 alpha electrons       41 beta electrons
       nuclear repulsion energy       571.5023498940 Hartrees.
 NAtoms=   20 NActive=   20 NUniq=   20 SFac= 1.00D+00 NAtFMM=   60 NAOKFM=F Big=F
 Integral buffers will be    131072 words long.
 Raffenetti 2 integral format.
 Two-electron integral symmetry is turned on.
 Nuclear repulsion after empirical dispersion term =      571.4641503593 Hartrees.
 One-electron integrals computed using PRISM.
 NBasis=   204 RedAO= T EigKep=  4.38D-04  NBF=   204
 NBsUse=   204 1.00D-06 EigRej= -1.00D+00 NBFU=   204
 ExpMin= 1.43D-01 ExpMax= 2.52D+04 ExpMxC= 3.78D+03 IAcc=3 IRadAn=         5 AccDes= 0.00D+00
 Harris functional with IExCor=  402 and IRadAn=       5 diagonalized for initial guess.
 HarFok:  IExCor=  402 AccDes= 0.00D+00 IRadAn=         5 IDoV= 1 UseB2=F ITyADJ=14
 ICtDFT=  3500011 ScaDFX=  1.000000  1.000000  1.000000  1.000000
 FoFCou: FMM=F IPFlag=           0 FMFlag=      100000 FMFlg1=           0
         NFxFlg=           0 DoJE=T BraDBF=F KetDBF=T FulRan=T
         wScrn=  0.000000 ICntrl=       500 IOpCl=  0 I1Cent=   200000004 NGrid=           0
         NMat0=    1 NMatS0=      1 NMatT0=    0 NMatD0=    1 NMtDS0=    0 NMtDT0=    0
 Petite list used in FoFCou.
 Requested convergence on RMS density matrix=1.00D-08 within 128 cycles.
 Requested convergence on MAX density matrix=1.00D-06.
 Requested convergence on             energy=1.00D-06.
 No special actions if energy rises.
 Integral accuracy reduced to 1.0D-05 until final iterations.
 Initial convergence to 1.0D-05 achieved.  Increase integral accuracy.
 SCF Done:  E(RB3LYP) =  -825.868392383     A.U. after   14 cycles
            NFock= 14  Conv=0.52D-08     -V/T= 2.0060

 **********************************************************************

            Population analysis using the SCF Density.

 **********************************************************************

 Orbital symmetries:
       Occupied  (A) (A) (A) (A) (A) (A) (A) (A) (A) (A) (A) (A)
                 (A) (A) (A) (A) (A) (A) (A) (A) (A) (A) (A) (A)
                 (A) (A) (A) (A) (A) (A) (A) (A) (A) (A) (A) (A)
                 (A) (A) (A) (A) (A)
       Virtual   (A) (A) (A) (A) (A) (A) (A) (A) (A) (A) (A) (A)
                 (A) (A) (A) (A) (A) (A) (A) (A) (A) (A) (A) (A)
                 (A) (A) (A) (A) (A) (A) (A) (A) (A) (A) (A) (A)
                 (A) (A) (A) (A) (A) (A) (A) (A) (A) (A) (A) (A)
                 (A) (A) (A) (A) (A) (A) (A) (A) (A) (A) (A) (A)
                 (A) (A) (A) (A) (A) (A) (A) (A) (A) (A) (A) (A)
                 (A) (A) (A) (A) (A) (A) (A) (A) (A) (A) (A) (A)
                 (A) (A) (A) (A) (A) (A) (A) (A) (A) (A) (A) (A)
                 (A) (A) (A) (A) (A) (A) (A) (A) (A) (A) (A) (A)
                 (A) (A) (A) (A) (A) (A) (A) (A) (A) (A) (A) (A)
                 (A) (A) (A) (A) (A) (A) (A) (A) (A) (A) (A) (A)
                 (A) (A) (A) (A) (A) (A) (A) (A) (A) (A) (A) (A)
                 (A) (A) (A) (A) (A) (A) (A) (A) (A) (A) (A) (A)
                 (A) (A) (A) (A) (A) (A) (A)
 The electronic state is 1-A.
 Alpha  occ. eigenvalues -- -101.55008 -14.30960 -10.24742 -10.21085 -10.20973
 Alpha  occ. eigenvalues --  -10.19940 -10.19632 -10.19575 -10.19433 -10.18949
 Alpha  occ. eigenvalues --   -9.46667  -7.23046  -7.22107  -7.22062  -0.89570
 Alpha  occ. eigenvalues --   -0.88396  -0.83593  -0.77865  -0.73537  -0.70521
 Alpha  occ. eigenvalues --   -0.63869  -0.59820  -0.58412  -0.51359  -0.50384
 Alpha  occ. eigenvalues --   -0.47352  -0.46097  -0.43771  -0.43220  -0.42831
 Alpha  occ. eigenvalues --   -0.40768  -0.38541  -0.38474  -0.35741  -0.34997
 Alpha  occ. eigenvalues --   -0.34925  -0.33336  -0.31051  -0.25313  -0.24046
 Alpha  occ. eigenvalues --   -0.22999
 Alpha virt. eigenvalues --   -0.01033  -0.00581   0.04028   0.07897   0.10784
 Alpha virt. eigenvalues --    0.12101   0.12818   0.13975   0.15399   0.15839
 Alpha virt. eigenvalues --    0.17894   0.18958   0.19102   0.20126   0.22254
 Alpha virt. eigenvalues --    0.23568   0.25727   0.28872   0.31393   0.32759
 Alpha virt. eigenvalues --    0.34163   0.39532   0.41291   0.44549   0.45347
 Alpha virt. eigenvalues --    0.47650   0.51977   0.53118   0.54353   0.54797
 Alpha virt. eigenvalues --    0.56466   0.57696   0.58929   0.59690   0.60320
 Alpha virt. eigenvalues --    0.60344   0.60530   0.61502   0.65650   0.65977
 Alpha virt. eigenvalues --    0.66052   0.72208   0.72229   0.73027   0.74069
 Alpha virt. eigenvalues --    0.74507   0.78627   0.80411   0.81384   0.82189
 Alpha virt. eigenvalues --    0.83065   0.84315   0.86681   0.87694   0.89953
 Alpha virt. eigenvalues --    0.90586   0.90818   0.92336   0.93069   0.93742
 Alpha virt. eigenvalues --    0.94780   0.96810   0.98716   1.01251   1.05348
 Alpha virt. eigenvalues --    1.05618   1.09489   1.12124   1.13870   1.15786
 Alpha virt. eigenvalues --    1.20869   1.24626   1.28435   1.30415   1.34109
 Alpha virt. eigenvalues --    1.34426   1.40437   1.40584   1.41245   1.42567
 Alpha virt. eigenvalues --    1.46351   1.49607   1.53634   1.62499   1.65627
 Alpha virt. eigenvalues --    1.70959   1.74107   1.75995   1.76754   1.80208
 Alpha virt. eigenvalues --    1.84799   1.85907   1.88844   1.91150   1.93863
 Alpha virt. eigenvalues --    1.95502   1.97970   1.99013   1.99596   2.01733
 Alpha virt. eigenvalues --    2.04907   2.07250   2.07937   2.08392   2.14031
 Alpha virt. eigenvalues --    2.15552   2.22337   2.23552   2.24227   2.27727
 Alpha virt. eigenvalues --    2.28491   2.29870   2.33245   2.34469   2.35412
 Alpha virt. eigenvalues --    2.38475   2.39827   2.43106   2.44650   2.48109
 Alpha virt. eigenvalues --    2.50409   2.50881   2.51401   2.53593   2.56997
 Alpha virt. eigenvalues --    2.59951   2.63348   2.63740   2.69612   2.71089
 Alpha virt. eigenvalues --    2.72289   2.74924   2.75730   2.78210   2.85309
 Alpha virt. eigenvalues --    2.88261   2.90610   2.91219   2.99731   3.01238
 Alpha virt. eigenvalues --    3.05606   3.19553   3.24636   3.25120   3.29925
 Alpha virt. eigenvalues --    3.31823   3.33735   3.34339   3.39041   3.47542
 Alpha virt. eigenvalues --    3.51312   3.58659   3.83033   4.02479   4.07550
 Alpha virt. eigenvalues --    4.13744   4.15000   4.28832   4.35553   4.42050
 Alpha virt. eigenvalues --    4.44003   4.63513   4.80907
          Condensed to atoms (all electrons):
               1          2          3          4          5          6
     1  Cl  16.914901   0.241423  -0.078736   0.004612   0.000221   0.004465
     2  C    0.241423   5.124126   0.514130  -0.040455  -0.042211  -0.043812
     3  C   -0.078736   0.514130   4.867174   0.539728  -0.027412  -0.048404
     4  C    0.004612  -0.040455   0.539728   4.794942   0.545000  -0.033714
     5  C    0.000221  -0.042211  -0.027412   0.545000   4.846320   0.503592
     6  C    0.004465  -0.043812  -0.048404  -0.033714   0.503592   4.902315
     7  C   -0.080305   0.478968  -0.030451  -0.033106  -0.022307   0.549480
     8  C   -0.002408  -0.045515   0.005617   0.000032   0.008683  -0.063830
     9  C    0.000563   0.004148  -0.000058  -0.000006  -0.000017  -0.006104
    10  N    0.000009  -0.000158   0.000000   0.000000  -0.000006   0.000150
    11  H   -0.000392  -0.041281   0.369463  -0.036134   0.004694   0.000744
    12  H   -0.000185   0.004924  -0.041233   0.371044  -0.040850   0.004806
    13  H    0.000014   0.001047   0.004689  -0.041207   0.365352  -0.036806
    14  H   -0.000142   0.005458   0.000456   0.004819  -0.044683   0.372357
    15  H    0.003935  -0.008821  -0.000101   0.000041  -0.000218   0.001836
    16  H    0.003935  -0.008820  -0.000101   0.000041  -0.000218   0.001835
    17  H   -0.000004  -0.000104  -0.000004  -0.000000  -0.000080   0.000994
    18  H   -0.000004  -0.000104  -0.000004  -0.000000  -0.000080   0.000993
    19  H   -0.000004  -0.000011  -0.000000   0.000000  -0.000000   0.000003
    20  H   -0.000004  -0.000011  -0.000000   0.000000  -0.000000   0.000003
               7          8          9         10         11         12
     1  Cl  -0.080305  -0.002408   0.000563   0.000009  -0.000392  -0.000185
     2  C    0.478968  -0.045515   0.004148  -0.000158  -0.041281   0.004924
     3  C   -0.030451   0.005617  -0.000058   0.000000   0.369463  -0.041233
     4  C   -0.033106   0.000032  -0.000006   0.000000  -0.036134   0.371044
     5  C   -0.022307   0.008683  -0.000017  -0.000006   0.004694  -0.040850
     6  C    0.549480  -0.063830  -0.006104   0.000150   0.000744   0.004806
     7  C    4.852131   0.271870  -0.031454   0.007673   0.003431   0.000718
     8  C    0.271870   5.160842   0.360204  -0.071697  -0.000153   0.000006
     9  C   -0.031454   0.360204   4.804772   0.325609   0.000001  -0.000000
    10  N    0.007673  -0.071697   0.325609   6.705608  -0.000000   0.000000
    11  H    0.003431  -0.000153   0.000001  -0.000000   0.602837  -0.006542
    12  H    0.000718   0.000006  -0.000000   0.000000  -0.006542   0.622449
    13  H    0.004156  -0.000169   0.000002  -0.000000  -0.000189  -0.006007
    14  H   -0.041086  -0.014979   0.004576  -0.000020   0.000016  -0.000217
    15  H   -0.022945   0.366395  -0.037547  -0.000577  -0.000000   0.000000
    16  H   -0.022945   0.366409  -0.037541  -0.000577  -0.000000   0.000000
    17  H   -0.000036  -0.044844   0.386317  -0.034919  -0.000000   0.000000
    18  H   -0.000035  -0.044839   0.386330  -0.034917  -0.000000   0.000000
    19  H    0.000291  -0.002196  -0.047301   0.350165  -0.000000   0.000000
    20  H    0.000291  -0.002195  -0.047302   0.350171  -0.000000   0.000000
              13         14         15         16         17         18
     1  Cl   0.000014  -0.000142   0.003935   0.003935  -0.000004  -0.000004
     2  C    0.001047   0.005458  -0.008821  -0.008820  -0.000104  -0.000104
     3  C    0.004689   0.000456  -0.000101  -0.000101  -0.000004  -0.000004
     4  C   -0.041207   0.004819   0.000041   0.000041  -0.000000  -0.000000
     5  C    0.365352  -0.044683  -0.000218  -0.000218  -0.000080  -0.000080
     6  C   -0.036806   0.372357   0.001836   0.001835   0.000994   0.000993
     7  C    0.004156  -0.041086  -0.022945  -0.022945  -0.000036  -0.000035
     8  C   -0.000169  -0.014979   0.366395   0.366409  -0.044844  -0.044839
     9  C    0.000002   0.004576  -0.037547  -0.037541   0.386317   0.386330
    10  N   -0.000000  -0.000020  -0.000577  -0.000577  -0.034919  -0.034917
    11  H   -0.000189   0.000016  -0.000000  -0.000000  -0.000000  -0.000000
    12  H   -0.006007  -0.000217   0.000000   0.000000   0.000000   0.000000
    13  H    0.626203  -0.006024   0.000002   0.000002   0.000001   0.000001
    14  H   -0.006024   0.621969   0.000292   0.000292   0.001977   0.001976
    15  H    0.000002   0.000292   0.615266  -0.039709   0.005754  -0.006417
    16  H    0.000002   0.000292  -0.039709   0.615235  -0.006417   0.005753
    17  H    0.000001   0.001977   0.005754  -0.006417   0.620045  -0.040196
    18  H    0.000001   0.001976  -0.006417   0.005753  -0.040196   0.620005
    19  H    0.000000   0.000012  -0.000493   0.006162  -0.005861   0.006616
    20  H    0.000000   0.000012   0.006162  -0.000493   0.006616  -0.005860
              19         20
     1  Cl  -0.000004  -0.000004
     2  C   -0.000011  -0.000011
     3  C   -0.000000  -0.000000
     4  C    0.000000   0.000000
     5  C   -0.000000  -0.000000
     6  C    0.000003   0.000003
     7  C    0.000291   0.000291
     8  C   -0.002196  -0.002195
     9  C   -0.047301  -0.047302
    10  N    0.350165   0.350171
    11  H   -0.000000  -0.000000
    12  H    0.000000   0.000000
    13  H    0.000000   0.000000
    14  H    0.000012   0.000012
    15  H   -0.000493   0.006162
    16  H    0.006162  -0.000493
    17  H   -0.005861   0.006616
    18  H    0.006616  -0.005860
    19  H    0.492627  -0.036424
    20  H   -0.036424   0.492613
 Mulliken charges:
               1
     1  Cl  -0.011893
     2  C   -0.142920
     3  C   -0.074752
     4  C   -0.075633
     5  C   -0.095779
     6  C   -0.110902
     7  C    0.115662
     8  C   -0.247232
     9  C   -0.065191
    10  N   -0.596515
    11  H    0.103506
    12  H    0.091086
    13  H    0.088934
    14  H    0.092940
    15  H    0.117146
    16  H    0.117159
    17  H    0.110764
    18  H    0.110783
    19  H    0.236415
    20  H    0.236422
 Sum of Mulliken charges =  -0.00000
 Mulliken charges with hydrogens summed into heavy atoms:
               1
     1  Cl  -0.011893
     2  C   -0.142920
     3  C    0.028754
     4  C    0.015453
     5  C   -0.006845
     6  C   -0.017962
     7  C    0.115662
     8  C   -0.012926
     9  C    0.156356
    10  N   -0.123678
 Electronic spatial extent (au):  <R**2>=           2019.5858
 Charge=             -0.0000 electrons
 Dipole moment (field-independent basis, Debye):
    X=              0.6133    Y=             -0.5399    Z=             -0.0001  Tot=              0.8171
 Quadrupole moment (field-independent basis, Debye-Ang):
   XX=            -67.6630   YY=            -64.3735   ZZ=            -66.9121
   XY=             -6.6101   XZ=             -0.0000   YZ=              0.0003
 Traceless Quadrupole moment (field-independent basis, Debye-Ang):
   XX=             -1.3468   YY=              1.9427   ZZ=             -0.5959
   XY=             -6.6101   XZ=             -0.0000   YZ=              0.0003
 Octapole moment (field-independent basis, Debye-Ang**2):
  XXX=             54.7640  YYY=             -2.8976  ZZZ=             -0.0001  XYY=             -1.9389
  XXY=             23.6623  XXZ=             -0.0010  XZZ=            -13.7012  YZZ=              6.7168
  YYZ=             -0.0005  XYZ=             -0.0004
 Hexadecapole moment (field-independent basis, Debye-Ang**3):
 XXXX=          -1855.2777 YYYY=           -840.8174 ZZZZ=            -86.9112 XXXY=           -120.5913
 XXXZ=              0.0006 YYYX=            -11.9892 YYYZ=              0.0016 ZZZX=             -0.0001
 ZZZY=              0.0005 XXYY=           -411.6653 XXZZ=           -280.2239 YYZZ=           -170.0027
 XXYZ=              0.0022 YYXZ=              0.0001 ZZXY=              2.7717
 N-N= 5.714641503593D+02 E-N=-3.083685594329D+03  KE= 8.209564174256D+02
 Calling FoFJK, ICntrl=      2127 FMM=F ISym2X=0 I1Cent= 0 IOpClX= 0 NMat=1 NMatS=1 NMatT=0.
 ***** Axes restored to original set *****
 -------------------------------------------------------------------
 Center     Atomic                   Forces (Hartrees/Bohr)
 Number     Number              X              Y              Z
 -------------------------------------------------------------------
      1       17           0.006684637    0.008698157    0.005246227
      2        6          -0.012323208   -0.018072915   -0.010766630
      3        6          -0.001227099    0.000219367    0.000013197
      4        6           0.004849928   -0.000902331   -0.000065141
      5        6           0.000865896    0.002465204    0.001393913
      6        6          -0.007390547    0.007419894    0.003371887
      7        6           0.016449884   -0.000229331    0.001258321
      8        6          -0.022381714   -0.008569465   -0.006457362
      9        6          -0.001979527    0.015819506    0.008276528
     10        7           0.011068083   -0.013075752   -0.006145834
     11        1          -0.001095113    0.002823832    0.001425515
     12        1          -0.003231005    0.000775825    0.000140972
     13        1          -0.001081699   -0.002716158   -0.001552842
     14        1           0.004540827   -0.000369312    0.000184989
     15        1           0.003286774    0.000670926    0.003265950
     16        1           0.003639416    0.002876003   -0.000803757
     17        1           0.000289446   -0.000231415   -0.001882513
     18        1           0.000039808   -0.001757770    0.000896800
     19        1          -0.000246481    0.003725998   -0.001993412
     20        1          -0.000758307    0.000429735    0.004193194
 -------------------------------------------------------------------
 Cartesian Forces:  Max     0.022381714 RMS     0.006560176

 GradGradGradGradGradGradGradGradGradGradGradGradGradGradGradGradGradGrad
 Berny optimization.
 FormGI is forming the generalized inverse of G from B-inverse, IUseBI=4.
 Internal  Forces:  Max     0.019590878 RMS     0.003487069
 Search for a local minimum.
 Step number   1 out of a maximum of  108
 All quantities printed in internal units (Hartrees-Bohrs-Radians)
 Mixed Optimization -- RFO/linear search
 Second derivative matrix not updated -- first step.
 ITU=  0
     Eigenvalues ---    0.00239   0.00317   0.01001   0.01331   0.02033
     Eigenvalues ---    0.02072   0.02093   0.02130   0.02160   0.02167
     Eigenvalues ---    0.02171   0.02177   0.03543   0.04260   0.04427
     Eigenvalues ---    0.05173   0.05387   0.09135   0.09941   0.12583
     Eigenvalues ---    0.13211   0.16000   0.16000   0.16000   0.16000
     Eigenvalues ---    0.16000   0.16000   0.21896   0.22000   0.22018
     Eigenvalues ---    0.22489   0.24479   0.25000   0.25000   0.28530
     Eigenvalues ---    0.29060   0.32411   0.34533   0.34544   0.34673
     Eigenvalues ---    0.34680   0.35893   0.35926   0.35973   0.36033
     Eigenvalues ---    0.37960   0.41611   0.41886   0.45144   0.45738
     Eigenvalues ---    0.45748   0.45945   0.46419   0.46687
 RFO step:  Lambda=-5.02013032D-03 EMin= 2.38526925D-03
 Linear search not attempted -- first point.
 Iteration  1 RMS(Cart)=  0.04224908 RMS(Int)=  0.00101834
 Iteration  2 RMS(Cart)=  0.00167852 RMS(Int)=  0.00014054
 Iteration  3 RMS(Cart)=  0.00000146 RMS(Int)=  0.00014054
 Iteration  4 RMS(Cart)=  0.00000000 RMS(Int)=  0.00014054
 Variable       Old X    -DE/DX   Delta X   Delta X   Delta X     New X
                                 (Linear)    (Quad)   (Total)
    R1        3.27099   0.01196   0.00000   0.03633   0.03633   3.30732
    R2        2.63709  -0.00021   0.00000  -0.00023  -0.00022   2.63687
    R3        2.65813  -0.00244   0.00000  -0.00574  -0.00572   2.65240
    R4        2.63340  -0.00129   0.00000  -0.00222  -0.00223   2.63118
    R5        2.04124   0.00322   0.00000   0.00884   0.00884   2.05008
    R6        2.63261  -0.00005   0.00000   0.00020   0.00018   2.63279
    R7        2.04197   0.00317   0.00000   0.00869   0.00869   2.05066
    R8        2.63613   0.00086   0.00000   0.00161   0.00160   2.63773
    R9        2.04249   0.00329   0.00000   0.00905   0.00905   2.05154
   R10        2.65359  -0.00483   0.00000  -0.01116  -0.01115   2.64244
   R11        2.04030   0.00268   0.00000   0.00733   0.00733   2.04763
   R12        2.89878  -0.00707   0.00000  -0.02390  -0.02390   2.87487
   R13        2.90993  -0.00046   0.00000  -0.00157  -0.00157   2.90836
   R14        2.06209   0.00386   0.00000   0.01099   0.01099   2.07307
   R15        2.06198   0.00390   0.00000   0.01108   0.01108   2.07306
   R16        2.74424   0.00771   0.00000   0.02004   0.02004   2.76428
   R17        2.06440   0.00183   0.00000   0.00522   0.00522   2.06962
   R18        2.06422   0.00189   0.00000   0.00539   0.00539   2.06961
   R19        1.91128   0.00395   0.00000   0.00854   0.00854   1.91982
   R20        1.91117   0.00400   0.00000   0.00865   0.00865   1.91982
    A1        2.06244   0.00030   0.00000   0.00127   0.00126   2.06370
    A2        2.12070  -0.00690   0.00000  -0.02698  -0.02699   2.09371
    A3        2.10005   0.00660   0.00000   0.02571   0.02573   2.12578
    A4        2.10119  -0.00301   0.00000  -0.01180  -0.01179   2.08940
    A5        2.08805   0.00058   0.00000   0.00032   0.00032   2.08837
    A6        2.09394   0.00243   0.00000   0.01148   0.01148   2.10542
    A7        2.09101  -0.00111   0.00000  -0.00316  -0.00318   2.08782
    A8        2.09502  -0.00048   0.00000  -0.00472  -0.00471   2.09031
    A9        2.09716   0.00160   0.00000   0.00788   0.00789   2.10505
   A10        2.09594  -0.00027   0.00000  -0.00097  -0.00100   2.09494
   A11        2.09413   0.00049   0.00000   0.00260   0.00262   2.09675
   A12        2.09311  -0.00021   0.00000  -0.00163  -0.00162   2.09149
   A13        2.10689   0.00369   0.00000   0.01487   0.01487   2.12175
   A14        2.06099   0.00192   0.00000   0.01539   0.01539   2.07638
   A15        2.11530  -0.00561   0.00000  -0.03026  -0.03025   2.08505
   A16        2.07130  -0.00589   0.00000  -0.02465  -0.02462   2.04667
   A17        2.08880   0.00411   0.00000   0.01689   0.01687   2.10567
   A18        2.12309   0.00178   0.00000   0.00776   0.00775   2.13084
   A19        2.03632  -0.00065   0.00000   0.00030   0.00034   2.03667
   A20        1.87403   0.00185   0.00000   0.01835   0.01835   1.89237
   A21        1.87409   0.00185   0.00000   0.01830   0.01829   1.89238
   A22        1.90634  -0.00118   0.00000  -0.01235  -0.01243   1.89391
   A23        1.90642  -0.00119   0.00000  -0.01242  -0.01250   1.89392
   A24        1.85859  -0.00062   0.00000  -0.01285  -0.01319   1.84540
   A25        1.91604   0.01959   0.00000   0.09493   0.09478   2.01082
   A26        1.93131  -0.00494   0.00000  -0.01793  -0.01812   1.91319
   A27        1.93139  -0.00495   0.00000  -0.01801  -0.01820   1.91320
   A28        1.90622  -0.00650   0.00000  -0.02474  -0.02516   1.88106
   A29        1.90626  -0.00650   0.00000  -0.02478  -0.02519   1.88107
   A30        1.87189   0.00268   0.00000  -0.01284  -0.01371   1.85818
   A31        1.93808  -0.00215   0.00000  -0.01729  -0.01747   1.92061
   A32        1.93811  -0.00216   0.00000  -0.01732  -0.01749   1.92062
   A33        1.86143   0.00138   0.00000   0.00016  -0.00020   1.86123
    D1        3.14158   0.00000   0.00000   0.00001   0.00001   3.14159
    D2       -0.00003   0.00000   0.00000   0.00003   0.00003   0.00000
    D3       -0.00002   0.00000   0.00000   0.00002   0.00002  -0.00000
    D4        3.14156   0.00000   0.00000   0.00003   0.00003   3.14159
    D5       -3.14159  -0.00000   0.00000  -0.00001  -0.00001  -3.14159
    D6       -0.00005   0.00000   0.00000   0.00005   0.00005  -0.00001
    D7        0.00001  -0.00000   0.00000  -0.00001  -0.00001   0.00001
    D8        3.14155   0.00000   0.00000   0.00004   0.00004   3.14159
    D9        0.00005  -0.00000   0.00000  -0.00004  -0.00004   0.00000
   D10        3.14153   0.00000   0.00000   0.00005   0.00005   3.14158
   D11       -3.14153  -0.00000   0.00000  -0.00006  -0.00006  -3.14159
   D12       -0.00005   0.00000   0.00000   0.00004   0.00004  -0.00001
   D13       -0.00006   0.00000   0.00000   0.00006   0.00006  -0.00000
   D14        3.14157   0.00000   0.00000   0.00003   0.00003  -3.14159
   D15       -3.14155  -0.00000   0.00000  -0.00003  -0.00003  -3.14158
   D16        0.00008  -0.00000   0.00000  -0.00006  -0.00006   0.00002
   D17        0.00006  -0.00000   0.00000  -0.00006  -0.00006   0.00000
   D18       -3.14157  -0.00000   0.00000  -0.00002  -0.00002   3.14159
   D19       -3.14157  -0.00000   0.00000  -0.00003  -0.00003   3.14159
   D20       -0.00002   0.00000   0.00000   0.00001   0.00001  -0.00001
   D21       -0.00003   0.00000   0.00000   0.00003   0.00003  -0.00000
   D22       -3.14157  -0.00000   0.00000  -0.00002  -0.00002  -3.14159
   D23       -3.14159  -0.00000   0.00000  -0.00001  -0.00001  -3.14159
   D24        0.00007  -0.00000   0.00000  -0.00006  -0.00006   0.00001
   D25        3.14157   0.00000   0.00000   0.00003   0.00003  -3.14159
   D26        0.99642   0.00053   0.00000   0.00140   0.00144   0.99787
   D27       -0.99632  -0.00054   0.00000  -0.00148  -0.00153  -0.99785
   D28       -0.00009   0.00000   0.00000   0.00008   0.00008  -0.00001
   D29       -2.14523   0.00054   0.00000   0.00146   0.00150  -2.14373
   D30        2.14521  -0.00054   0.00000  -0.00143  -0.00147   2.14374
   D31       -3.14156  -0.00000   0.00000  -0.00002  -0.00002  -3.14158
   D32        1.03632  -0.00148   0.00000  -0.01949  -0.01947   1.01685
   D33       -1.03614   0.00148   0.00000   0.01937   0.01934  -1.01680
   D34       -1.01324   0.00103   0.00000   0.01467   0.01459  -0.99865
   D35       -3.11855  -0.00045   0.00000  -0.00481  -0.00486  -3.12341
   D36        1.09218   0.00251   0.00000   0.03405   0.03395   1.12613
   D37        1.01316  -0.00103   0.00000  -0.01458  -0.01450   0.99866
   D38       -1.09215  -0.00251   0.00000  -0.03405  -0.03395  -1.12609
   D39        3.11858   0.00045   0.00000   0.00481   0.00486   3.12344
   D40       -1.03400   0.00053   0.00000   0.01105   0.01096  -1.02304
   D41        1.03406  -0.00053   0.00000  -0.01113  -0.01103   1.02303
   D42        1.08642   0.00262   0.00000   0.03291   0.03254   1.11896
   D43       -3.12871   0.00156   0.00000   0.01073   0.01055  -3.11816
   D44        3.12863  -0.00156   0.00000  -0.01069  -0.01051   3.11812
   D45       -1.08650  -0.00261   0.00000  -0.03288  -0.03250  -1.11899
         Item               Value     Threshold  Converged?
 Maximum Force            0.019591     0.000450     NO 
 RMS     Force            0.003487     0.000300     NO 
 Maximum Displacement     0.150855     0.001800     NO 
 RMS     Displacement     0.042195     0.001200     NO 
 Predicted change in Energy=-2.571048D-03
 GradGradGradGradGradGradGradGradGradGradGradGradGradGradGradGradGradGrad

                          Input orientation:                          
 ---------------------------------------------------------------------
 Center     Atomic      Atomic             Coordinates (Angstroms)
 Number     Number       Type             X           Y           Z
 ---------------------------------------------------------------------
      1         17           0       -0.468920    2.753120    1.370270
      2          6           0       -1.150844    1.358499    0.562141
      3          6           0       -2.536532    1.295187    0.410760
      4          6           0       -3.111715    0.199521   -0.227477
      5          6           0       -2.296944   -0.823033   -0.708695
      6          6           0       -0.912286   -0.746168   -0.550107
      7          6           0       -0.307697    0.342099    0.086639
      8          6           0        1.199973    0.438032    0.265897
      9          6           0        2.037812   -0.727107   -0.290087
     10          7           0        3.482800   -0.601665   -0.100239
     11          1           0       -3.155453    2.100609    0.791730
     12          1           0       -4.189260    0.149406   -0.345658
     13          1           0       -2.736603   -1.681136   -1.207640
     14          1           0       -0.294959   -1.551125   -0.930958
     15          1           0        1.415909    0.542615    1.336360
     16          1           0        1.545959    1.369127   -0.199717
     17          1           0        1.849783   -0.835781   -1.363536
     18          1           0        1.719301   -1.664913    0.177365
     19          1           0        3.819420    0.249144   -0.541730
     20          1           0        3.698257   -0.520829    0.889280
 ---------------------------------------------------------------------
                    Distance matrix (angstroms):
                    1          2          3          4          5
     1  Cl   0.000000
     2  C    1.750160   0.000000
     3  C    2.705780   1.395369   0.000000
     4  C    4.007247   2.410755   1.392359   0.000000
     5  C    4.522459   2.772662   2.407787   1.393212   0.000000
     6  C    4.016147   2.392411   2.780030   2.415762   1.395828
     7  C    2.736188   1.403592   2.445636   2.825157   2.438687
     8  C    3.060143   2.541921   3.836296   4.346372   3.842986
     9  C    4.599181   3.904302   5.050295   5.232607   4.355977
    10  N    5.388234   5.074608   6.331786   6.644224   5.815897
    11  H    2.824525   2.149859   1.084853   2.157505   3.396468
    12  H    4.854345   3.393814   2.148602   1.085165   2.158309
    13  H    5.608086   3.858256   3.393780   2.153671   1.085627
    14  H    4.883896   3.380503   3.863463   3.390245   2.141836
    15  H    2.905178   2.802375   4.128546   4.802361   4.453372
    16  H    2.905173   2.802372   4.128544   4.802361   4.453373
    17  H    5.072504   4.186510   5.189307   5.194126   4.198133
    18  H    5.072509   4.186503   5.189294   5.194105   4.198105
    19  H    5.321231   5.210827   6.511495   6.938432   6.211871
    20  H    5.321227   5.210823   6.511489   6.938427   6.211867
                    6          7          8          9         10
     6  C    0.000000
     7  C    1.398319   0.000000
     8  C    2.555353   1.521317   0.000000
     9  C    2.961596   2.605098   1.539039   0.000000
    10  N    4.420412   3.910688   2.535020   1.462795   0.000000
    11  H    3.864772   3.420413   4.691524   6.011348   7.222485
    12  H    3.403295   3.910313   5.431495   6.288703   7.712642
    13  H    2.152824   3.415878   4.707315   4.954504   6.408789
    14  H    1.083558   2.149410   2.761164   2.555688   3.982842
    15  H    3.261934   2.138417   1.097022   2.155061   2.765001
    16  H    3.261934   2.138417   1.097015   2.155060   2.765009
    17  H    2.880751   2.853967   2.167927   1.095197   2.077853
    18  H    2.880722   2.853953   2.167929   1.095190   2.077856
    19  H    4.835261   4.175713   2.747625   2.047075   1.015925
    20  H    4.835258   4.175709   2.747626   2.047080   1.015925
                   11         12         13         14         15
    11  H    0.000000
    12  H    2.483868   0.000000
    13  H    4.298198   2.490805   0.000000
    14  H    4.948257   4.289519   2.460708   0.000000
    15  H    4.860177   5.865298   5.353537   3.528675   0.000000
    16  H    4.860176   5.865301   5.353537   3.528678   1.749163
    17  H    6.190311   6.202961   4.666248   2.301903   3.062297
    18  H    6.190301   6.202935   4.666217   2.301862   2.511671
    19  H    7.338589   8.011701   6.866648   4.507835   3.064345
    20  H    7.338583   8.011693   6.866645   4.507832   2.557324
                   16         17         18         19         20
    16  H    0.000000
    17  H    2.511654   0.000000
    18  H    3.062293   1.754668   0.000000
    19  H    2.557334   2.394138   2.931076   0.000000
    20  H    3.064350   2.931080   2.394163   1.629518   0.000000
 Stoichiometry    C8H10ClN
 Framework group  C1[X(C8H10ClN)]
 Deg. of freedom    54
 Full point group                 C1      NOp   1
 Largest Abelian subgroup         C1      NOp   1
 Largest concise Abelian subgroup C1      NOp   1
                         Standard orientation:                         
 ---------------------------------------------------------------------
 Center     Atomic      Atomic             Coordinates (Angstroms)
 Number     Number       Type             X           Y           Z
 ---------------------------------------------------------------------
      1         17           0        0.872411    2.290461    0.000001
      2          6           0        1.077955    0.552413    0.000001
      3          6           0        2.376262    0.041088   -0.000002
      4          6           0        2.575268   -1.336976   -0.000001
      5          6           0        1.475023   -2.191670   -0.000000
      6          6           0        0.182004   -1.665897    0.000001
      7          6           0       -0.047333   -0.286512   -0.000001
      8          6           0       -1.451333    0.299310    0.000004
      9          6           0       -2.618847   -0.703462    0.000004
     10          7           0       -3.953828   -0.105469   -0.000008
     11          1           0        3.221148    0.721584   -0.000004
     12          1           0        3.584586   -1.735551   -0.000013
     13          1           0        1.620593   -3.267493    0.000005
     14          1           0       -0.661217   -2.346393   -0.000001
     15          1           0       -1.554062    0.953528   -0.874583
     16          1           0       -1.554060    0.953532    0.874580
     17          1           0       -2.544192   -1.354722    0.877355
     18          1           0       -2.544178   -1.354752   -0.877313
     19          1           0       -4.068410    0.490471    0.814750
     20          1           0       -4.068402    0.490470   -0.814768
 ---------------------------------------------------------------------
 Rotational constants (GHZ):           1.4985972           0.8114007           0.5312957
 Standard basis: 6-31G(d,p) (6D, 7F)
 There are   204 symmetry adapted cartesian basis functions of A   symmetry.
 There are   204 symmetry adapted basis functions of A   symmetry.
   204 basis functions,   374 primitive gaussians,   204 cartesian basis functions
    41 alpha electrons       41 beta electrons
       nuclear repulsion energy       570.2667884303 Hartrees.
 NAtoms=   20 NActive=   20 NUniq=   20 SFac= 1.00D+00 NAtFMM=   60 NAOKFM=F Big=F
 Integral buffers will be    131072 words long.
 Raffenetti 2 integral format.
 Two-electron integral symmetry is turned on.
 Nuclear repulsion after empirical dispersion term =      570.2286716994 Hartrees.
 One-electron integrals computed using PRISM.
 NBasis=   204 RedAO= T EigKep=  4.29D-04  NBF=   204
 NBsUse=   204 1.00D-06 EigRej= -1.00D+00 NBFU=   204
 Initial guess from the checkpoint file:  "N3_conf-5.chk"
 B after Tr=    -0.000000    0.000000   -0.000000
         Rot=    0.999987    0.000000    0.000000    0.005188 Ang=   0.59 deg.
 ExpMin= 1.43D-01 ExpMax= 2.52D+04 ExpMxC= 3.78D+03 IAcc=3 IRadAn=         5 AccDes= 0.00D+00
 Harris functional with IExCor=  402 and IRadAn=       5 diagonalized for initial guess.
 HarFok:  IExCor=  402 AccDes= 0.00D+00 IRadAn=         5 IDoV= 1 UseB2=F ITyADJ=14
 ICtDFT=  3500011 ScaDFX=  1.000000  1.000000  1.000000  1.000000
 FoFCou: FMM=F IPFlag=           0 FMFlag=      100000 FMFlg1=           0
         NFxFlg=           0 DoJE=T BraDBF=F KetDBF=T FulRan=T
         wScrn=  0.000000 ICntrl=       500 IOpCl=  0 I1Cent=   200000004 NGrid=           0
         NMat0=    1 NMatS0=      1 NMatT0=    0 NMatD0=    1 NMtDS0=    0 NMtDT0=    0
 Petite list used in FoFCou.
 Requested convergence on RMS density matrix=1.00D-08 within 128 cycles.
 Requested convergence on MAX density matrix=1.00D-06.
 Requested convergence on             energy=1.00D-06.
 No special actions if energy rises.
 Integral accuracy reduced to 1.0D-05 until final iterations.
 Initial convergence to 1.0D-05 achieved.  Increase integral accuracy.
 SCF Done:  E(RB3LYP) =  -825.870970772     A.U. after   12 cycles
            NFock= 12  Conv=0.45D-08     -V/T= 2.0061
 Calling FoFJK, ICntrl=      2127 FMM=F ISym2X=0 I1Cent= 0 IOpClX= 0 NMat=1 NMatS=1 NMatT=0.
 ***** Axes restored to original set *****
 -------------------------------------------------------------------
 Center     Atomic                   Forces (Hartrees/Bohr)
 Number     Number              X              Y              Z
 -------------------------------------------------------------------
      1       17           0.001860809    0.003998528    0.002308933
      2        6          -0.005591665   -0.005960369   -0.003680083
      3        6           0.000847763    0.002386952    0.001355980
      4        6           0.000883259   -0.001267788   -0.000606442
      5        6           0.000270842   -0.000166280   -0.000067043
      6        6          -0.003598748   -0.000740409   -0.000702767
      7        6           0.008226986    0.000612525    0.001024866
      8        6          -0.002164969   -0.001594689   -0.001035560
      9        6          -0.001805651    0.001116976    0.000442103
     10        7          -0.001612767   -0.002015497   -0.001221087
     11        1           0.000728254   -0.000032009    0.000044450
     12        1          -0.000004882    0.000099549    0.000052533
     13        1           0.000308937    0.000038548    0.000047272
     14        1           0.000221838    0.000091393    0.000067701
     15        1           0.000519700    0.001036049    0.000554704
     16        1           0.000514791    0.001000667    0.000624736
     17        1           0.000058339   -0.000273397   -0.000748608
     18        1          -0.000021660   -0.000780159    0.000189643
     19        1           0.000227197    0.001526875    0.000112744
     20        1           0.000131626    0.000922537    0.001235925
 -------------------------------------------------------------------
 Cartesian Forces:  Max     0.008226986 RMS     0.001960382

 GradGradGradGradGradGradGradGradGradGradGradGradGradGradGradGradGradGrad
 Berny optimization.
 Using GEDIIS/GDIIS optimizer.
 FormGI is forming the generalized inverse of G from B-inverse, IUseBI=4.
 Internal  Forces:  Max     0.004977517 RMS     0.000982538
 Search for a local minimum.
 Step number   2 out of a maximum of  108
 All quantities printed in internal units (Hartrees-Bohrs-Radians)
 Mixed Optimization -- En-DIIS/RFO-DIIS
 Update second derivatives using D2CorX and points    1    2
 DE= -2.58D-03 DEPred=-2.57D-03 R= 1.00D+00
 TightC=F SS=  1.41D+00  RLast= 1.62D-01 DXNew= 5.0454D-01 4.8624D-01
 Trust test= 1.00D+00 RLast= 1.62D-01 DXMaxT set to 4.86D-01
 ITU=  1  0
 Use linear search instead of GDIIS.
     Eigenvalues ---    0.00239   0.00317   0.01001   0.01316   0.02034
     Eigenvalues ---    0.02073   0.02094   0.02130   0.02161   0.02167
     Eigenvalues ---    0.02171   0.02177   0.03516   0.03880   0.04410
     Eigenvalues ---    0.05174   0.05417   0.09897   0.09957   0.13150
     Eigenvalues ---    0.13227   0.15667   0.16000   0.16000   0.16000
     Eigenvalues ---    0.16000   0.16040   0.20200   0.21999   0.22490
     Eigenvalues ---    0.23082   0.24573   0.24996   0.25507   0.28608
     Eigenvalues ---    0.29094   0.31329   0.34470   0.34539   0.34644
     Eigenvalues ---    0.34677   0.35906   0.35936   0.36018   0.36142
     Eigenvalues ---    0.38591   0.41737   0.42101   0.45189   0.45493
     Eigenvalues ---    0.45743   0.46106   0.46632   0.47169
 RFO step:  Lambda=-3.85137747D-04 EMin= 2.38526925D-03
 Quartic linear search produced a step of  0.05146.
 Iteration  1 RMS(Cart)=  0.00842661 RMS(Int)=  0.00003073
 Iteration  2 RMS(Cart)=  0.00003300 RMS(Int)=  0.00002085
 Iteration  3 RMS(Cart)=  0.00000000 RMS(Int)=  0.00002085
 Variable       Old X    -DE/DX   Delta X   Delta X   Delta X     New X
                                 (Linear)    (Quad)   (Total)
    R1        3.30732   0.00498   0.00187   0.01707   0.01894   3.32626
    R2        2.63687  -0.00213  -0.00001  -0.00486  -0.00487   2.63200
    R3        2.65240   0.00034  -0.00029   0.00070   0.00041   2.65281
    R4        2.63118   0.00096  -0.00011   0.00203   0.00191   2.63309
    R5        2.05008  -0.00042   0.00045  -0.00101  -0.00055   2.04952
    R6        2.63279  -0.00031   0.00001  -0.00072  -0.00072   2.63207
    R7        2.05066  -0.00001   0.00045   0.00021   0.00066   2.05132
    R8        2.63773  -0.00102   0.00008  -0.00223  -0.00215   2.63558
    R9        2.05154  -0.00018   0.00047  -0.00028   0.00018   2.05172
   R10        2.64244   0.00196  -0.00057   0.00435   0.00378   2.64622
   R11        2.04763   0.00003   0.00038   0.00029   0.00067   2.04829
   R12        2.87487  -0.00404  -0.00123  -0.01521  -0.01644   2.85843
   R13        2.90836  -0.00203  -0.00008  -0.00749  -0.00757   2.90079
   R14        2.07307   0.00074   0.00057   0.00253   0.00310   2.07617
   R15        2.07306   0.00075   0.00057   0.00255   0.00312   2.07618
   R16        2.76428  -0.00119   0.00103  -0.00276  -0.00173   2.76255
   R17        2.06962   0.00075   0.00027   0.00242   0.00269   2.07231
   R18        2.06961   0.00076   0.00028   0.00244   0.00271   2.07232
   R19        1.91982   0.00130   0.00044   0.00322   0.00366   1.92348
   R20        1.91982   0.00130   0.00045   0.00322   0.00366   1.92348
    A1        2.06370  -0.00106   0.00006  -0.00443  -0.00437   2.05933
    A2        2.09371  -0.00078  -0.00139  -0.00399  -0.00538   2.08833
    A3        2.12578   0.00184   0.00132   0.00842   0.00975   2.13553
    A4        2.08940  -0.00077  -0.00061  -0.00417  -0.00478   2.08462
    A5        2.08837  -0.00023   0.00002  -0.00206  -0.00205   2.08632
    A6        2.10542   0.00099   0.00059   0.00623   0.00683   2.11225
    A7        2.08782   0.00033  -0.00016   0.00126   0.00108   2.08891
    A8        2.09031  -0.00028  -0.00024  -0.00156  -0.00179   2.08852
    A9        2.10505  -0.00005   0.00041   0.00030   0.00071   2.10576
   A10        2.09494  -0.00017  -0.00005  -0.00088  -0.00094   2.09400
   A11        2.09675   0.00035   0.00013   0.00224   0.00238   2.09913
   A12        2.09149  -0.00018  -0.00008  -0.00137  -0.00144   2.09005
   A13        2.12175   0.00066   0.00076   0.00371   0.00448   2.12623
   A14        2.07638  -0.00008   0.00079   0.00042   0.00121   2.07759
   A15        2.08505  -0.00058  -0.00156  -0.00413  -0.00568   2.07937
   A16        2.04667  -0.00188  -0.00127  -0.00833  -0.00959   2.03708
   A17        2.10567   0.00059   0.00087   0.00284   0.00370   2.10937
   A18        2.13084   0.00128   0.00040   0.00549   0.00589   2.13673
   A19        2.03667  -0.00245   0.00002  -0.01025  -0.01021   2.02646
   A20        1.89237   0.00083   0.00094   0.00521   0.00616   1.89853
   A21        1.89238   0.00083   0.00094   0.00520   0.00615   1.89853
   A22        1.89391   0.00091  -0.00064   0.00479   0.00416   1.89808
   A23        1.89392   0.00091  -0.00064   0.00478   0.00415   1.89807
   A24        1.84540  -0.00094  -0.00068  -0.01007  -0.01077   1.83463
   A25        2.01082  -0.00216   0.00488  -0.00850  -0.00363   2.00719
   A26        1.91319   0.00078  -0.00093   0.00417   0.00323   1.91641
   A27        1.91320   0.00078  -0.00094   0.00416   0.00321   1.91641
   A28        1.88106   0.00053  -0.00129   0.00018  -0.00113   1.87993
   A29        1.88107   0.00053  -0.00130   0.00017  -0.00115   1.87993
   A30        1.85818  -0.00037  -0.00071   0.00030  -0.00046   1.85772
   A31        1.92061  -0.00033  -0.00090  -0.00632  -0.00728   1.91333
   A32        1.92062  -0.00033  -0.00090  -0.00632  -0.00729   1.91333
   A33        1.86123  -0.00034  -0.00001  -0.00980  -0.00995   1.85128
    D1        3.14159  -0.00000   0.00000  -0.00000   0.00000   3.14159
    D2        0.00000  -0.00000   0.00000   0.00000   0.00000   0.00000
    D3       -0.00000   0.00000   0.00000   0.00001   0.00001   0.00000
    D4        3.14159   0.00000   0.00000   0.00001   0.00001  -3.14159
    D5       -3.14159   0.00000  -0.00000   0.00000  -0.00000  -3.14159
    D6       -0.00001   0.00000   0.00000   0.00001   0.00001   0.00001
    D7        0.00001  -0.00000  -0.00000  -0.00001  -0.00001  -0.00000
    D8        3.14159   0.00000   0.00000   0.00001   0.00001  -3.14159
    D9        0.00000  -0.00000  -0.00000  -0.00000  -0.00001  -0.00000
   D10        3.14158   0.00000   0.00000   0.00001   0.00001  -3.14159
   D11       -3.14159  -0.00000  -0.00000  -0.00000  -0.00001   3.14159
   D12       -0.00001   0.00000   0.00000   0.00001   0.00001   0.00000
   D13       -0.00000   0.00000   0.00000   0.00000   0.00001   0.00001
   D14       -3.14159  -0.00000   0.00000  -0.00000  -0.00000  -3.14159
   D15       -3.14158  -0.00000  -0.00000  -0.00001  -0.00001   3.14159
   D16        0.00002  -0.00000  -0.00000  -0.00002  -0.00002  -0.00000
   D17        0.00000  -0.00000  -0.00000  -0.00000  -0.00001  -0.00001
   D18        3.14159   0.00000  -0.00000   0.00000   0.00000   3.14159
   D19        3.14159   0.00000  -0.00000   0.00000   0.00000   3.14159
   D20       -0.00001   0.00000   0.00000   0.00001   0.00001  -0.00000
   D21       -0.00000   0.00000   0.00000   0.00000   0.00001   0.00000
   D22       -3.14159  -0.00000  -0.00000  -0.00001  -0.00001   3.14159
   D23       -3.14159  -0.00000  -0.00000  -0.00000  -0.00000   3.14159
   D24        0.00001  -0.00000  -0.00000  -0.00001  -0.00001  -0.00001
   D25       -3.14159   0.00000   0.00000  -0.00001  -0.00001   3.14159
   D26        0.99787  -0.00012   0.00007  -0.00324  -0.00315   0.99471
   D27       -0.99785   0.00012  -0.00008   0.00320   0.00311  -0.99473
   D28       -0.00001   0.00000   0.00000   0.00000   0.00001   0.00000
   D29       -2.14373  -0.00012   0.00008  -0.00323  -0.00314  -2.14687
   D30        2.14374   0.00012  -0.00008   0.00321   0.00313   2.14686
   D31       -3.14158   0.00000  -0.00000  -0.00003  -0.00003   3.14158
   D32        1.01685   0.00023  -0.00100   0.00254   0.00155   1.01840
   D33       -1.01680  -0.00023   0.00100  -0.00262  -0.00163  -1.01843
   D34       -0.99865   0.00008   0.00075   0.00341   0.00416  -0.99449
   D35       -3.12341   0.00031  -0.00025   0.00598   0.00573  -3.11768
   D36        1.12613  -0.00015   0.00175   0.00082   0.00255   1.12868
   D37        0.99866  -0.00008  -0.00075  -0.00344  -0.00418   0.99448
   D38       -1.12609   0.00015  -0.00175  -0.00088  -0.00261  -1.12871
   D39        3.12344  -0.00031   0.00025  -0.00604  -0.00579   3.11765
   D40       -1.02304   0.00040   0.00056   0.00976   0.01029  -1.01275
   D41        1.02303  -0.00040  -0.00057  -0.00977  -0.01030   1.01273
   D42        1.11896   0.00036   0.00167   0.00951   0.01114   1.13009
   D43       -3.11816  -0.00045   0.00054  -0.01002  -0.00945  -3.12761
   D44        3.11812   0.00045  -0.00054   0.01003   0.00947   3.12759
   D45       -1.11899  -0.00035  -0.00167  -0.00950  -0.01112  -1.13011
         Item               Value     Threshold  Converged?
 Maximum Force            0.004978     0.000450     NO 
 RMS     Force            0.000983     0.000300     NO 
 Maximum Displacement     0.032147     0.001800     NO 
 RMS     Displacement     0.008431     0.001200     NO 
 Predicted change in Energy=-1.971404D-04
 GradGradGradGradGradGradGradGradGradGradGradGradGradGradGradGradGradGrad

                          Input orientation:                          
 ---------------------------------------------------------------------
 Center     Atomic      Atomic             Coordinates (Angstroms)
 Number     Number       Type             X           Y           Z
 ---------------------------------------------------------------------
      1         17           0       -0.464658    2.756473    1.372451
      2          6           0       -1.148599    1.353097    0.559432
      3          6           0       -2.532128    1.293828    0.410406
      4          6           0       -3.105732    0.196498   -0.228597
      5          6           0       -2.290625   -0.825436   -0.709464
      6          6           0       -0.907301   -0.746872   -0.550071
      7          6           0       -0.298023    0.341183    0.086963
      8          6           0        1.200538    0.440348    0.267203
      9          6           0        2.026729   -0.726824   -0.290864
     10          7           0        3.471550   -0.606239   -0.103668
     11          1           0       -3.146219    2.101725    0.793117
     12          1           0       -4.183642    0.146580   -0.346721
     13          1           0       -2.727471   -1.684829   -1.208867
     14          1           0       -0.287429   -1.550727   -0.930123
     15          1           0        1.421527    0.549349    1.337876
     16          1           0        1.551244    1.373710   -0.194213
     17          1           0        1.837473   -0.835545   -1.365544
     18          1           0        1.706877   -1.665586    0.177120
     19          1           0        3.802408    0.251708   -0.540129
     20          1           0        3.681480   -0.516841    0.888292
 ---------------------------------------------------------------------
                    Distance matrix (angstroms):
                    1          2          3          4          5
     1  Cl   0.000000
     2  C    1.760182   0.000000
     3  C    2.709112   1.392793   0.000000
     4  C    4.011496   2.406050   1.393370   0.000000
     5  C    4.527537   2.767729   2.409090   1.392832   0.000000
     6  C    4.020629   2.387278   2.779755   2.413792   1.394691
     7  C    2.741144   1.403808   2.450178   2.829088   2.442490
     8  C    3.059230   2.537115   3.831674   4.341570   3.839831
     9  C    4.594234   3.889959   5.035671   5.215223   4.338720
    10  N    5.383354   5.062063   6.318123   6.627264   5.798077
    11  H    2.820477   2.146051   1.084561   2.162274   3.399715
    12  H    4.857771   3.389437   2.148702   1.085512   2.158683
    13  H    5.613260   3.853403   3.395969   2.154855   1.085723
    14  H    4.887252   3.375290   3.863571   3.389360   2.141852
    15  H    2.903496   2.803130   4.128660   4.803583   4.456647
    16  H    2.903503   2.803134   4.128665   4.803585   4.456645
    17  H    5.069420   4.172806   5.175098   5.176199   4.179920
    18  H    5.069417   4.172811   5.175105   5.176211   4.179940
    19  H    5.304684   5.189853   6.489675   6.915381   6.189827
    20  H    5.304664   5.189844   6.489670   6.915384   6.189838
                    6          7          8          9         10
     6  C    0.000000
     7  C    1.400321   0.000000
     8  C    2.553510   1.512615   0.000000
     9  C    2.945525   2.586090   1.535031   0.000000
    10  N    4.403793   3.891482   2.527922   1.461880   0.000000
    11  H    3.864119   3.422043   4.683060   5.994588   7.206397
    12  H    3.402061   3.914587   5.427025   6.271735   7.695959
    13  H    2.150998   3.418497   4.703659   4.935881   6.388481
    14  H    1.083911   2.147999   2.758988   2.538266   3.962955
    15  H    3.266187   2.136578   1.098662   2.155848   2.759715
    16  H    3.266183   2.136576   1.098665   2.155845   2.759705
    17  H    2.864724   2.838099   2.167821   1.096619   2.077287
    18  H    2.864746   2.838111   2.167822   1.096625   2.077289
    19  H    4.814418   4.149071   2.730769   2.042718   1.017860
    20  H    4.814428   4.149070   2.730758   2.042720   1.017864
                   11         12         13         14         15
    11  H    0.000000
    12  H    2.489592   0.000000
    13  H    4.303635   2.493550   0.000000
    14  H    4.947993   4.289719   2.459570   0.000000
    15  H    4.854991   5.866687   5.356458   3.531950   0.000000
    16  H    4.854996   5.866688   5.356453   3.531942   1.744618
    17  H    6.174508   6.185176   4.645917   2.283919   3.065847
    18  H    6.174514   6.185190   4.645941   2.283952   2.516886
    19  H    7.313243   7.989084   6.843735   4.486383   3.046980
    20  H    7.313236   7.989089   6.843751   4.486401   2.538951
                   16         17         18         19         20
    16  H    0.000000
    17  H    2.516893   0.000000
    18  H    3.065848   1.756654   0.000000
    19  H    2.538954   2.392571   2.929456   0.000000
    20  H    3.046950   2.929456   2.392580   1.626554   0.000000
 Stoichiometry    C8H10ClN
 Framework group  C1[X(C8H10ClN)]
 Deg. of freedom    54
 Full point group                 C1      NOp   1
 Largest Abelian subgroup         C1      NOp   1
 Largest concise Abelian subgroup C1      NOp   1
                         Standard orientation:                         
 ---------------------------------------------------------------------
 Center     Atomic      Atomic             Coordinates (Angstroms)
 Number     Number       Type             X           Y           Z
 ---------------------------------------------------------------------
      1         17           0        0.875708    2.293593    0.000001
      2          6           0        1.076713    0.544926   -0.000000
      3          6           0        2.373184    0.035972   -0.000002
      4          6           0        2.567260   -1.343816   -0.000002
      5          6           0        1.465100   -2.195417    0.000003
      6          6           0        0.175001   -1.665506    0.000002
      7          6           0       -0.055963   -0.284363    0.000002
      8          6           0       -1.449033    0.305009   -0.000004
      9          6           0       -2.608228   -0.701266   -0.000007
     10          7           0       -3.943347   -0.105825    0.000004
     11          1           0        3.215698    0.718939    0.000000
     12          1           0        3.576147   -1.744422    0.000000
     13          1           0        1.605322   -3.272047    0.000007
     14          1           0       -0.671715   -2.342214    0.000005
     15          1           0       -1.553960    0.964655   -0.872308
     16          1           0       -1.553966    0.964647    0.872309
     17          1           0       -2.533868   -1.353651    0.878308
     18          1           0       -2.533875   -1.353631   -0.878346
     19          1           0       -4.048795    0.497069    0.813292
     20          1           0       -4.048792    0.497107   -0.813262
 ---------------------------------------------------------------------
 Rotational constants (GHZ):           1.4947744           0.8157642           0.5326679
 Standard basis: 6-31G(d,p) (6D, 7F)
 There are   204 symmetry adapted cartesian basis functions of A   symmetry.
 There are   204 symmetry adapted basis functions of A   symmetry.
   204 basis functions,   374 primitive gaussians,   204 cartesian basis functions
    41 alpha electrons       41 beta electrons
       nuclear repulsion energy       570.5660778818 Hartrees.
 NAtoms=   20 NActive=   20 NUniq=   20 SFac= 1.00D+00 NAtFMM=   60 NAOKFM=F Big=F
 Integral buffers will be    131072 words long.
 Raffenetti 2 integral format.
 Two-electron integral symmetry is turned on.
 Nuclear repulsion after empirical dispersion term =      570.5279035776 Hartrees.
 One-electron integrals computed using PRISM.
 NBasis=   204 RedAO= T EigKep=  4.27D-04  NBF=   204
 NBsUse=   204 1.00D-06 EigRej= -1.00D+00 NBFU=   204
 Initial guess from the checkpoint file:  "N3_conf-5.chk"
 B after Tr=     0.000000    0.000000    0.000000
         Rot=    1.000000   -0.000000   -0.000000    0.000825 Ang=  -0.09 deg.
 ExpMin= 1.43D-01 ExpMax= 2.52D+04 ExpMxC= 3.78D+03 IAcc=3 IRadAn=         5 AccDes= 0.00D+00
 Harris functional with IExCor=  402 and IRadAn=       5 diagonalized for initial guess.
 HarFok:  IExCor=  402 AccDes= 0.00D+00 IRadAn=         5 IDoV= 1 UseB2=F ITyADJ=14
 ICtDFT=  3500011 ScaDFX=  1.000000  1.000000  1.000000  1.000000
 FoFCou: FMM=F IPFlag=           0 FMFlag=      100000 FMFlg1=           0
         NFxFlg=           0 DoJE=T BraDBF=F KetDBF=T FulRan=T
         wScrn=  0.000000 ICntrl=       500 IOpCl=  0 I1Cent=   200000004 NGrid=           0
         NMat0=    1 NMatS0=      1 NMatT0=    0 NMatD0=    1 NMtDS0=    0 NMtDT0=    0
 Petite list used in FoFCou.
 Requested convergence on RMS density matrix=1.00D-08 within 128 cycles.
 Requested convergence on MAX density matrix=1.00D-06.
 Requested convergence on             energy=1.00D-06.
 No special actions if energy rises.
 Integral accuracy reduced to 1.0D-05 until final iterations.
 Initial convergence to 1.0D-05 achieved.  Increase integral accuracy.
 SCF Done:  E(RB3LYP) =  -825.871194217     A.U. after   11 cycles
            NFock= 11  Conv=0.29D-08     -V/T= 2.0061
 Calling FoFJK, ICntrl=      2127 FMM=F ISym2X=0 I1Cent= 0 IOpClX= 0 NMat=1 NMatS=1 NMatT=0.
 ***** Axes restored to original set *****
 -------------------------------------------------------------------
 Center     Atomic                   Forces (Hartrees/Bohr)
 Number     Number              X              Y              Z
 -------------------------------------------------------------------
      1       17           0.000484700    0.001230148    0.000702971
      2        6          -0.001650866   -0.002037609   -0.001236292
      3        6           0.000281000    0.001075613    0.000602523
      4        6          -0.000289688   -0.000378013   -0.000228638
      5        6           0.000002902    0.000058080    0.000031774
      6        6          -0.000561999   -0.000619441   -0.000381324
      7        6           0.001097534    0.000900171    0.000578468
      8        6           0.000512447   -0.000370088   -0.000158762
      9        6          -0.000532544   -0.000500713   -0.000310233
     10        7           0.000232237   -0.000106694   -0.000034606
     11        1           0.000217218   -0.000283441   -0.000133962
     12        1           0.000193726   -0.000020082    0.000005777
     13        1           0.000165458    0.000226270    0.000135882
     14        1          -0.000361860    0.000042297   -0.000007756
     15        1          -0.000033856    0.000170541   -0.000133212
     16        1          -0.000063240   -0.000014838    0.000210318
     17        1          -0.000019535   -0.000042085    0.000165924
     18        1           0.000006108    0.000118497   -0.000129341
     19        1           0.000155874    0.000246827    0.000216110
     20        1           0.000164381    0.000304561    0.000104379
 -------------------------------------------------------------------
 Cartesian Forces:  Max     0.002037609 RMS     0.000542825

 GradGradGradGradGradGradGradGradGradGradGradGradGradGradGradGradGradGrad
 Berny optimization.
 Using GEDIIS/GDIIS optimizer.
 FormGI is forming the generalized inverse of G from B-inverse, IUseBI=4.
 Internal  Forces:  Max     0.001493894 RMS     0.000312509
 Search for a local minimum.
 Step number   3 out of a maximum of  108
 All quantities printed in internal units (Hartrees-Bohrs-Radians)
 Mixed Optimization -- En-DIIS/RFO-DIIS
 Swapping is turned off.
 Update second derivatives using D2CorX and points    1    2    3
 DE= -2.23D-04 DEPred=-1.97D-04 R= 1.13D+00
 TightC=F SS=  1.41D+00  RLast= 5.09D-02 DXNew= 8.1776D-01 1.5275D-01
[...]
   XZ=     2.3067   YZ=    -4.0514   ZZ=    27.2657
   Eigenvalues:    23.9496    31.0192    32.4094
     16  H    Isotropic =    29.1261   Anisotropy =     4.9249
   XX=    31.1740   YX=     2.0258   ZX=    -0.5841
   XY=     1.9621   YY=    28.9385   ZY=     2.4815
   XZ=    -2.3068   YZ=     4.0514   ZZ=    27.2657
   Eigenvalues:    23.9496    31.0193    32.4093
     17  H    Isotropic =    28.8519   Anisotropy =     6.4563
   XX=    30.4221   YX=    -1.1292   ZX=     0.5634
   XY=    -0.8142   YY=    30.2744   ZY=    -4.5822
   XZ=    -1.9586   YZ=    -4.4121   ZZ=    25.8591
   Eigenvalues:    22.8941    30.5056    33.1561
     18  H    Isotropic =    28.8519   Anisotropy =     6.4562
   XX=    30.4221   YX=    -1.1291   ZX=    -0.5635
   XY=    -0.8141   YY=    30.2742   ZY=     4.5823
   XZ=     1.9586   YZ=     4.4122   ZZ=    25.8595
   Eigenvalues:    22.8942    30.5055    33.1560
     19  H    Isotropic =    31.5155   Anisotropy =    12.4058
   XX=    30.5244   YX=    -3.8630   ZX=    -3.3290
   XY=    -3.2583   YY=    30.0538   ZY=     6.1397
   XZ=    -2.2565   YZ=     4.6145   ZZ=    33.9682
   Eigenvalues:    25.7501    29.0103    39.7860
     20  H    Isotropic =    31.5155   Anisotropy =    12.4058
   XX=    30.5245   YX=    -3.8631   ZX=     3.3289
   XY=    -3.2584   YY=    30.0542   ZY=    -6.1399
   XZ=     2.2564   YZ=    -4.6146   ZZ=    33.9678
   Eigenvalues:    25.7501    29.0103    39.7860
 End of Minotr F.D. properties file   721 does not exist.
 End of Minotr F.D. properties file   722 does not exist.
 End of Minotr F.D. properties file   788 does not exist.

 **********************************************************************

            Population analysis using the SCF Density.

 **********************************************************************

 Orbital symmetries:
       Occupied  (A) (A) (A) (A) (A) (A) (A) (A) (A) (A) (A) (A)
                 (A) (A) (A) (A) (A) (A) (A) (A) (A) (A) (A) (A)
                 (A) (A) (A) (A) (A) (A) (A) (A) (A) (A) (A) (A)
                 (A) (A) (A) (A) (A)
       Virtual   (A) (A) (A) (A) (A) (A) (A) (A) (A) (A) (A) (A)
                 (A) (A) (A) (A) (A) (A) (A) (A) (A) (A) (A) (A)
                 (A) (A) (A) (A) (A) (A) (A) (A) (A) (A) (A) (A)
                 (A) (A) (A) (A) (A) (A) (A) (A) (A) (A) (A) (A)
                 (A) (A) (A) (A) (A) (A) (A) (A) (A) (A) (A) (A)
                 (A) (A) (A) (A) (A) (A) (A) (A) (A) (A) (A) (A)
                 (A) (A) (A) (A) (A) (A) (A) (A) (A) (A) (A) (A)
                 (A) (A) (A) (A) (A) (A) (A) (A) (A) (A) (A) (A)
                 (A) (A) (A) (A) (A) (A) (A) (A) (A) (A) (A) (A)
                 (A) (A) (A) (A) (A) (A) (A) (A) (A) (A) (A) (A)
                 (A) (A) (A) (A) (A) (A) (A) (A) (A) (A) (A) (A)
                 (A) (A) (A) (A) (A) (A) (A) (A) (A) (A) (A) (A)
                 (A) (A) (A) (A) (A) (A) (A) (A) (A) (A) (A) (A)
                 (A) (A) (A) (A) (A) (A) (A) (A) (A) (A) (A) (A)
                 (A) (A) (A) (A) (A) (A) (A) (A) (A) (A) (A) (A)
                 (A) (A) (A) (A) (A) (A) (A) (A) (A) (A) (A) (A)
                 (A) (A) (A) (A) (A) (A) (A) (A) (A) (A) (A) (A)
                 (A) (A) (A) (A) (A) (A) (A) (A) (A) (A) (A) (A)
                 (A) (A) (A) (A) (A) (A) (A) (A) (A) (A) (A) (A)
                 (A) (A) (A) (A) (A) (A) (A) (A) (A) (A) (A) (A)
                 (A) (A) (A) (A) (A) (A) (A) (A) (A) (A) (A) (A)
                 (A) (A) (A) (A) (A) (A) (A) (A) (A) (A) (A) (A)
                 (A) (A) (A) (A) (A) (A) (A) (A) (A) (A) (A) (A)
                 (A) (A) (A) (A) (A) (A) (A) (A) (A) (A) (A) (A)
                 (A) (A) (A) (A) (A) (A) (A) (A) (A) (A) (A) (A)
                 (A) (A) (A) (A) (A) (A) (A) (A) (A) (A) (A) (A)
                 (A) (A) (A) (A) (A) (A) (A) (A) (A) (A) (A) (A)
                 (A) (A) (A) (A) (A) (A) (A) (A) (A) (A) (A)
 The electronic state is 1-A.
 Alpha  occ. eigenvalues -- -102.64558 -14.73150 -10.60774 -10.56861 -10.56608
 Alpha  occ. eigenvalues --  -10.55715 -10.55379 -10.55360 -10.55176 -10.54649
 Alpha  occ. eigenvalues --   -9.80799  -7.52991  -7.52494  -7.52474  -1.00124
 Alpha  occ. eigenvalues --   -0.99095  -0.93591  -0.88645  -0.83432  -0.80471
 Alpha  occ. eigenvalues --   -0.72909  -0.68375  -0.66996  -0.59252  -0.58044
 Alpha  occ. eigenvalues --   -0.54986  -0.53255  -0.50859  -0.50776  -0.49306
 Alpha  occ. eigenvalues --   -0.48209  -0.45842  -0.44848  -0.42580  -0.41183
 Alpha  occ. eigenvalues --   -0.40974  -0.40178  -0.37591  -0.31504  -0.31485
 Alpha  occ. eigenvalues --   -0.30037
 Alpha virt. eigenvalues --    0.00887   0.01187   0.05407   0.06515   0.09029
 Alpha virt. eigenvalues --    0.10124   0.10245   0.10444   0.12305   0.13377
 Alpha virt. eigenvalues --    0.15439   0.15708   0.16479   0.17588   0.18673
 Alpha virt. eigenvalues --    0.19734   0.21169   0.21967   0.22910   0.23922
 Alpha virt. eigenvalues --    0.24804   0.26267   0.27102   0.27796   0.28237
 Alpha virt. eigenvalues --    0.28789   0.29247   0.29918   0.31775   0.32921
 Alpha virt. eigenvalues --    0.33424   0.35014   0.35696   0.36394   0.36698
 Alpha virt. eigenvalues --    0.37365   0.38863   0.40163   0.40191   0.41442
 Alpha virt. eigenvalues --    0.41958   0.42138   0.42899   0.43560   0.44931
 Alpha virt. eigenvalues --    0.45877   0.46210   0.46927   0.47302   0.47827
 Alpha virt. eigenvalues --    0.49379   0.50550   0.51223   0.52288   0.53165
 Alpha virt. eigenvalues --    0.53822   0.55629   0.55813   0.56739   0.57967
 Alpha virt. eigenvalues --    0.58024   0.59670   0.61224   0.62528   0.63645
 Alpha virt. eigenvalues --    0.64348   0.65980   0.66863   0.67983   0.69980
 Alpha virt. eigenvalues --    0.71924   0.74450   0.75263   0.76731   0.77175
 Alpha virt. eigenvalues --    0.78130   0.80241   0.80351   0.82642   0.83522
 Alpha virt. eigenvalues --    0.87608   0.87859   0.88701   0.89692   0.91529
 Alpha virt. eigenvalues --    0.92618   0.95020   0.96106   0.97533   0.98840
 Alpha virt. eigenvalues --    0.99191   1.05016   1.05348   1.06305   1.08899
 Alpha virt. eigenvalues --    1.09981   1.11172   1.15091   1.15184   1.17203
 Alpha virt. eigenvalues --    1.17812   1.19937   1.22884   1.24070   1.24457
 Alpha virt. eigenvalues --    1.27157   1.28794   1.28998   1.30614   1.32955
 Alpha virt. eigenvalues --    1.33518   1.33596   1.34790   1.37915   1.38185
 Alpha virt. eigenvalues --    1.39262   1.43208   1.44180   1.45713   1.48563
 Alpha virt. eigenvalues --    1.52354   1.53418   1.54048   1.55250   1.59029
 Alpha virt. eigenvalues --    1.59131   1.60040   1.61185   1.61807   1.64211
 Alpha virt. eigenvalues --    1.64334   1.67711   1.70108   1.70201   1.73036
 Alpha virt. eigenvalues --    1.73275   1.74638   1.75787   1.78100   1.81964
 Alpha virt. eigenvalues --    1.84504   1.84546   1.86072   1.87082   1.87317
 Alpha virt. eigenvalues --    1.89476   1.90002   1.93633   1.94998   1.95713
 Alpha virt. eigenvalues --    1.95858   1.96818   1.97006   1.97931   2.01226
 Alpha virt. eigenvalues --    2.01561   2.02172   2.04510   2.06388   2.06463
 Alpha virt. eigenvalues --    2.10670   2.11641   2.12881   2.14066   2.15109
 Alpha virt. eigenvalues --    2.17802   2.19112   2.19457   2.20596   2.23301
 Alpha virt. eigenvalues --    2.24018   2.26437   2.26768   2.28546   2.30529
 Alpha virt. eigenvalues --    2.32251   2.33128   2.33719   2.35033   2.39313
 Alpha virt. eigenvalues --    2.41635   2.42394   2.47908   2.48673   2.50145
 Alpha virt. eigenvalues --    2.50187   2.52957   2.53650   2.54852   2.56871
 Alpha virt. eigenvalues --    2.59729   2.60359   2.61453   2.62759   2.63243
 Alpha virt. eigenvalues --    2.63474   2.66362   2.67983   2.69235   2.70167
 Alpha virt. eigenvalues --    2.71357   2.72735   2.74168   2.75435   2.76990
 Alpha virt. eigenvalues --    2.78238   2.78415   2.82936   2.83468   2.84084
 Alpha virt. eigenvalues --    2.86178   2.87332   2.90232   2.90578   2.91409
 Alpha virt. eigenvalues --    2.91919   2.94639   2.95403   2.97998   2.99558
 Alpha virt. eigenvalues --    3.01075   3.02477   3.03338   3.04739   3.06408
 Alpha virt. eigenvalues --    3.06632   3.09402   3.14123   3.15383   3.16556
 Alpha virt. eigenvalues --    3.17886   3.17928   3.20274   3.22239   3.22586
 Alpha virt. eigenvalues --    3.23104   3.23238   3.24833   3.27973   3.28950
 Alpha virt. eigenvalues --    3.29216   3.32131   3.32336   3.34145   3.35004
 Alpha virt. eigenvalues --    3.36494   3.38817   3.40189   3.40926   3.41200
 Alpha virt. eigenvalues --    3.44274   3.45373   3.49265   3.50008   3.51128
 Alpha virt. eigenvalues --    3.52131   3.53167   3.55509   3.55688   3.60267
 Alpha virt. eigenvalues --    3.61432   3.65483   3.68362   3.73001   3.73448
 Alpha virt. eigenvalues --    3.75616   3.77761   3.82196   3.86210   3.87104
 Alpha virt. eigenvalues --    3.88345   3.90550   3.91445   3.94044   3.97987
 Alpha virt. eigenvalues --    3.98968   4.02308   4.04828   4.07293   4.10734
 Alpha virt. eigenvalues --    4.14400   4.15134   4.15985   4.16971   4.17575
 Alpha virt. eigenvalues --    4.19728   4.22524   4.26851   4.27174   4.29862
 Alpha virt. eigenvalues --    4.32946   4.33636   4.36652   4.39236   4.48336
 Alpha virt. eigenvalues --    4.55386   4.57595   4.60185   4.62525   4.64689
 Alpha virt. eigenvalues --    4.67053   4.69630   4.76739   4.78616   4.82316
 Alpha virt. eigenvalues --    4.83726   4.85833   4.92544   4.97222   5.00322
 Alpha virt. eigenvalues --    5.06462   5.09354   5.11688   5.14559   5.18468
 Alpha virt. eigenvalues --    5.27500   5.31446   5.36597   5.41590   5.47768
 Alpha virt. eigenvalues --    5.53773   5.74640  10.82216  10.91116  11.42295
 Alpha virt. eigenvalues --   22.04937  22.57850  22.64302  22.72109  22.77912
 Alpha virt. eigenvalues --   22.83224  22.92819  23.33298  26.01304  32.08451
          Condensed to atoms (all electrons):
               1          2          3          4          5          6
     1  Cl  16.872235   0.354224  -0.051641   0.009448  -0.002672   0.018886
     2  C    0.354224   5.103535   0.380820   0.027338  -0.084808   0.066417
     3  C   -0.051641   0.380820   5.048459   0.447628   0.006380  -0.142387
     4  C    0.009448   0.027338   0.447628   4.937416   0.475654   0.030389
     5  C   -0.002672  -0.084808   0.006380   0.475654   4.948978   0.414879
     6  C    0.018886   0.066417  -0.142387   0.030389   0.414879   5.228230
     7  C   -0.123906   0.224515   0.087715  -0.120129   0.010740   0.311130
     8  C    0.004306  -0.022755   0.009945  -0.007346   0.029015  -0.124466
     9  C    0.002457   0.004408  -0.000075  -0.000128  -0.000852  -0.013679
    10  N   -0.000005  -0.001930   0.000065   0.000011  -0.000278   0.000113
    11  H    0.003409  -0.053951   0.416859  -0.037790   0.007470  -0.004620
    12  H   -0.000363   0.006779  -0.037828   0.412731  -0.037002   0.007487
    13  H    0.000016  -0.000683   0.004961  -0.034165   0.408561  -0.032126
    14  H   -0.000079  -0.001012   0.001623   0.001253  -0.008481   0.403249
    15  H    0.003011  -0.015356   0.000633   0.000163  -0.000658   0.004707
    16  H    0.003011  -0.015356   0.000633   0.000163  -0.000658   0.004707
    17  H   -0.000038  -0.001422   0.000021  -0.000031  -0.000707  -0.000913
    18  H   -0.000038  -0.001422   0.000021  -0.000031  -0.000707  -0.000914
    19  H   -0.000025  -0.000047   0.000007  -0.000001  -0.000009  -0.000103
    20  H   -0.000025  -0.000047   0.000007  -0.000001  -0.000009  -0.000103
               7          8          9         10         11         12
     1  Cl  -0.123906   0.004306   0.002457  -0.000005   0.003409  -0.000363
     2  C    0.224515  -0.022755   0.004408  -0.001930  -0.053951   0.006779
     3  C    0.087715   0.009945  -0.000075   0.000065   0.416859  -0.037828
     4  C   -0.120129  -0.007346  -0.000128   0.000011  -0.037790   0.412731
     5  C    0.010740   0.029015  -0.000852  -0.000278   0.007470  -0.037002
     6  C    0.311130  -0.124466  -0.013679   0.000113  -0.004620   0.007487
     7  C    5.607869  -0.054699  -0.034804   0.040498   0.018642  -0.001226
     8  C   -0.054699   5.714163   0.256211  -0.108732   0.000131   0.000035
     9  C   -0.034804   0.256211   5.079154   0.274082   0.000007   0.000004
    10  N    0.040498  -0.108732   0.274082   6.591690   0.000000   0.000000
    11  H    0.018642   0.000131   0.000007   0.000000   0.496928  -0.004204
    12  H   -0.001226   0.000035   0.000004   0.000000  -0.004204   0.510739
    13  H    0.006520  -0.000127   0.000069  -0.000001  -0.000185  -0.003797
    14  H   -0.038084  -0.006592   0.000142   0.000743   0.000053  -0.000282
    15  H   -0.021136   0.393521  -0.040504   0.005594  -0.000005   0.000001
    16  H   -0.021135   0.393521  -0.040504   0.005594  -0.000005   0.000001
    17  H    0.012921  -0.075802   0.425338  -0.025884   0.000000   0.000001
    18  H    0.012922  -0.075802   0.425339  -0.025883   0.000000   0.000001
    19  H    0.001651   0.000024  -0.068667   0.383049   0.000000   0.000000
    20  H    0.001652   0.000023  -0.068666   0.383049   0.000000   0.000000
              13         14         15         16         17         18
     1  Cl   0.000016  -0.000079   0.003011   0.003011  -0.000038  -0.000038
     2  C   -0.000683  -0.001012  -0.015356  -0.015356  -0.001422  -0.001422
     3  C    0.004961   0.001623   0.000633   0.000633   0.000021   0.000021
     4  C   -0.034165   0.001253   0.000163   0.000163  -0.000031  -0.000031
     5  C    0.408561  -0.008481  -0.000658  -0.000658  -0.000707  -0.000707
     6  C   -0.032126   0.403249   0.004707   0.004707  -0.000913  -0.000914
     7  C    0.006520  -0.038084  -0.021136  -0.021135   0.012921   0.012922
     8  C   -0.000127  -0.006592   0.393521   0.393521  -0.075802  -0.075802
     9  C    0.000069   0.000142  -0.040504  -0.040504   0.425338   0.425339
    10  N   -0.000001   0.000743   0.005594   0.005594  -0.025884  -0.025883
    11  H   -0.000185   0.000053  -0.000005  -0.000005   0.000000   0.000000
    12  H   -0.003797  -0.000282   0.000001   0.000001   0.000001   0.000001
    13  H    0.507276  -0.002947   0.000010   0.000010   0.000018   0.000018
    14  H   -0.002947   0.489292   0.000040   0.000040  -0.003325  -0.003325
    15  H    0.000010   0.000040   0.551888  -0.043312   0.008820  -0.007614
    16  H    0.000010   0.000040  -0.043312   0.551888  -0.007614   0.008820
    17  H    0.000018  -0.003325   0.008820  -0.007614   0.551769  -0.037745
    18  H    0.000018  -0.003325  -0.007614   0.008820  -0.037745   0.551766
    19  H    0.000000  -0.000066  -0.000437   0.006042  -0.008738   0.009792
    20  H    0.000000  -0.000066   0.006042  -0.000437   0.009792  -0.008738
              19         20
     1  Cl  -0.000025  -0.000025
     2  C   -0.000047  -0.000047
     3  C    0.000007   0.000007
     4  C   -0.000001  -0.000001
     5  C   -0.000009  -0.000009
     6  C   -0.000103  -0.000103
     7  C    0.001651   0.001652
     8  C    0.000024   0.000023
     9  C   -0.068667  -0.068666
    10  N    0.383049   0.383049
    11  H    0.000000   0.000000
    12  H    0.000000   0.000000
    13  H    0.000000   0.000000
    14  H   -0.000066  -0.000066
    15  H   -0.000437   0.006042
    16  H    0.006042  -0.000437
    17  H   -0.008738   0.009792
    18  H    0.009792  -0.008738
    19  H    0.492551  -0.038078
    20  H   -0.038078   0.492551
 Mulliken charges:
               1
     1  Cl  -0.092212
     2  C    0.030754
     3  C   -0.173849
     4  C   -0.142574
     5  C   -0.164838
     6  C   -0.170885
     7  C    0.078345
     8  C   -0.324576
     9  C   -0.199334
    10  N   -0.521776
    11  H    0.157259
    12  H    0.146926
    13  H    0.146572
    14  H    0.167822
    15  H    0.154592
    16  H    0.154591
    17  H    0.153538
    18  H    0.153540
    19  H    0.223053
    20  H    0.223053
 Sum of Mulliken charges =  -0.00000
 Mulliken charges with hydrogens summed into heavy atoms:
               1
     1  Cl  -0.092212
     2  C    0.030754
     3  C   -0.016590
     4  C    0.004352
     5  C   -0.018266
     6  C   -0.003063
     7  C    0.078345
     8  C   -0.015393
     9  C    0.107744
    10  N   -0.075670
 Electronic spatial extent (au):  <R**2>=           2034.6045
 Charge=              0.0000 electrons
 Dipole moment (field-independent basis, Debye):
    X=              0.7053    Y=             -0.5626    Z=              0.0000  Tot=              0.9022
 Quadrupole moment (field-independent basis, Debye-Ang):
   XX=            -68.5153   YY=            -65.6289   ZZ=            -68.5593
   XY=             -7.1756   XZ=             -0.0001   YZ=             -0.0000
 Traceless Quadrupole moment (field-independent basis, Debye-Ang):
   XX=             -0.9475   YY=              1.9390   ZZ=             -0.9915
   XY=             -7.1756   XZ=             -0.0001   YZ=             -0.0000
 Octapole moment (field-independent basis, Debye-Ang**2):
  XXX=             60.1589  YYY=             -3.4727  ZZZ=              0.0001  XYY=             -0.0822
  XXY=             25.5367  XXZ=              0.0003  XZZ=            -14.9925  YZZ=              8.0780
  YYZ=             -0.0000  XYZ=              0.0001
 Hexadecapole moment (field-independent basis, Debye-Ang**3):
 XXXX=          -1912.7226 YYYY=           -853.4433 ZZZZ=            -95.3364 XXXY=           -133.5810
 XXXZ=             -0.0014 YYYX=            -13.5299 YYYZ=             -0.0002 ZZZX=             -0.0004
 ZZZY=              0.0001 XXYY=           -426.5239 XXZZ=           -291.0721 YYZZ=           -175.9736
 XXYZ=             -0.0002 YYXZ=              0.0001 ZZXY=              3.9606
 N-N= 5.703416090280D+02 E-N=-3.083534722681D+03  KE= 8.233516735352D+02
 Unable to Open any file for archive entry.
 1\1\GINC-NOTCH231\SP\RM062X\def2TZVP\C8H10Cl1N1\U6032257\21-Feb-2022\0
 \\# M062X/def2tzvp int=(grid=ultrafine) nmr=giao guess=read geom=check
 \\N3.xyz\\0,1\Cl,0,-0.4614966511,2.7554551586,1.3721753386\C,0,-1.1486
 421428,1.349038933,0.5572449849\C,0,-2.5317345938,1.2951205913,0.41113
 26595\C,0,-3.1082737941,0.1986305401,-0.227669764\C,0,-2.2947578628,-0
 .8240426125,-0.7090634024\C,0,-0.9111886561,-0.7492509303,-0.551679270
 8\C,0,-0.2971035694,0.3376510994,0.0851432294\C,0,1.2012995714,0.43534
 33307,0.2645715843\C,0,2.0303515779,-0.7299035859,-0.2922118663\N,0,3.
 4750472021,-0.6005606204,-0.1003166805\H,0,-3.1423063226,2.1043069037,
 0.7948380144\H,0,-4.1860411015,0.150109312,-0.3450277945\H,0,-2.732973
 316,-1.682416776,-1.2080311574\H,0,-0.2955602486,-1.5554222699,-0.9333
 346377\H,0,1.4216812864,0.5463909598,1.3350713626\H,0,1.5512366261,1.3
 697355757,-0.1951297627\H,0,1.8439957855,-0.8399451986,-1.3670084649\H
 ,0,1.7134464868,-1.669693035,0.1751136253\H,0,3.8008880151,0.261273093
 9,-0.5338266521\H,0,3.6801317075,-0.5062204688,0.8926086527\\Version=E
 S64L-G16RevC.01\State=1-A\HF=-825.7936225\RMSD=1.552e-09\Dipole=-0.327
 4173,-0.1072316,-0.0854263\Quadrupole=2.3119892,-1.7111035,-0.6008857,
 4.350229,2.5988357,-0.1557171\PG=C01 [X(C8H10Cl1N1)]\\@
 The archive entry for this job was punched.


 TERENCE, THIS IS STUPID STUFF:
 YOU EAT YOUR VICTUALS FAST ENOUGH;
 THERE CAN'T BE MUCH AMISS, 'TIS CLEAR
 TO SEE THE RATE YOU DRINK YOUR BEER.
 BUT OH, GOOD LORD, THE VERSE YOU MAKE,
 IT GIVES A CHAP THE BELLY-ACHE.
 THE COW, THE OLD COW, SHE IS DEAD;
 IT SLEEPS WELL, THE HORNED HEAD:
 WE POOR LADS, 'TIS OUR TURN NOW
 TO HEAR SUCH TUNES AS KILLED THE COW.
 PRETTY FRIENDSHIP 'TIS TO RHYME
 YOUR FRIENDS TO DEATH BEFORE THEIR TIME.
 MOPING, MELANCHOLY MAD:
 COME PIPE A TUNE TO DANCE TO, LAD.

     -- A. E. HOUSMAN
 Job cpu time:       0 days  0 hours 22 minutes 60.0 seconds.
 Elapsed time:       0 days  0 hours  0 minutes 25.4 seconds.
 File lengths (MBytes):  RWF=     83 Int=      0 D2E=      0 Chk=     14 Scr=      1
 Normal termination of Gaussian 16 at Mon Feb 21 19:28:49 2022.
