 Entering Gaussian System, Link 0=/uufs/chpc.utah.edu/sys/installdir/gaussian16/C01/AVX2/g16/g16
 Input=N3_conf-2.com
 Output=N3_conf-2.log
 Initial command:
 /uufs/chpc.utah.edu/sys/installdir/gaussian16/C01/AVX2/g16/l1.exe "/scratch/local/u6032257/4038675/notchpeak.peaks/Gau-105188.inp" -scrdir="/scratch/local/u6032257/4038675/notchpeak.peaks/"
 Entering Link 1 = /uufs/chpc.utah.edu/sys/installdir/gaussian16/C01/AVX2/g16/l1.exe PID=    105190.
  
 Copyright (c) 1988-2019, Gaussian, Inc.  All Rights Reserved.
  
 This is part of the Gaussian(R) 16 program.  It is based on
 the Gaussian(R) 09 system (copyright 2009, Gaussian, Inc.),
 the Gaussian(R) 03 system (copyright 2003, Gaussian, Inc.),
 the Gaussian(R) 98 system (copyright 1998, Gaussian, Inc.),
 the Gaussian(R) 94 system (copyright 1995, Gaussian, Inc.),
 the Gaussian 92(TM) system (copyright 1992, Gaussian, Inc.),
 the Gaussian 90(TM) system (copyright 1990, Gaussian, Inc.),
 the Gaussian 88(TM) system (copyright 1988, Gaussian, Inc.),
 the Gaussian 86(TM) system (copyright 1986, Carnegie Mellon
 University), and the Gaussian 82(TM) system (copyright 1983,
 Carnegie Mellon University). Gaussian is a federally registered
 trademark of Gaussian, Inc.
  
 This software contains proprietary and confidential information,
 including trade secrets, belonging to Gaussian, Inc.
  
 This software is provided under written license and may be
 used, copied, transmitted, or stored only in accord with that
 written license.
  
 The following legend is applicable only to US Government
 contracts under FAR:
  
                    RESTRICTED RIGHTS LEGEND
  
 Use, reproduction and disclosure by the US Government is
 subject to restrictions as set forth in subparagraphs (a)
 and (c) of the Commercial Computer Software - Restricted
 Rights clause in FAR 52.227-19.
  
 Gaussian, Inc.
 340 Quinnipiac St., Bldg. 40, Wallingford CT 06492
  
  
 ---------------------------------------------------------------
 Warning -- This program may not be used in any manner that
 competes with the business of Gaussian, Inc. or will provide
 assistance to any competitor of Gaussian, Inc.  The licensee
 of this program is prohibited from giving any competitor of
 Gaussian, Inc. access to this program.  By using this program,
 the user acknowledges that Gaussian, Inc. is engaged in the
 business of creating and licensing software in the field of
 computational chemistry and represents and warrants to the
 licensee that it is not a competitor of Gaussian, Inc. and that
 it will not use this program in any manner prohibited above.
 ---------------------------------------------------------------
  

 Cite this work as:
 Gaussian 16, Revision C.01,
 M. J. Frisch, G. W. Trucks, H. B. Schlegel, G. E. Scuseria, 
 M. A. Robb, J. R. Cheeseman, G. Scalmani, V. Barone, 
 G. A. Petersson, H. Nakatsuji, X. Li, M. Caricato, A. V. Marenich, 
 J. Bloino, B. G. Janesko, R. Gomperts, B. Mennucci, H. P. Hratchian, 
 J. V. Ortiz, A. F. Izmaylov, J. L. Sonnenberg, D. Williams-Young, 
 F. Ding, F. Lipparini, F. Egidi, J. Goings, B. Peng, A. Petrone, 
 T. Henderson, D. Ranasinghe, V. G. Zakrzewski, J. Gao, N. Rega, 
 G. Zheng, W. Liang, M. Hada, M. Ehara, K. Toyota, R. Fukuda, 
 J. Hasegawa, M. Ishida, T. Nakajima, Y. Honda, O. Kitao, H. Nakai, 
 T. Vreven, K. Throssell, J. A. Montgomery, Jr., J. E. Peralta, 
 F. Ogliaro, M. J. Bearpark, J. J. Heyd, E. N. Brothers, K. N. Kudin, 
 V. N. Staroverov, T. A. Keith, R. Kobayashi, J. Normand, 
 K. Raghavachari, A. P. Rendell, J. C. Burant, S. S. Iyengar, 
 J. Tomasi, M. Cossi, J. M. Millam, M. Klene, C. Adamo, R. Cammi, 
 J. W. Ochterski, R. L. Martin, K. Morokuma, O. Farkas, 
 J. B. Foresman, and D. J. Fox, Gaussian, Inc., Wallingford CT, 2019.
 
 ******************************************
 Gaussian 16:  ES64L-G16RevC.01  3-Jul-2019
                21-Feb-2022 
 ******************************************
 %NProcShared=64
 Will use up to   64 processors via shared memory.
 %mem=16GB
 %chk=N3_conf-2.chk
 ----------------------------------------------------------------------
 # B3LYP/6-31G(d,p) empiricaldispersion=GD3BJ int=(grid=ultrafine) opt 
 freq=noraman
 ----------------------------------------------------------------------
 1/18=20,19=15,26=4,38=1/1,3;
 2/9=110,12=2,17=6,18=5,40=1/2;
 3/5=1,6=6,7=101,11=2,25=1,30=1,71=1,74=-5,75=-5,124=41/1,2,3;
 4//1;
 5/5=2,38=5/2;
 6/7=2,8=2,9=2,10=2,28=1/1;
 7//1,2,3,16;
 1/18=20,19=15,26=4/3(2);
 2/9=110/2;
 99//99;
 2/9=110/2;
 3/5=1,6=6,7=101,11=2,25=1,30=1,71=1,74=-5,75=-5,124=41/1,2,3;
 4/5=5,16=3,69=1/1;
 5/5=2,38=5/2;
 7//1,2,3,16;
 1/18=20,19=15,26=4/3(-5);
 2/9=110/2;
 6/7=2,8=2,9=2,10=2,19=2,28=1/1;
 99/9=1/99;
 ------
 N3.xyz
 ------
 Symbolic Z-matrix:
 Charge =  0 Multiplicity = 1
 Cl                   -0.0668    2.546     1.1507 
 C                    -0.9711    1.2308    0.4821 
 C                    -2.3104    1.446     0.1534 
 C                    -3.078     0.4163   -0.3904 
 C                    -2.5056   -0.836    -0.6084 
 C                    -1.1677   -1.0579   -0.2819 
 C                    -0.3899   -0.0309    0.2662 
 C                     1.0706   -0.3086    0.6084 
 C                     2.0331    0.1837   -0.4807 
 N                     3.3971   -0.1212   -0.0849 
 H                    -2.7519    2.4172    0.3222 
 H                    -4.1142    0.5903   -0.6425 
 H                    -3.0976   -1.6354   -1.031 
 H                    -0.7342   -2.0322   -0.4586 
 H                     1.211    -1.3794    0.7655 
 H                     1.3042    0.1491    1.5704 
 H                     1.9188    1.2584   -0.6397 
 H                     1.808    -0.3058   -1.431 
 H                     3.6425    0.3986    0.7474 
 H                     4.0461    0.1767   -0.8012 
 

 GradGradGradGradGradGradGradGradGradGradGradGradGradGradGradGradGradGrad
 Berny optimization.
 Initialization pass.
                           ----------------------------
                           !    Initial Parameters    !
                           ! (Angstroms and Degrees)  !
 --------------------------                            --------------------------
 ! Name  Definition              Value          Derivative Info.                !
 --------------------------------------------------------------------------------
 ! R1    R(1,2)                  1.7305         estimate D2E/DX2                !
 ! R2    R(2,3)                  1.3957         estimate D2E/DX2                !
 ! R3    R(2,7)                  1.4058         estimate D2E/DX2                !
 ! R4    R(3,4)                  1.3947         estimate D2E/DX2                !
 ! R5    R(3,11)                 1.0801         estimate D2E/DX2                !
 ! R6    R(4,5)                  1.3941         estimate D2E/DX2                !
 ! R7    R(4,12)                 1.0805         estimate D2E/DX2                !
 ! R8    R(5,6)                  1.3949         estimate D2E/DX2                !
 ! R9    R(5,13)                 1.0808         estimate D2E/DX2                !
 ! R10   R(6,7)                  1.4            estimate D2E/DX2                !
 ! R11   R(6,14)                 1.0809         estimate D2E/DX2                !
 ! R12   R(7,8)                  1.5255         estimate D2E/DX2                !
 ! R13   R(8,9)                  1.5346         estimate D2E/DX2                !
 ! R14   R(8,15)                 1.0913         estimate D2E/DX2                !
 ! R15   R(8,16)                 1.0906         estimate D2E/DX2                !
 ! R16   R(9,10)                 1.4526         estimate D2E/DX2                !
 ! R17   R(9,17)                 1.0924         estimate D2E/DX2                !
 ! R18   R(9,18)                 1.0924         estimate D2E/DX2                !
 ! R19   R(10,19)                1.0115         estimate D2E/DX2                !
 ! R20   R(10,20)                1.0114         estimate D2E/DX2                !
 ! A1    A(1,2,3)              118.3757         estimate D2E/DX2                !
 ! A2    A(1,2,7)              121.6955         estimate D2E/DX2                !
 ! A3    A(3,2,7)              119.9287         estimate D2E/DX2                !
 ! A4    A(2,3,4)              120.4046         estimate D2E/DX2                !
 ! A5    A(2,3,11)             119.6076         estimate D2E/DX2                !
 ! A6    A(4,3,11)             119.9878         estimate D2E/DX2                !
 ! A7    A(3,4,5)              119.8813         estimate D2E/DX2                !
 ! A8    A(3,4,12)             119.9913         estimate D2E/DX2                !
 ! A9    A(5,4,12)             120.1274         estimate D2E/DX2                !
 ! A10   A(4,5,6)              120.0072         estimate D2E/DX2                !
 ! A11   A(4,5,13)             120.0444         estimate D2E/DX2                !
 ! A12   A(6,5,13)             119.9483         estimate D2E/DX2                !
 ! A13   A(5,6,7)              120.5164         estimate D2E/DX2                !
 ! A14   A(5,6,14)             119.3255         estimate D2E/DX2                !
 ! A15   A(7,6,14)             120.1578         estimate D2E/DX2                !
 ! A16   A(2,7,6)              119.2615         estimate D2E/DX2                !
 ! A17   A(2,7,8)              121.6498         estimate D2E/DX2                !
 ! A18   A(6,7,8)              119.0881         estimate D2E/DX2                !
 ! A19   A(7,8,9)              112.5119         estimate D2E/DX2                !
 ! A20   A(7,8,15)             109.5157         estimate D2E/DX2                !
 ! A21   A(7,8,16)             109.0575         estimate D2E/DX2                !
 ! A22   A(9,8,15)             109.6482         estimate D2E/DX2                !
 ! A23   A(9,8,16)             110.9179         estimate D2E/DX2                !
 ! A24   A(15,8,16)            104.9062         estimate D2E/DX2                !
 ! A25   A(8,9,10)             109.1616         estimate D2E/DX2                !
 ! A26   A(8,9,17)             110.6883         estimate D2E/DX2                !
 ! A27   A(8,9,18)             110.1448         estimate D2E/DX2                !
 ! A28   A(10,9,17)            110.1454         estimate D2E/DX2                !
 ! A29   A(10,9,18)            109.6615         estimate D2E/DX2                !
 ! A30   A(17,9,18)            107.0171         estimate D2E/DX2                !
 ! A31   A(9,10,19)            110.1296         estimate D2E/DX2                !
 ! A32   A(9,10,20)            110.3481         estimate D2E/DX2                !
 ! A33   A(19,10,20)           106.0037         estimate D2E/DX2                !
 ! D1    D(1,2,3,4)            179.8781         estimate D2E/DX2                !
 ! D2    D(1,2,3,11)            -0.1029         estimate D2E/DX2                !
 ! D3    D(7,2,3,4)             -0.0682         estimate D2E/DX2                !
 ! D4    D(7,2,3,11)           179.9508         estimate D2E/DX2                !
 ! D5    D(1,2,7,6)           -179.7857         estimate D2E/DX2                !
 ! D6    D(1,2,7,8)             -0.0679         estimate D2E/DX2                !
 ! D7    D(3,2,7,6)              0.1588         estimate D2E/DX2                !
 ! D8    D(3,2,7,8)            179.8765         estimate D2E/DX2                !
 ! D9    D(2,3,4,5)             -0.036          estimate D2E/DX2                !
 ! D10   D(2,3,4,12)          -179.9943         estimate D2E/DX2                !
 ! D11   D(11,3,4,5)           179.9449         estimate D2E/DX2                !
 ! D12   D(11,3,4,12)           -0.0134         estimate D2E/DX2                !
 ! D13   D(3,4,5,6)              0.0481         estimate D2E/DX2                !
 ! D14   D(3,4,5,13)          -179.911          estimate D2E/DX2                !
 ! D15   D(12,4,5,6)          -179.9937         estimate D2E/DX2                !
 ! D16   D(12,4,5,13)            0.0472         estimate D2E/DX2                !
 ! D17   D(4,5,6,7)              0.0445         estimate D2E/DX2                !
 ! D18   D(4,5,6,14)          -179.7987         estimate D2E/DX2                !
 ! D19   D(13,5,6,7)          -179.9963         estimate D2E/DX2                !
 ! D20   D(13,5,6,14)            0.1604         estimate D2E/DX2                !
 ! D21   D(5,6,7,2)             -0.1474         estimate D2E/DX2                !
 ! D22   D(5,6,7,8)           -179.8725         estimate D2E/DX2                !
 ! D23   D(14,6,7,2)           179.6945         estimate D2E/DX2                !
 ! D24   D(14,6,7,8)            -0.0306         estimate D2E/DX2                !
 ! D25   D(2,7,8,9)            -81.1842         estimate D2E/DX2                !
 ! D26   D(2,7,8,15)           156.6034         estimate D2E/DX2                !
 ! D27   D(2,7,8,16)            42.3245         estimate D2E/DX2                !
 ! D28   D(6,7,8,9)             98.534          estimate D2E/DX2                !
 ! D29   D(6,7,8,15)           -23.6784         estimate D2E/DX2                !
 ! D30   D(6,7,8,16)          -137.9572         estimate D2E/DX2                !
 ! D31   D(7,8,9,10)          -179.7628         estimate D2E/DX2                !
 ! D32   D(7,8,9,17)            58.8407         estimate D2E/DX2                !
 ! D33   D(7,8,9,18)           -59.3068         estimate D2E/DX2                !
 ! D34   D(15,8,9,10)          -57.6253         estimate D2E/DX2                !
 ! D35   D(15,8,9,17)         -179.0218         estimate D2E/DX2                !
 ! D36   D(15,8,9,18)           62.8306         estimate D2E/DX2                !
 ! D37   D(16,8,9,10)           57.7711         estimate D2E/DX2                !
 ! D38   D(16,8,9,17)          -63.6255         estimate D2E/DX2                !
 ! D39   D(16,8,9,18)          178.227          estimate D2E/DX2                !
 ! D40   D(8,9,10,19)          -64.6367         estimate D2E/DX2                !
 ! D41   D(8,9,10,20)          178.6764         estimate D2E/DX2                !
 ! D42   D(17,9,10,19)          57.0888         estimate D2E/DX2                !
 ! D43   D(17,9,10,20)         -59.5981         estimate D2E/DX2                !
 ! D44   D(18,9,10,19)         174.6115         estimate D2E/DX2                !
 ! D45   D(18,9,10,20)          57.9246         estimate D2E/DX2                !
 --------------------------------------------------------------------------------
 Trust Radius=3.00D-01 FncErr=1.00D-07 GrdErr=1.00D-06 EigMax=2.50D+02 EigMin=1.00D-04
 Number of steps in this run=    108 maximum allowed number of steps=    120.
 GradGradGradGradGradGradGradGradGradGradGradGradGradGradGradGradGradGrad

                          Input orientation:                          
 ---------------------------------------------------------------------
 Center     Atomic      Atomic             Coordinates (Angstroms)
 Number     Number       Type             X           Y           Z
 ---------------------------------------------------------------------
      1         17           0       -0.066800    2.546000    1.150700
      2          6           0       -0.971100    1.230800    0.482100
      3          6           0       -2.310400    1.446000    0.153400
      4          6           0       -3.078000    0.416300   -0.390400
      5          6           0       -2.505600   -0.836000   -0.608400
      6          6           0       -1.167700   -1.057900   -0.281900
      7          6           0       -0.389900   -0.030900    0.266200
      8          6           0        1.070600   -0.308600    0.608400
      9          6           0        2.033100    0.183700   -0.480700
     10          7           0        3.397100   -0.121200   -0.084900
     11          1           0       -2.751900    2.417200    0.322200
     12          1           0       -4.114200    0.590300   -0.642500
     13          1           0       -3.097600   -1.635400   -1.031000
     14          1           0       -0.734200   -2.032200   -0.458600
     15          1           0        1.211000   -1.379400    0.765500
     16          1           0        1.304200    0.149100    1.570400
     17          1           0        1.918800    1.258400   -0.639700
     18          1           0        1.808000   -0.305800   -1.431000
     19          1           0        3.642500    0.398600    0.747400
     20          1           0        4.046100    0.176700   -0.801200
 ---------------------------------------------------------------------
                    Distance matrix (angstroms):
                    1          2          3          4          5
     1  Cl   0.000000
     2  C    1.730473   0.000000
     3  C    2.690418   1.395736   0.000000
     4  C    3.997241   2.421507   1.394708   0.000000
     5  C    4.525495   2.795629   2.413704   1.394066   0.000000
     6  C    4.031429   2.420846   2.786533   2.415426   1.394926
     7  C    2.743565   1.405807   2.425341   2.803033   2.426788
     8  C    3.120338   2.560126   3.836249   4.328275   3.814179
     9  C    3.556896   3.323946   4.567437   5.117187   4.653589
    10  N    4.543046   4.607664   5.923551   6.504549   5.968824
    11  H    2.812964   2.145778   1.080113   2.148893   3.392638
    12  H    4.839605   3.399124   2.149273   1.080528   2.150137
    13  H    5.606217   3.876413   3.393746   2.149471   1.080784
    14  H    4.898488   3.404146   3.867406   3.390163   2.142707
    15  H    4.146072   3.413945   4.556074   4.791259   3.999500
    16  H    2.793012   2.744351   4.093308   4.808306   4.498018
    17  H    2.967499   3.100116   4.307010   5.073391   4.895182
    18  H    4.279347   3.707356   4.747667   5.047502   4.423226
    19  H    4.304984   4.695556   6.073459   6.816159   6.415728
    20  H    5.132197   5.284911   6.551906   7.139956   6.632308
                    6          7          8          9         10
     6  C    0.000000
     7  C    1.400041   0.000000
     8  C    2.522711   1.525542   0.000000
     9  C    3.438926   2.544571   1.534570   0.000000
    10  N    4.664077   3.804313   2.434828   1.452624   0.000000
    11  H    3.866645   3.402260   4.703552   5.341292   6.664789
    12  H    3.395358   3.883560   5.408782   6.162856   7.565499
    13  H    2.149226   3.404231   4.671394   5.471383   6.735654
    14  H    1.080928   2.156172   2.714146   3.545229   4.567189
    15  H    2.618897   2.151891   1.091332   2.161514   2.661819
    16  H    3.316346   2.145533   1.090643   2.177040   2.682035
    17  H    3.875532   2.795182   2.175474   1.092394   2.096776
    18  H    3.277328   2.790488   2.168621   1.092406   2.090766
    19  H    5.130192   4.083659   2.670978   2.035824   1.011502
    20  H    5.383086   4.567334   3.328076   2.038367   1.011450
                   11         12         13         14         15
    11  H    0.000000
    12  H    2.474686   0.000000
    13  H    4.286517   2.477529   0.000000
    14  H    4.947517   4.282024   2.463890   0.000000
    15  H    5.505930   5.849781   4.675145   2.389220   0.000000
    16  H    4.811884   5.869467   5.415493   3.609707   1.729989
    17  H    4.907495   6.069881   5.804435   4.230751   3.071410
    18  H    5.592953   6.041290   5.098308   3.223166   2.516672
    19  H    6.718920   7.882574   7.261461   5.149634   3.012276
    20  H    7.245321   8.172316   7.373531   5.277109   3.593576
                   16         17         18         19         20
    16  H    0.000000
    17  H    2.548102   0.000000
    18  H    3.077198   1.756461   0.000000
    19  H    2.491431   2.373698   2.933768   0.000000
    20  H    3.625364   2.391979   2.374562   1.615641   0.000000
 Stoichiometry    C8H10ClN
 Framework group  C1[X(C8H10ClN)]
 Deg. of freedom    54
 Full point group                 C1      NOp   1
 Largest Abelian subgroup         C1      NOp   1
 Largest concise Abelian subgroup C1      NOp   1
                         Standard orientation:                         
 ---------------------------------------------------------------------
 Center     Atomic      Atomic             Coordinates (Angstroms)
 Number     Number       Type             X           Y           Z
 ---------------------------------------------------------------------
      1         17           0        0.120073    2.177739    0.105415
      2          6           0       -0.761698    0.689567    0.056815
      3          6           0       -2.121766    0.734241   -0.253509
      4          6           0       -2.872537   -0.439942   -0.306868
      5          6           0       -2.262385   -1.666729   -0.049713
      6          6           0       -0.903555   -1.718453    0.261290
      7          6           0       -0.142304   -0.544880    0.319078
      8          6           0        1.341781   -0.639539    0.659389
      9          6           0        2.234500   -0.597110   -0.588071
     10          7           0        3.625721   -0.697474   -0.182423
     11          1           0       -2.592559    1.685595   -0.453322
     12          1           0       -3.924996   -0.397611   -0.547865
     13          1           0       -2.841346   -2.578394   -0.091750
     14          1           0       -0.440982   -2.675903    0.455512
     15          1           0        1.530528   -1.559949    1.214568
     16          1           0        1.600489    0.163244    1.350845
     17          1           0        2.071570    0.326612   -1.147998
     18          1           0        1.986036   -1.424386   -1.256823
     19          1           0        3.887966    0.111700    0.364934
     20          1           0        4.229801   -0.693083   -0.993656
 ---------------------------------------------------------------------
 Rotational constants (GHZ):           1.6170882           0.8467338           0.5844285
 Standard basis: 6-31G(d,p) (6D, 7F)
 There are   204 symmetry adapted cartesian basis functions of A   symmetry.
 There are   204 symmetry adapted basis functions of A   symmetry.
   204 basis functions,   374 primitive gaussians,   204 cartesian basis functions
    41 alpha electrons       41 beta electrons
       nuclear repulsion energy       577.9741396126 Hartrees.
 NAtoms=   20 NActive=   20 NUniq=   20 SFac= 1.00D+00 NAtFMM=   60 NAOKFM=F Big=F
 Integral buffers will be    131072 words long.
 Raffenetti 2 integral format.
 Two-electron integral symmetry is turned on.
 Nuclear repulsion after empirical dispersion term =      577.9356871998 Hartrees.
 One-electron integrals computed using PRISM.
 NBasis=   204 RedAO= T EigKep=  4.45D-04  NBF=   204
 NBsUse=   204 1.00D-06 EigRej= -1.00D+00 NBFU=   204
 ExpMin= 1.43D-01 ExpMax= 2.52D+04 ExpMxC= 3.78D+03 IAcc=3 IRadAn=         5 AccDes= 0.00D+00
 Harris functional with IExCor=  402 and IRadAn=       5 diagonalized for initial guess.
 HarFok:  IExCor=  402 AccDes= 0.00D+00 IRadAn=         5 IDoV= 1 UseB2=F ITyADJ=14
 ICtDFT=  3500011 ScaDFX=  1.000000  1.000000  1.000000  1.000000
 FoFCou: FMM=F IPFlag=           0 FMFlag=      100000 FMFlg1=           0
         NFxFlg=           0 DoJE=T BraDBF=F KetDBF=T FulRan=T
         wScrn=  0.000000 ICntrl=       500 IOpCl=  0 I1Cent=   200000004 NGrid=           0
         NMat0=    1 NMatS0=      1 NMatT0=    0 NMatD0=    1 NMtDS0=    0 NMtDT0=    0
 Petite list used in FoFCou.
 Requested convergence on RMS density matrix=1.00D-08 within 128 cycles.
 Requested convergence on MAX density matrix=1.00D-06.
 Requested convergence on             energy=1.00D-06.
 No special actions if energy rises.
 Integral accuracy reduced to 1.0D-05 until final iterations.
 Initial convergence to 1.0D-05 achieved.  Increase integral accuracy.
 SCF Done:  E(RB3LYP) =  -825.869926828     A.U. after   14 cycles
            NFock= 14  Conv=0.47D-08     -V/T= 2.0060

 **********************************************************************

            Population analysis using the SCF Density.

 **********************************************************************

 Orbital symmetries:
       Occupied  (A) (A) (A) (A) (A) (A) (A) (A) (A) (A) (A) (A)
                 (A) (A) (A) (A) (A) (A) (A) (A) (A) (A) (A) (A)
                 (A) (A) (A) (A) (A) (A) (A) (A) (A) (A) (A) (A)
                 (A) (A) (A) (A) (A)
       Virtual   (A) (A) (A) (A) (A) (A) (A) (A) (A) (A) (A) (A)
                 (A) (A) (A) (A) (A) (A) (A) (A) (A) (A) (A) (A)
                 (A) (A) (A) (A) (A) (A) (A) (A) (A) (A) (A) (A)
                 (A) (A) (A) (A) (A) (A) (A) (A) (A) (A) (A) (A)
                 (A) (A) (A) (A) (A) (A) (A) (A) (A) (A) (A) (A)
                 (A) (A) (A) (A) (A) (A) (A) (A) (A) (A) (A) (A)
                 (A) (A) (A) (A) (A) (A) (A) (A) (A) (A) (A) (A)
                 (A) (A) (A) (A) (A) (A) (A) (A) (A) (A) (A) (A)
                 (A) (A) (A) (A) (A) (A) (A) (A) (A) (A) (A) (A)
                 (A) (A) (A) (A) (A) (A) (A) (A) (A) (A) (A) (A)
                 (A) (A) (A) (A) (A) (A) (A) (A) (A) (A) (A) (A)
                 (A) (A) (A) (A) (A) (A) (A) (A) (A) (A) (A) (A)
                 (A) (A) (A) (A) (A) (A) (A) (A) (A) (A) (A) (A)
                 (A) (A) (A) (A) (A) (A) (A)
 The electronic state is 1-A.
 Alpha  occ. eigenvalues -- -101.54993 -14.30541 -10.24786 -10.20704 -10.20453
 Alpha  occ. eigenvalues --  -10.19952 -10.19635 -10.19556 -10.19426 -10.18556
 Alpha  occ. eigenvalues --   -9.46648  -7.23029  -7.22083  -7.22045  -0.89530
 Alpha  occ. eigenvalues --   -0.87916  -0.83613  -0.77907  -0.73544  -0.70538
 Alpha  occ. eigenvalues --   -0.62205  -0.60780  -0.58032  -0.51388  -0.48825
 Alpha  occ. eigenvalues --   -0.47491  -0.46143  -0.44611  -0.43027  -0.42600
 Alpha  occ. eigenvalues --   -0.39977  -0.39169  -0.37094  -0.35898  -0.34521
 Alpha  occ. eigenvalues --   -0.34303  -0.33131  -0.31041  -0.25309  -0.24111
 Alpha  occ. eigenvalues --   -0.22712
 Alpha virt. eigenvalues --   -0.00985  -0.00720   0.04033   0.08770   0.10762
 Alpha virt. eigenvalues --    0.12682   0.13223   0.14892   0.15135   0.16549
 Alpha virt. eigenvalues --    0.17766   0.18157   0.19006   0.19716   0.23916
 Alpha virt. eigenvalues --    0.24476   0.27103   0.28588   0.30133   0.31177
 Alpha virt. eigenvalues --    0.33079   0.40204   0.41303   0.45167   0.46258
 Alpha virt. eigenvalues --    0.47105   0.51339   0.52421   0.52987   0.54674
 Alpha virt. eigenvalues --    0.56166   0.57019   0.58372   0.60156   0.60467
 Alpha virt. eigenvalues --    0.60705   0.61526   0.63156   0.64391   0.66756
 Alpha virt. eigenvalues --    0.68035   0.70349   0.72719   0.73809   0.74972
 Alpha virt. eigenvalues --    0.75978   0.80239   0.81037   0.81407   0.81939
 Alpha virt. eigenvalues --    0.83079   0.84722   0.86417   0.87585   0.89130
 Alpha virt. eigenvalues --    0.89478   0.90180   0.92950   0.94694   0.95713
 Alpha virt. eigenvalues --    0.96676   0.97141   0.97916   1.02212   1.03253
 Alpha virt. eigenvalues --    1.06161   1.09822   1.11018   1.12249   1.17227
 Alpha virt. eigenvalues --    1.20027   1.24637   1.29808   1.30719   1.33749
 Alpha virt. eigenvalues --    1.36689   1.38100   1.40469   1.41148   1.42312
 Alpha virt. eigenvalues --    1.46911   1.50352   1.53197   1.54677   1.64228
 Alpha virt. eigenvalues --    1.74855   1.75751   1.76626   1.79169   1.82432
 Alpha virt. eigenvalues --    1.83426   1.85976   1.87945   1.88086   1.92443
 Alpha virt. eigenvalues --    1.94273   1.98012   1.98827   1.99342   1.99779
 Alpha virt. eigenvalues --    2.04254   2.06992   2.08697   2.10010   2.11431
 Alpha virt. eigenvalues --    2.19548   2.19776   2.24884   2.25855   2.28308
 Alpha virt. eigenvalues --    2.29528   2.30857   2.32378   2.33362   2.37679
 Alpha virt. eigenvalues --    2.38428   2.38838   2.42857   2.44567   2.46699
 Alpha virt. eigenvalues --    2.49041   2.50854   2.52549   2.54861   2.56854
 Alpha virt. eigenvalues --    2.60426   2.62073   2.63626   2.66515   2.70010
 Alpha virt. eigenvalues --    2.73736   2.74143   2.76571   2.81696   2.83162
 Alpha virt. eigenvalues --    2.86831   2.89201   2.95272   2.98564   2.99364
 Alpha virt. eigenvalues --    3.05225   3.19523   3.24490   3.26801   3.30836
 Alpha virt. eigenvalues --    3.31551   3.32443   3.35981   3.43513   3.47128
 Alpha virt. eigenvalues --    3.53019   3.57442   3.83385   4.00723   4.08912
 Alpha virt. eigenvalues --    4.13735   4.16966   4.30295   4.34520   4.42021
 Alpha virt. eigenvalues --    4.47577   4.67087   4.80518
          Condensed to atoms (all electrons):
               1          2          3          4          5          6
     1  Cl  16.920433   0.235450  -0.077625   0.004657   0.000265   0.004493
     2  C    0.235450   5.110011   0.509404  -0.039778  -0.042912  -0.040932
     3  C   -0.077625   0.509404   4.868519   0.538641  -0.028335  -0.046302
     4  C    0.004657  -0.039778   0.538641   4.798440   0.546620  -0.038046
     5  C    0.000265  -0.042912  -0.028335   0.546620   4.830226   0.516785
     6  C    0.004493  -0.040932  -0.046302  -0.038046   0.516785   4.880110
     7  C   -0.075930   0.496931  -0.028023  -0.032399  -0.026125   0.547546
     8  C   -0.004316  -0.057570   0.005709   0.000261   0.006777  -0.048411
     9  C   -0.003448  -0.004103  -0.000127   0.000035  -0.000148  -0.003171
    10  N   -0.000118   0.000101   0.000002  -0.000000   0.000001  -0.000001
    11  H   -0.000571  -0.041206   0.369577  -0.036116   0.004575   0.000838
    12  H   -0.000185   0.004931  -0.040814   0.371252  -0.041002   0.004652
    13  H    0.000014   0.001001   0.004713  -0.041297   0.365422  -0.037127
    14  H   -0.000148   0.005922   0.000426   0.004676  -0.044153   0.369993
    15  H    0.000312   0.005498  -0.000155  -0.000002   0.000269  -0.007720
    16  H    0.005472  -0.009701   0.000103   0.000012  -0.000261   0.003162
    17  H    0.003878   0.001839  -0.000154  -0.000001   0.000010   0.000042
    18  H    0.000131  -0.000170   0.000003  -0.000011  -0.000091   0.002810
    19  H    0.000109   0.000011   0.000000  -0.000000  -0.000000   0.000002
    20  H   -0.000002  -0.000003  -0.000000   0.000000  -0.000000  -0.000001
               7          8          9         10         11         12
     1  Cl  -0.075930  -0.004316  -0.003448  -0.000118  -0.000571  -0.000185
     2  C    0.496931  -0.057570  -0.004103   0.000101  -0.041206   0.004931
     3  C   -0.028023   0.005709  -0.000127   0.000002   0.369577  -0.040814
     4  C   -0.032399   0.000261   0.000035  -0.000000  -0.036116   0.371252
     5  C   -0.026125   0.006777  -0.000148   0.000001   0.004575  -0.041002
     6  C    0.547546  -0.048411  -0.003171  -0.000001   0.000838   0.004652
     7  C    4.788276   0.331434  -0.033064   0.003574   0.003499   0.000701
     8  C    0.331434   5.061145   0.354519  -0.053120  -0.000161   0.000006
     9  C   -0.033064   0.354519   4.809805   0.289238  -0.000002   0.000000
    10  N    0.003574  -0.053120   0.289238   6.776646  -0.000000  -0.000000
    11  H    0.003499  -0.000161  -0.000002  -0.000000   0.602649  -0.006471
    12  H    0.000701   0.000006   0.000000  -0.000000  -0.006471   0.621238
    13  H    0.004198  -0.000179   0.000000  -0.000000  -0.000188  -0.006037
    14  H   -0.040419  -0.010686   0.000363  -0.000023   0.000016  -0.000209
    15  H   -0.027363   0.365381  -0.033018   0.005260   0.000002  -0.000000
    16  H   -0.027149   0.374992  -0.037742  -0.003433   0.000000  -0.000000
    17  H    0.003047  -0.054180   0.391540  -0.050493   0.000002   0.000000
    18  H   -0.003291  -0.029351   0.382030  -0.039370   0.000000  -0.000000
    19  H   -0.000221  -0.005817  -0.039371   0.341392   0.000000   0.000000
    20  H   -0.000276   0.006147  -0.032904   0.337162   0.000000  -0.000000
              13         14         15         16         17         18
     1  Cl   0.000014  -0.000148   0.000312   0.005472   0.003878   0.000131
     2  C    0.001001   0.005922   0.005498  -0.009701   0.001839  -0.000170
     3  C    0.004713   0.000426  -0.000155   0.000103  -0.000154   0.000003
     4  C   -0.041297   0.004676  -0.000002   0.000012  -0.000001  -0.000011
     5  C    0.365422  -0.044153   0.000269  -0.000261   0.000010  -0.000091
     6  C   -0.037127   0.369993  -0.007720   0.003162   0.000042   0.002810
     7  C    0.004198  -0.040419  -0.027363  -0.027149   0.003047  -0.003291
     8  C   -0.000179  -0.010686   0.365381   0.374992  -0.054180  -0.029351
     9  C    0.000000   0.000363  -0.033018  -0.037742   0.391540   0.382030
    10  N   -0.000000  -0.000023   0.005260  -0.003433  -0.050493  -0.039370
    11  H   -0.000188   0.000016   0.000002   0.000000   0.000002   0.000000
    12  H   -0.006037  -0.000209  -0.000000  -0.000000   0.000000  -0.000000
    13  H    0.626323  -0.005762  -0.000009   0.000003  -0.000000   0.000001
    14  H   -0.005762   0.621718   0.005172   0.000158   0.000021   0.000334
    15  H   -0.000009   0.005172   0.614037  -0.039478   0.006619  -0.007470
    16  H    0.000003   0.000158  -0.039478   0.617638  -0.007462   0.005858
    17  H   -0.000000   0.000021   0.006619  -0.007462   0.670583  -0.050236
    18  H    0.000001   0.000334  -0.007470   0.005858  -0.050236   0.632457
    19  H    0.000000   0.000000  -0.000827   0.005406  -0.006014   0.006873
    20  H    0.000000   0.000001  -0.000083  -0.000013  -0.003231  -0.004181
              19         20
     1  Cl   0.000109  -0.000002
     2  C    0.000011  -0.000003
     3  C    0.000000  -0.000000
     4  C   -0.000000   0.000000
     5  C   -0.000000  -0.000000
     6  C    0.000002  -0.000001
     7  C   -0.000221  -0.000276
     8  C   -0.005817   0.006147
     9  C   -0.039371  -0.032904
    10  N    0.341392   0.337162
    11  H    0.000000   0.000000
    12  H    0.000000  -0.000000
    13  H    0.000000   0.000000
    14  H    0.000000   0.000001
    15  H   -0.000827  -0.000083
    16  H    0.005406  -0.000013
    17  H   -0.006014  -0.003231
    18  H    0.006873  -0.004181
    19  H    0.496706  -0.034584
    20  H   -0.034584   0.497665
 Mulliken charges:
               1
     1  Cl  -0.012872
     2  C   -0.134724
     3  C   -0.075559
     4  C   -0.076943
     5  C   -0.087923
     6  C   -0.108724
     7  C    0.115053
     8  C   -0.242580
     9  C   -0.040435
    10  N   -0.606818
    11  H    0.103555
    12  H    0.091939
    13  H    0.088923
    14  H    0.092600
    15  H    0.113575
    16  H    0.112435
    17  H    0.094189
    18  H    0.103672
    19  H    0.236336
    20  H    0.234301
 Sum of Mulliken charges =  -0.00000
 Mulliken charges with hydrogens summed into heavy atoms:
               1
     1  Cl  -0.012872
     2  C   -0.134724
     3  C    0.027997
     4  C    0.014996
     5  C    0.000999
     6  C   -0.016124
     7  C    0.115053
     8  C   -0.016570
     9  C    0.157427
    10  N   -0.136181
 Electronic spatial extent (au):  <R**2>=           1908.7578
 Charge=             -0.0000 electrons
 Dipole moment (field-independent basis, Debye):
    X=             -0.5064    Y=             -0.3293    Z=             -0.7363  Tot=              0.9524
 Quadrupole moment (field-independent basis, Debye-Ang):
   XX=            -59.5808   YY=            -66.0182   ZZ=            -67.1125
   XY=              4.9213   XZ=             -1.5271   YZ=              0.4297
 Traceless Quadrupole moment (field-independent basis, Debye-Ang):
   XX=              4.6564   YY=             -1.7810   ZZ=             -2.8753
   XY=              4.9213   XZ=             -1.5271   YZ=              0.4297
 Octapole moment (field-independent basis, Debye-Ang**2):
  XXX=              2.6719  YYY=              0.1111  ZZZ=             -0.8902  XYY=             -8.0149
  XXY=             21.5590  XXZ=            -18.6907  XZZ=             12.9641  YZZ=              2.8374
  YYZ=             -0.6313  XYZ=              5.4721
 Hexadecapole moment (field-independent basis, Debye-Ang**3):
 XXXX=          -1452.8989 YYYY=           -748.6545 ZZZZ=           -142.0151 XXXY=             79.9931
 XXXZ=            -41.4093 YYYX=             23.8824 YYYZ=             -2.4861 ZZZX=             -8.3644
 ZZZY=              3.3856 XXYY=           -403.8267 XXZZ=           -280.5518 YYZZ=           -156.9381
 XXYZ=             20.0652 YYXZ=             -2.0122 ZZXY=             -7.7877
 N-N= 5.779356871998D+02 E-N=-3.096794575427D+03  KE= 8.209794084507D+02
 Calling FoFJK, ICntrl=      2127 FMM=F ISym2X=0 I1Cent= 0 IOpClX= 0 NMat=1 NMatS=1 NMatT=0.
 ***** Axes restored to original set *****
 -------------------------------------------------------------------
 Center     Atomic                   Forces (Hartrees/Bohr)
 Number     Number              X              Y              Z
 -------------------------------------------------------------------
      1       17           0.007505918    0.008441584    0.005330443
      2        6          -0.013723792   -0.017459623   -0.010310356
      3        6          -0.001894416    0.000224189   -0.000598210
      4        6           0.005501210   -0.001300116    0.001215487
      5        6           0.001751156    0.001072370    0.000319706
      6        6          -0.009175273    0.009734130   -0.000399230
      7        6           0.017704740   -0.002940593    0.006127447
      8        6          -0.012392382    0.001023077   -0.004079267
      9        6           0.002661656    0.004721023    0.007285952
     10        7           0.007357386   -0.012735138   -0.000713917
     11        1          -0.000693750    0.003164342    0.000836214
     12        1          -0.002978019    0.001438483   -0.000350237
     13        1          -0.001857901   -0.002564266   -0.001237342
     14        1           0.003661637   -0.001877620    0.000929509
     15        1           0.000958603   -0.002270880   -0.003676776
     16        1           0.003123817    0.005105196    0.000948128
     17        1          -0.009721472    0.005141901   -0.001666532
     18        1          -0.000411698   -0.002905443   -0.000622222
     19        1          -0.000174153    0.003101249    0.004125948
     20        1           0.002796733    0.000886134   -0.003464745
 -------------------------------------------------------------------
 Cartesian Forces:  Max     0.017704740 RMS     0.005908274

 GradGradGradGradGradGradGradGradGradGradGradGradGradGradGradGradGradGrad
 Berny optimization.
 FormGI is forming the generalized inverse of G from B-inverse, IUseBI=4.
 Internal  Forces:  Max     0.012397527 RMS     0.003073591
 Search for a local minimum.
 Step number   1 out of a maximum of  108
 All quantities printed in internal units (Hartrees-Bohrs-Radians)
 Mixed Optimization -- RFO/linear search
 Second derivative matrix not updated -- first step.
 ITU=  0
     Eigenvalues ---    0.00309   0.00428   0.00996   0.01399   0.02055
     Eigenvalues ---    0.02081   0.02121   0.02137   0.02152   0.02160
     Eigenvalues ---    0.02161   0.02164   0.03932   0.04474   0.04510
     Eigenvalues ---    0.05269   0.05477   0.09011   0.09389   0.12525
     Eigenvalues ---    0.12854   0.16000   0.16000   0.16000   0.16000
     Eigenvalues ---    0.16000   0.16000   0.21865   0.21874   0.22000
     Eigenvalues ---    0.22490   0.24480   0.25000   0.25000   0.29005
     Eigenvalues ---    0.29839   0.32459   0.34536   0.34537   0.34659
     Eigenvalues ---    0.34738   0.35882   0.35900   0.35931   0.35981
     Eigenvalues ---    0.37903   0.41733   0.42007   0.45359   0.45722
     Eigenvalues ---    0.45731   0.46045   0.46398   0.46542
 RFO step:  Lambda=-4.83394594D-03 EMin= 3.08655868D-03
 Linear search not attempted -- first point.
 Iteration  1 RMS(Cart)=  0.03545294 RMS(Int)=  0.00088128
 Iteration  2 RMS(Cart)=  0.00090362 RMS(Int)=  0.00031162
 Iteration  3 RMS(Cart)=  0.00000172 RMS(Int)=  0.00031162
 Iteration  4 RMS(Cart)=  0.00000000 RMS(Int)=  0.00031162
 Variable       Old X    -DE/DX   Delta X   Delta X   Delta X     New X
                                 (Linear)    (Quad)   (Total)
    R1        3.27012   0.01240   0.00000   0.03763   0.03763   3.30775
    R2        2.63756   0.00037   0.00000   0.00095   0.00096   2.63852
    R3        2.65659  -0.00264   0.00000  -0.00599  -0.00596   2.65063
    R4        2.63562  -0.00209   0.00000  -0.00415  -0.00417   2.63145
    R5        2.04112   0.00326   0.00000   0.00894   0.00894   2.05006
    R6        2.63440  -0.00029   0.00000  -0.00047  -0.00051   2.63390
    R7        2.04190   0.00317   0.00000   0.00870   0.00870   2.05061
    R8        2.63603   0.00005   0.00000  -0.00004  -0.00005   2.63597
    R9        2.04239   0.00340   0.00000   0.00934   0.00934   2.05173
   R10        2.64569  -0.00113   0.00000  -0.00276  -0.00274   2.64295
   R11        2.04266   0.00301   0.00000   0.00827   0.00827   2.05093
   R12        2.88286  -0.00635   0.00000  -0.02093  -0.02093   2.86192
   R13        2.89992  -0.00251   0.00000  -0.00852  -0.00852   2.89140
   R14        2.06232   0.00182   0.00000   0.00518   0.00518   2.06750
   R15        2.06102   0.00365   0.00000   0.01036   0.01036   2.07137
   R16        2.74506   0.01119   0.00000   0.02916   0.02916   2.77422
   R17        2.06433   0.00632   0.00000   0.01804   0.01804   2.08237
   R18        2.06435   0.00193   0.00000   0.00550   0.00550   2.06985
   R19        1.91146   0.00495   0.00000   0.01071   0.01071   1.92217
   R20        1.91136   0.00451   0.00000   0.00976   0.00976   1.92112
    A1        2.06605  -0.00099   0.00000  -0.00383  -0.00389   2.06215
    A2        2.12399  -0.00568   0.00000  -0.02226  -0.02232   2.10167
    A3        2.09315   0.00667   0.00000   0.02611   0.02615   2.11930
    A4        2.10146  -0.00244   0.00000  -0.00996  -0.00996   2.09150
    A5        2.08755   0.00045   0.00000   0.00033   0.00033   2.08787
    A6        2.09418   0.00199   0.00000   0.00963   0.00963   2.10381
    A7        2.09232  -0.00054   0.00000  -0.00151  -0.00156   2.09077
    A8        2.09424  -0.00076   0.00000  -0.00547  -0.00545   2.08880
    A9        2.09662   0.00129   0.00000   0.00698   0.00700   2.10362
   A10        2.09452  -0.00095   0.00000  -0.00433  -0.00437   2.09015
   A11        2.09517   0.00052   0.00000   0.00240   0.00242   2.09759
   A12        2.09349   0.00044   0.00000   0.00193   0.00194   2.09544
   A13        2.10341   0.00464   0.00000   0.01957   0.01959   2.12300
   A14        2.08262   0.00067   0.00000   0.00837   0.00836   2.09098
   A15        2.09715  -0.00531   0.00000  -0.02793  -0.02794   2.06920
   A16        2.08151  -0.00737   0.00000  -0.02989  -0.02987   2.05164
   A17        2.12319   0.00307   0.00000   0.01249   0.01239   2.13558
   A18        2.07848   0.00430   0.00000   0.01731   0.01720   2.09568
   A19        1.96370   0.00220   0.00000   0.00409   0.00413   1.96783
   A20        1.91141   0.00002   0.00000   0.00345   0.00335   1.91476
   A21        1.90341   0.00103   0.00000   0.01259   0.01252   1.91593
   A22        1.91372  -0.00251   0.00000  -0.02274  -0.02278   1.89094
   A23        1.93588  -0.00349   0.00000  -0.02880  -0.02882   1.90706
   A24        1.83096   0.00279   0.00000   0.03369   0.03333   1.86429
   A25        1.90523   0.00238   0.00000   0.01424   0.01368   1.91890
   A26        1.93187  -0.00561   0.00000  -0.03149  -0.03328   1.89859
   A27        1.92239  -0.00140   0.00000  -0.03392  -0.03455   1.88784
   A28        1.92240   0.00668   0.00000   0.08587   0.08614   2.00854
   A29        1.91395  -0.00266   0.00000  -0.02840  -0.02827   1.88568
   A30        1.86780   0.00056   0.00000  -0.00686  -0.00767   1.86013
   A31        1.92212  -0.00239   0.00000  -0.01505  -0.01505   1.90707
   A32        1.92594   0.00030   0.00000   0.00126   0.00126   1.92719
   A33        1.85011   0.00091   0.00000   0.00440   0.00438   1.85450
    D1        3.13946   0.00023   0.00000   0.00840   0.00850  -3.13523
    D2       -0.00180   0.00017   0.00000   0.00654   0.00660   0.00481
    D3       -0.00119  -0.00010   0.00000  -0.00464  -0.00463  -0.00582
    D4        3.14073  -0.00015   0.00000  -0.00650  -0.00652   3.13422
    D5       -3.13785  -0.00031   0.00000  -0.00948  -0.00952   3.13581
    D6       -0.00119  -0.00069   0.00000  -0.03062  -0.03043  -0.03161
    D7        0.00277   0.00003   0.00000   0.00401   0.00391   0.00668
    D8        3.13944  -0.00035   0.00000  -0.01713  -0.01700   3.12244
    D9       -0.00063   0.00005   0.00000   0.00158   0.00156   0.00094
   D10       -3.14149  -0.00004   0.00000  -0.00123  -0.00127   3.14042
   D11        3.14063   0.00011   0.00000   0.00344   0.00347  -3.13908
   D12       -0.00023   0.00002   0.00000   0.00063   0.00064   0.00041
   D13        0.00084   0.00004   0.00000   0.00202   0.00196   0.00280
   D14       -3.14004  -0.00010   0.00000  -0.00309  -0.00314   3.14000
   D15       -3.14148   0.00013   0.00000   0.00483   0.00481  -3.13667
   D16        0.00082  -0.00001   0.00000  -0.00028  -0.00029   0.00053
   D17        0.00078  -0.00009   0.00000  -0.00256  -0.00259  -0.00181
   D18       -3.13808  -0.00013   0.00000  -0.00451  -0.00452   3.14058
   D19       -3.14153   0.00005   0.00000   0.00255   0.00251  -3.13902
   D20        0.00280   0.00001   0.00000   0.00060   0.00058   0.00338
   D21       -0.00257   0.00006   0.00000  -0.00042  -0.00028  -0.00286
   D22       -3.13937   0.00043   0.00000   0.02018   0.02013  -3.11923
   D23        3.13626   0.00011   0.00000   0.00161   0.00168   3.13794
   D24       -0.00053   0.00048   0.00000   0.02221   0.02210   0.02156
   D25       -1.41693   0.00016   0.00000  -0.01287  -0.01271  -1.42964
   D26        2.73325   0.00185   0.00000   0.01095   0.01120   2.74445
   D27        0.73870  -0.00205   0.00000  -0.03786  -0.03781   0.70090
   D28        1.71974  -0.00025   0.00000  -0.03411  -0.03426   1.68548
   D29       -0.41327   0.00144   0.00000  -0.01029  -0.01035  -0.42361
   D30       -2.40781  -0.00246   0.00000  -0.05909  -0.05935  -2.46716
   D31       -3.13745   0.00310   0.00000   0.03912   0.03880  -3.09865
   D32        1.02696  -0.00320   0.00000  -0.05699  -0.05636   0.97060
   D33       -1.03510   0.00046   0.00000  -0.00788  -0.00820  -1.04330
   D34       -1.00575   0.00284   0.00000   0.03010   0.02975  -0.97600
   D35       -3.12452  -0.00346   0.00000  -0.06601  -0.06542   3.09325
   D36        1.09660   0.00020   0.00000  -0.01690  -0.01725   1.07935
   D37        1.00830   0.00274   0.00000   0.04099   0.04071   1.04901
   D38       -1.11047  -0.00356   0.00000  -0.05513  -0.05445  -1.16493
   D39        3.11065   0.00010   0.00000  -0.00601  -0.00629   3.10436
   D40       -1.12812  -0.00044   0.00000  -0.03560  -0.03628  -1.16440
   D41        3.11849  -0.00030   0.00000  -0.03270  -0.03340   3.08510
   D42        0.99639  -0.00161   0.00000  -0.01089  -0.01003   0.98636
   D43       -1.04018  -0.00147   0.00000  -0.00800  -0.00714  -1.04733
   D44        3.04755   0.00143   0.00000   0.01471   0.01454   3.06209
   D45        1.01098   0.00158   0.00000   0.01760   0.01743   1.02840
         Item               Value     Threshold  Converged?
 Maximum Force            0.012398     0.000450     NO 
 RMS     Force            0.003074     0.000300     NO 
 Maximum Displacement     0.144717     0.001800     NO 
 RMS     Displacement     0.035440     0.001200     NO 
 Predicted change in Energy=-2.520095D-03
 GradGradGradGradGradGradGradGradGradGradGradGradGradGradGradGradGradGrad

                          Input orientation:                          
 ---------------------------------------------------------------------
 Center     Atomic      Atomic             Coordinates (Angstroms)
 Number     Number       Type             X           Y           Z
 ---------------------------------------------------------------------
      1         17           0       -0.085476    2.535445    1.211024
      2          6           0       -0.988881    1.217993    0.495455
      3          6           0       -2.323878    1.443497    0.154231
      4          6           0       -3.077462    0.417519   -0.410160
      5          6           0       -2.494745   -0.829357   -0.630197
      6          6           0       -1.161267   -1.041810   -0.280287
      7          6           0       -0.381959   -0.029602    0.289074
      8          6           0        1.070699   -0.290436    0.628706
      9          6           0        2.028965    0.188920   -0.463557
     10          7           0        3.411167   -0.145800   -0.099322
     11          1           0       -2.765840    2.417979    0.332952
     12          1           0       -4.115081    0.595211   -0.673386
     13          1           0       -3.076857   -1.634238   -1.068507
     14          1           0       -0.707021   -2.012690   -0.450414
     15          1           0        1.227831   -1.362790    0.778260
     16          1           0        1.324679    0.202196    1.574378
     17          1           0        1.842219    1.257870   -0.655249
     18          1           0        1.784142   -0.342093   -1.389737
     19          1           0        3.683757    0.396192    0.717115
     20          1           0        4.049007    0.121693   -0.844379
 ---------------------------------------------------------------------
                    Distance matrix (angstroms):
                    1          2          3          4          5
     1  Cl   0.000000
     2  C    1.750388   0.000000
     3  C    2.705476   1.396246   0.000000
     4  C    4.008220   2.413104   1.392501   0.000000
     5  C    4.529521   2.779634   2.410475   1.393799   0.000000
     6  C    4.022199   2.395455   2.777989   2.412118   1.394897
     7  C    2.741780   1.402655   2.441158   2.820386   2.438961
     8  C    3.108285   2.556361   3.841198   4.334476   3.819380
     9  C    3.575089   3.329578   4.571965   5.111820   4.639893
    10  N    4.597020   4.644794   5.956584   6.520449   5.968992
    11  H    2.822970   2.150339   1.084844   2.156655   3.397990
    12  H    4.853166   3.395169   2.147778   1.085134   2.157950
    13  H    5.615236   3.865339   3.396251   2.154792   1.085727
    14  H    4.881826   3.378081   3.863296   3.395074   2.151408
    15  H    4.136218   3.413830   4.569387   4.808055   4.015704
    16  H    2.750384   2.747449   4.107263   4.833591   4.529045
    17  H    2.971730   3.056278   4.248068   4.996951   4.813149
    18  H    4.305770   3.698307   4.737932   5.017148   4.373008
    19  H    4.362049   4.749530   6.124162   6.854581   6.441359
    20  H    5.210070   5.327039   6.584683   7.145811   6.615970
                    6          7          8          9         10
     6  C    0.000000
     7  C    1.398591   0.000000
     8  C    2.524381   1.514464   0.000000
     9  C    3.424304   2.535106   1.530063   0.000000
    10  N    4.662910   3.814729   2.455348   1.468055   0.000000
    11  H    3.862752   3.416938   4.705530   5.347269   6.701883
    12  H    3.399909   3.905498   5.419606   6.161039   7.584395
    13  H    2.154472   3.417654   4.678521   5.455208   6.726754
    14  H    1.085307   2.141295   2.700175   3.511819   4.535197
    15  H    2.632743   2.146653   1.094075   2.142831   2.649183
    16  H    3.341745   2.149035   1.096124   2.156240   2.697370
    17  H    3.801322   2.737938   2.154306   1.101942   2.177370
    18  H    3.224270   2.758270   2.141444   1.095319   2.085884
    19  H    5.151399   4.110300   2.703210   2.043351   1.017168
    20  H    5.368322   4.576141   3.348155   2.056724   1.016613
                   11         12         13         14         15
    11  H    0.000000
    12  H    2.481058   0.000000
    13  H    4.298986   2.490878   0.000000
    14  H    4.948053   4.297178   2.478183   0.000000
    15  H    5.517420   5.872628   4.691969   2.382365   0.000000
    16  H    4.814891   5.898974   5.452600   3.623990   1.758512
    17  H    4.853515   5.994069   5.721222   4.151764   3.049636
    18  H    5.593567   6.016022   5.040054   3.143106   2.459983
    19  H    6.769971   7.924328   7.281277   5.142447   3.021478
    20  H    7.287055   8.179595   7.342442   5.227867   3.577104
                   16         17         18         19         20
    16  H    0.000000
    17  H    2.520621   0.000000
    18  H    3.048497   1.761456   0.000000
    19  H    2.517495   2.452984   2.931284   0.000000
    20  H    3.644013   2.489293   2.375316   1.626967   0.000000
 Stoichiometry    C8H10ClN
 Framework group  C1[X(C8H10ClN)]
 Deg. of freedom    54
 Full point group                 C1      NOp   1
 Largest Abelian subgroup         C1      NOp   1
 Largest concise Abelian subgroup C1      NOp   1
                         Standard orientation:                         
 ---------------------------------------------------------------------
 Center     Atomic      Atomic             Coordinates (Angstroms)
 Number     Number       Type             X           Y           Z
 ---------------------------------------------------------------------
      1         17           0        0.087865    2.191732    0.106240
      2          6           0       -0.781692    0.673628    0.050661
      3          6           0       -2.139901    0.703817   -0.271610
      4          6           0       -2.867335   -0.482653   -0.318357
      5          6           0       -2.235342   -1.693794   -0.041954
      6          6           0       -0.878893   -1.708555    0.282955
      7          6           0       -0.124904   -0.531911    0.338321
      8          6           0        1.352351   -0.591897    0.666529
      9          6           0        2.236727   -0.581346   -0.582014
     10          7           0        3.648347   -0.700275   -0.196828
     11          1           0       -2.620103    1.653502   -0.482299
     12          1           0       -3.923024   -0.456165   -0.568026
     13          1           0       -2.796761   -2.622509   -0.075121
     14          1           0       -0.386226   -2.651099    0.499241
     15          1           0        1.567687   -1.502608    1.233307
     16          1           0        1.624041    0.253355    1.309351
     17          1           0        1.990129    0.308118   -1.183943
     18          1           0        1.976898   -1.453270   -1.191900
     19          1           0        3.930466    0.137086    0.307021
     20          1           0        4.238698   -0.747653   -1.023111
 ---------------------------------------------------------------------
 Rotational constants (GHZ):           1.6063960           0.8438514           0.5824043
 Standard basis: 6-31G(d,p) (6D, 7F)
 There are   204 symmetry adapted cartesian basis functions of A   symmetry.
 There are   204 symmetry adapted basis functions of A   symmetry.
   204 basis functions,   374 primitive gaussians,   204 cartesian basis functions
    41 alpha electrons       41 beta electrons
       nuclear repulsion energy       577.1403478233 Hartrees.
 NAtoms=   20 NActive=   20 NUniq=   20 SFac= 1.00D+00 NAtFMM=   60 NAOKFM=F Big=F
 Integral buffers will be    131072 words long.
 Raffenetti 2 integral format.
 Two-electron integral symmetry is turned on.
 Nuclear repulsion after empirical dispersion term =      577.1018903140 Hartrees.
 One-electron integrals computed using PRISM.
 NBasis=   204 RedAO= T EigKep=  4.35D-04  NBF=   204
 NBsUse=   204 1.00D-06 EigRej= -1.00D+00 NBFU=   204
 Initial guess from the checkpoint file:  "N3_conf-2.chk"
 B after Tr=    -0.000000    0.000000   -0.000000
         Rot=    0.999978    0.004181   -0.000728   -0.005177 Ang=   0.77 deg.
 ExpMin= 1.43D-01 ExpMax= 2.52D+04 ExpMxC= 3.78D+03 IAcc=3 IRadAn=         5 AccDes= 0.00D+00
 Harris functional with IExCor=  402 and IRadAn=       5 diagonalized for initial guess.
 HarFok:  IExCor=  402 AccDes= 0.00D+00 IRadAn=         5 IDoV= 1 UseB2=F ITyADJ=14
 ICtDFT=  3500011 ScaDFX=  1.000000  1.000000  1.000000  1.000000
 FoFCou: FMM=F IPFlag=           0 FMFlag=      100000 FMFlg1=           0
         NFxFlg=           0 DoJE=T BraDBF=F KetDBF=T FulRan=T
         wScrn=  0.000000 ICntrl=       500 IOpCl=  0 I1Cent=   200000004 NGrid=           0
         NMat0=    1 NMatS0=      1 NMatT0=    0 NMatD0=    1 NMtDS0=    0 NMtDT0=    0
 Petite list used in FoFCou.
 Requested convergence on RMS density matrix=1.00D-08 within 128 cycles.
 Requested convergence on MAX density matrix=1.00D-06.
 Requested convergence on             energy=1.00D-06.
 No special actions if energy rises.
 Integral accuracy reduced to 1.0D-05 until final iterations.
 Initial convergence to 1.0D-05 achieved.  Increase integral accuracy.
 SCF Done:  E(RB3LYP) =  -825.872382979     A.U. after   11 cycles
            NFock= 11  Conv=0.74D-08     -V/T= 2.0061
 Calling FoFJK, ICntrl=      2127 FMM=F ISym2X=0 I1Cent= 0 IOpClX= 0 NMat=1 NMatS=1 NMatT=0.
 ***** Axes restored to original set *****
 -------------------------------------------------------------------
 Center     Atomic                   Forces (Hartrees/Bohr)
 Number     Number              X              Y              Z
 -------------------------------------------------------------------
      1       17           0.002571538    0.004265070    0.002118875
      2        6          -0.006688444   -0.006387178   -0.003763270
      3        6           0.000556980    0.002426019    0.000938647
      4        6           0.000655345   -0.000575601   -0.000083892
      5        6           0.000999821   -0.000980316    0.000045187
      6        6          -0.003938450    0.000892109   -0.001497038
      7        6           0.007595511    0.001078934    0.002432537
      8        6          -0.003779195   -0.001485612    0.002687225
      9        6           0.001747403   -0.000594098   -0.002351688
     10        7          -0.002731342   -0.000161425    0.000486082
     11        1           0.000611294   -0.000187946    0.000124866
     12        1          -0.000035100    0.000164585    0.000010934
     13        1           0.000346446    0.000030869    0.000129372
     14        1           0.000540672   -0.000423273    0.000241613
     15        1          -0.000086554    0.000001923   -0.000290545
     16        1           0.000024115    0.000226689   -0.000288829
     17        1           0.001341082    0.000370768    0.000146675
     18        1           0.000389465   -0.000006870   -0.001024573
     19        1           0.000523594    0.000769837    0.000363259
     20        1          -0.000644179    0.000575517   -0.000425435
 -------------------------------------------------------------------
 Cartesian Forces:  Max     0.007595511 RMS     0.002117067

 GradGradGradGradGradGradGradGradGradGradGradGradGradGradGradGradGradGrad
 Berny optimization.
 Using GEDIIS/GDIIS optimizer.
 FormGI is forming the generalized inverse of G from B-inverse, IUseBI=4.
 Internal  Forces:  Max     0.005403399 RMS     0.000983811
 Search for a local minimum.
 Step number   2 out of a maximum of  108
 All quantities printed in internal units (Hartrees-Bohrs-Radians)
 Mixed Optimization -- En-DIIS/RFO-DIIS
 Update second derivatives using D2CorX and points    1    2
 DE= -2.46D-03 DEPred=-2.52D-03 R= 9.75D-01
 TightC=F SS=  1.41D+00  RLast= 2.20D-01 DXNew= 5.0454D-01 6.6109D-01
 Trust test= 9.75D-01 RLast= 2.20D-01 DXMaxT set to 5.05D-01
 ITU=  1  0
 Use linear search instead of GDIIS.
     Eigenvalues ---    0.00309   0.00428   0.00995   0.01382   0.02056
     Eigenvalues ---    0.02085   0.02120   0.02136   0.02152   0.02160
     Eigenvalues ---    0.02161   0.02164   0.04003   0.04498   0.04733
     Eigenvalues ---    0.05347   0.05685   0.09182   0.09440   0.12698
     Eigenvalues ---    0.12823   0.15670   0.16000   0.16000   0.16000
     Eigenvalues ---    0.16000   0.16213   0.21258   0.21904   0.22175
     Eigenvalues ---    0.22351   0.22682   0.24989   0.25193   0.28964
     Eigenvalues ---    0.29403   0.31134   0.34501   0.34594   0.34669
     Eigenvalues ---    0.34797   0.35854   0.35914   0.35938   0.36051
     Eigenvalues ---    0.39749   0.41790   0.42012   0.45344   0.45552
     Eigenvalues ---    0.45742   0.46153   0.46534   0.46973
 RFO step:  Lambda=-4.31313168D-04 EMin= 3.08543731D-03
 Quartic linear search produced a step of  0.02392.
 Iteration  1 RMS(Cart)=  0.01875626 RMS(Int)=  0.00020140
 Iteration  2 RMS(Cart)=  0.00028103 RMS(Int)=  0.00001967
 Iteration  3 RMS(Cart)=  0.00000005 RMS(Int)=  0.00001967
 Variable       Old X    -DE/DX   Delta X   Delta X   Delta X     New X
                                 (Linear)    (Quad)   (Total)
    R1        3.30775   0.00540   0.00090   0.01935   0.02025   3.32801
    R2        2.63852  -0.00164   0.00002  -0.00354  -0.00351   2.63501
    R3        2.65063   0.00029  -0.00014   0.00032   0.00019   2.65082
    R4        2.63145   0.00038  -0.00010   0.00057   0.00046   2.63191
    R5        2.05006  -0.00040   0.00021  -0.00058  -0.00036   2.04969
    R6        2.63390   0.00036  -0.00001   0.00074   0.00072   2.63461
    R7        2.05061   0.00006   0.00021   0.00070   0.00091   2.05152
    R8        2.63597  -0.00150  -0.00000  -0.00332  -0.00333   2.63265
    R9        2.05173  -0.00026   0.00022  -0.00016   0.00006   2.05179
   R10        2.64295   0.00155  -0.00007   0.00332   0.00326   2.64621
   R11        2.05093   0.00057   0.00020   0.00213   0.00233   2.05326
   R12        2.86192  -0.00319  -0.00050  -0.01222  -0.01272   2.84920
   R13        2.89140   0.00269  -0.00020   0.00897   0.00876   2.90016
   R14        2.06750  -0.00005   0.00012   0.00016   0.00028   2.06779
   R15        2.07137  -0.00014   0.00025   0.00022   0.00047   2.07185
   R16        2.77422  -0.00285   0.00070  -0.00589  -0.00519   2.76903
   R17        2.08237   0.00011   0.00043   0.00143   0.00186   2.08423
   R18        2.06985   0.00078   0.00013   0.00266   0.00279   2.07264
   R19        1.92217   0.00084   0.00026   0.00255   0.00281   1.92497
   R20        1.92112   0.00006   0.00023   0.00074   0.00097   1.92209
    A1        2.06215  -0.00155  -0.00009  -0.00663  -0.00673   2.05542
    A2        2.10167  -0.00057  -0.00053  -0.00374  -0.00428   2.09739
    A3        2.11930   0.00212   0.00063   0.01042   0.01106   2.13036
    A4        2.09150  -0.00098  -0.00024  -0.00510  -0.00534   2.08616
    A5        2.08787  -0.00004   0.00001  -0.00111  -0.00110   2.08677
    A6        2.10381   0.00102   0.00023   0.00621   0.00644   2.11026
    A7        2.09077   0.00021  -0.00004   0.00083   0.00078   2.09154
    A8        2.08880  -0.00027  -0.00013  -0.00181  -0.00194   2.08686
    A9        2.10362   0.00005   0.00017   0.00098   0.00116   2.10478
   A10        2.09015  -0.00012  -0.00010  -0.00092  -0.00104   2.08911
   A11        2.09759   0.00033   0.00006   0.00221   0.00227   2.09986
   A12        2.09544  -0.00021   0.00005  -0.00128  -0.00123   2.09421
   A13        2.12300   0.00091   0.00047   0.00542   0.00589   2.12889
   A14        2.09098  -0.00003   0.00020   0.00113   0.00132   2.09230
   A15        2.06920  -0.00088  -0.00067  -0.00654  -0.00721   2.06199
   A16        2.05164  -0.00215  -0.00071  -0.01063  -0.01134   2.04030
   A17        2.13558   0.00201   0.00030   0.00888   0.00916   2.14473
   A18        2.09568   0.00015   0.00041   0.00157   0.00196   2.09765
   A19        1.96783  -0.00098   0.00010  -0.00543  -0.00534   1.96249
   A20        1.91476   0.00033   0.00008   0.00147   0.00153   1.91629
   A21        1.91593   0.00029   0.00030   0.00153   0.00181   1.91774
   A22        1.89094   0.00015  -0.00054  -0.00153  -0.00208   1.88887
   A23        1.90706   0.00020  -0.00069  -0.00165  -0.00234   1.90472
   A24        1.86429   0.00007   0.00080   0.00621   0.00699   1.87128
   A25        1.91890  -0.00080   0.00033  -0.00370  -0.00340   1.91551
   A26        1.89859   0.00100  -0.00080   0.00301   0.00214   1.90073
   A27        1.88784   0.00077  -0.00083   0.00883   0.00798   1.89582
   A28        2.00854  -0.00094   0.00206  -0.00965  -0.00759   2.00095
   A29        1.88568   0.00021  -0.00068   0.00105   0.00038   1.88606
   A30        1.86013  -0.00012  -0.00018   0.00180   0.00157   1.86170
   A31        1.90707   0.00034  -0.00036  -0.00122  -0.00161   1.90546
   A32        1.92719  -0.00169   0.00003  -0.01315  -0.01315   1.91404
   A33        1.85450   0.00017   0.00010  -0.00378  -0.00375   1.85075
    D1       -3.13523  -0.00011   0.00020  -0.00458  -0.00437  -3.13959
    D2        0.00481  -0.00008   0.00016  -0.00323  -0.00307   0.00173
    D3       -0.00582   0.00003  -0.00011   0.00075   0.00065  -0.00517
    D4        3.13422   0.00006  -0.00016   0.00210   0.00195   3.13616
    D5        3.13581   0.00007  -0.00023   0.00414   0.00390   3.13972
    D6       -0.03161  -0.00001  -0.00073  -0.00369  -0.00440  -0.03602
    D7        0.00668  -0.00006   0.00009  -0.00129  -0.00122   0.00546
    D8        3.12244  -0.00014  -0.00041  -0.00912  -0.00953   3.11291
    D9        0.00094   0.00003   0.00004   0.00109   0.00114   0.00207
   D10        3.14042   0.00001  -0.00003   0.00040   0.00038   3.14080
   D11       -3.13908  -0.00000   0.00008  -0.00026  -0.00017  -3.13925
   D12        0.00041  -0.00002   0.00002  -0.00095  -0.00093  -0.00053
   D13        0.00280  -0.00006   0.00005  -0.00241  -0.00237   0.00043
   D14        3.14000  -0.00004  -0.00008  -0.00160  -0.00169   3.13831
   D15       -3.13667  -0.00004   0.00012  -0.00171  -0.00159  -3.13826
   D16        0.00053  -0.00002  -0.00001  -0.00091  -0.00092  -0.00038
   D17       -0.00181   0.00003  -0.00006   0.00189   0.00182   0.00000
   D18        3.14058  -0.00003  -0.00011  -0.00149  -0.00161   3.13897
   D19       -3.13902   0.00001   0.00006   0.00107   0.00113  -3.13789
   D20        0.00338  -0.00006   0.00001  -0.00230  -0.00230   0.00108
   D21       -0.00286   0.00003  -0.00001  -0.00001   0.00000  -0.00286
   D22       -3.11923   0.00009   0.00048   0.00751   0.00795  -3.11128
   D23        3.13794   0.00010   0.00004   0.00333   0.00338   3.14132
   D24        0.02156   0.00015   0.00053   0.01085   0.01133   0.03290
   D25       -1.42964  -0.00004  -0.00030  -0.01713  -0.01740  -1.44705
   D26        2.74445   0.00019   0.00027  -0.01258  -0.01228   2.73216
   D27        0.70090  -0.00025  -0.00090  -0.02187  -0.02276   0.67814
   D28        1.68548  -0.00016  -0.00082  -0.02531  -0.02616   1.65932
   D29       -0.42361   0.00007  -0.00025  -0.02077  -0.02104  -0.44465
   D30       -2.46716  -0.00037  -0.00142  -0.03006  -0.03152  -2.49868
   D31       -3.09865  -0.00050   0.00093  -0.02353  -0.02261  -3.12126
   D32        0.97060   0.00054  -0.00135  -0.01081  -0.01213   0.95847
   D33       -1.04330  -0.00026  -0.00020  -0.01920  -0.01941  -1.06271
   D34       -0.97600  -0.00062   0.00071  -0.02626  -0.02555  -1.00156
   D35        3.09325   0.00042  -0.00156  -0.01354  -0.01507   3.07818
   D36        1.07935  -0.00037  -0.00041  -0.02193  -0.02236   1.05699
   D37        1.04901  -0.00035   0.00097  -0.02061  -0.01965   1.02936
   D38       -1.16493   0.00070  -0.00130  -0.00789  -0.00917  -1.17409
   D39        3.10436  -0.00010  -0.00015  -0.01628  -0.01645   3.08791
   D40       -1.16440  -0.00016  -0.00087  -0.00931  -0.01019  -1.17459
   D41        3.08510   0.00041  -0.00080   0.00358   0.00273   3.08783
   D42        0.98636  -0.00016  -0.00024  -0.01540  -0.01559   0.97077
   D43       -1.04733   0.00041  -0.00017  -0.00252  -0.00267  -1.05000
   D44        3.06209  -0.00076   0.00035  -0.01846  -0.01810   3.04399
   D45        1.02840  -0.00019   0.00042  -0.00557  -0.00518   1.02322
         Item               Value     Threshold  Converged?
 Maximum Force            0.005403     0.000450     NO 
 RMS     Force            0.000984     0.000300     NO 
 Maximum Displacement     0.077459     0.001800     NO 
 RMS     Displacement     0.018855     0.001200     NO 
 Predicted change in Energy=-2.186065D-04
 GradGradGradGradGradGradGradGradGradGradGradGradGradGradGradGradGradGrad

                          Input orientation:                          
 ---------------------------------------------------------------------
 Center     Atomic      Atomic             Coordinates (Angstroms)
 Number     Number       Type             X           Y           Z
 ---------------------------------------------------------------------
      1         17           0       -0.091333    2.535077    1.241074
      2          6           0       -0.993210    1.210826    0.509999
      3          6           0       -2.322893    1.444899    0.161479
      4          6           0       -3.071084    0.422462   -0.416946
      5          6           0       -2.487028   -0.823704   -0.639840
      6          6           0       -1.157832   -1.037030   -0.281282
      7          6           0       -0.376797   -0.032046    0.302564
      8          6           0        1.069224   -0.294940    0.638959
      9          6           0        2.022646    0.169960   -0.470166
     10          7           0        3.405441   -0.137910   -0.095700
     11          1           0       -2.760391    2.420347    0.344692
     12          1           0       -4.106601    0.603759   -0.687868
     13          1           0       -3.064035   -1.627170   -1.087474
     14          1           0       -0.700403   -2.007794   -0.451402
     15          1           0        1.224141   -1.366639    0.796420
     16          1           0        1.332362    0.211933    1.574841
     17          1           0        1.830179    1.234759   -0.683733
     18          1           0        1.787879   -0.382438   -1.388152
     19          1           0        3.672089    0.437182    0.701684
     20          1           0        4.031644    0.124169   -0.853149
 ---------------------------------------------------------------------
                    Distance matrix (angstroms):
                    1          2          3          4          5
     1  Cl   0.000000
     2  C    1.761106   0.000000
     3  C    2.708113   1.394387   0.000000
     4  C    4.011370   2.407967   1.392747   0.000000
     5  C    4.534159   2.773613   2.411558   1.394178   0.000000
     6  C    4.026778   2.388741   2.777297   2.410198   1.393137
     7  C    2.748164   1.402755   2.447154   2.825500   2.442932
     8  C    3.117440   2.556873   3.842069   4.332638   3.815999
     9  C    3.604306   3.337591   4.572544   5.100263   4.620965
    10  N    4.599918   4.640484   5.948549   6.508655   5.957146
    11  H    2.817895   2.147835   1.084651   2.160594   3.401161
    12  H    4.855223   3.390666   2.147212   1.085616   2.159392
    13  H    5.619910   3.859333   3.398055   2.156536   1.085758
    14  H    4.886012   3.371875   3.863831   3.395212   2.151652
    15  H    4.141445   3.412038   4.570486   4.808544   4.016266
    16  H    2.745051   2.745899   4.108368   4.837548   4.534875
    17  H    3.014617   3.065468   4.243412   4.975277   4.783039
    18  H    4.353867   3.725039   4.758042   5.020022   4.362283
    19  H    4.342286   4.732894   6.103043   6.835345   6.428393
    20  H    5.215092   5.318661   6.569166   7.122359   6.590679
                    6          7          8          9         10
     6  C    0.000000
     7  C    1.400317   0.000000
     8  C    2.521373   1.507731   0.000000
     9  C    3.407044   2.528883   1.534700   0.000000
    10  N    4.654710   3.804622   2.454036   1.465309   0.000000
    11  H    3.861799   3.420164   4.703757   5.348427   6.690000
    12  H    3.398932   3.911091   5.418237   6.148434   7.571757
    13  H    2.152165   3.420215   4.673247   5.430016   6.712349
    14  H    1.086538   2.139338   2.693387   3.486827   4.525588
    15  H    2.635124   2.141970   1.094226   2.145457   2.657767
    16  H    3.347561   2.144630   1.096374   2.158774   2.685285
    17  H    3.775077   2.729161   2.160682   1.102928   2.170588
    18  H    3.214167   2.768956   2.152510   1.096795   2.084882
    19  H    5.144674   4.095480   2.704596   2.040907   1.018652
    20  H    5.348466   4.560092   3.343347   2.045690   1.017126
                   11         12         13         14         15
    11  H    0.000000
    12  H    2.485650   0.000000
    13  H    4.304148   2.494729   0.000000
    14  H    4.948307   4.298640   2.477139   0.000000
    15  H    5.515597   5.873873   4.690989   2.381598   0.000000
    16  H    4.810507   5.903871   5.458802   3.628358   1.763388
    17  H    4.851454   5.970220   5.683922   4.119705   3.053752
    18  H    5.616503   6.017297   5.018050   3.116220   2.461464
    19  H    6.740711   7.903583   7.268975   5.140642   3.042235
    20  H    7.269044   8.154039   7.312370   5.205664   3.581293
                   16         17         18         19         20
    16  H    0.000000
    17  H    2.528864   0.000000
    18  H    3.056158   1.764460   0.000000
    19  H    2.507482   2.438882   2.930775   0.000000
    20  H    3.631661   2.471551   2.361644   1.626272   0.000000
 Stoichiometry    C8H10ClN
 Framework group  C1[X(C8H10ClN)]
 Deg. of freedom    54
 Full point group                 C1      NOp   1
 Largest Abelian subgroup         C1      NOp   1
 Largest concise Abelian subgroup C1      NOp   1
                         Standard orientation:                         
 ---------------------------------------------------------------------
 Center     Atomic      Atomic             Coordinates (Angstroms)
 Number     Number       Type             X           Y           Z
 ---------------------------------------------------------------------
      1         17           0        0.077691    2.202460    0.104370
      2          6           0       -0.786374    0.668720    0.054076
      3          6           0       -2.140480    0.696546   -0.277491
      4          6           0       -2.859975   -0.494982   -0.325764
      5          6           0       -2.223029   -1.701930   -0.040623
      6          6           0       -0.870032   -1.706734    0.291355
      7          6           0       -0.116630   -0.527814    0.349831
      8          6           0        1.354492   -0.583618    0.675318
      9          6           0        2.232627   -0.603706   -0.583165
     10          7           0        3.644669   -0.685969   -0.200412
     11          1           0       -2.619036    1.645536   -0.493990
     12          1           0       -3.914439   -0.474002   -0.583114
     13          1           0       -2.777205   -2.635050   -0.072976
     14          1           0       -0.371250   -2.645396    0.516511
     15          1           0        1.571172   -1.483971    1.258193
     16          1           0        1.632426    0.277995    1.293713
     17          1           0        1.976350    0.265667   -1.211625
     18          1           0        1.986132   -1.498227   -1.168000
     19          1           0        3.916457    0.179114    0.263717
     20          1           0        4.222366   -0.750599   -1.035057
 ---------------------------------------------------------------------
 Rotational constants (GHZ):           1.5946468           0.8463614           0.5827023
 Standard basis: 6-31G(d,p) (6D, 7F)
 There are   204 symmetry adapted cartesian basis functions of A   symmetry.
 There are   204 symmetry adapted basis functions of A   symmetry.
   204 basis functions,   374 primitive gaussians,   204 cartesian basis functions
    41 alpha electrons       41 beta electrons
       nuclear repulsion energy       576.8473037685 Hartrees.
 NAtoms=   20 NActive=   20 NUniq=   20 SFac= 1.00D+00 NAtFMM=   60 NAOKFM=F Big=F
 Integral buffers will be    131072 words long.
 Raffenetti 2 integral format.
 Two-electron integral symmetry is turned on.
 Nuclear repulsion after empirical dispersion term =      576.8088640514 Hartrees.
 One-electron integrals computed using PRISM.
 NBasis=   204 RedAO= T EigKep=  4.33D-04  NBF=   204
 NBsUse=   204 1.00D-06 EigRej= -1.00D+00 NBFU=   204
 Initial guess from the checkpoint file:  "N3_conf-2.chk"
 B after Tr=    -0.000000   -0.000000    0.000000
         Rot=    0.999997    0.002055   -0.000172   -0.001549 Ang=   0.30 deg.
 ExpMin= 1.43D-01 ExpMax= 2.52D+04 ExpMxC= 3.78D+03 IAcc=3 IRadAn=         5 AccDes= 0.00D+00
 Harris functional with IExCor=  402 and IRadAn=       5 diagonalized for initial guess.
 HarFok:  IExCor=  402 AccDes= 0.00D+00 IRadAn=         5 IDoV= 1 UseB2=F ITyADJ=14
 ICtDFT=  3500011 ScaDFX=  1.000000  1.000000  1.000000  1.000000
 FoFCou: FMM=F IPFlag=           0 FMFlag=      100000 FMFlg1=           0
         NFxFlg=           0 DoJE=T BraDBF=F KetDBF=T FulRan=T
         wScrn=  0.000000 ICntrl=       500 IOpCl=  0 I1Cent=   200000004 NGrid=           0
         NMat0=    1 NMatS0=      1 NMatT0=    0 NMatD0=    1 NMtDS0=    0 NMtDT0=    0
 Petite list used in FoFCou.
 Requested convergence on RMS density matrix=1.00D-08 within 128 cycles.
 Requested convergence on MAX density matrix=1.00D-06.
 Requested convergence on             energy=1.00D-06.
 No special actions if energy rises.
 Integral accuracy reduced to 1.0D-05 until final iterations.
 Initial convergence to 1.0D-05 achieved.  Increase integral accuracy.
 SCF Done:  E(RB3LYP) =  -825.872637045     A.U. after   10 cycles
            NFock= 10  Conv=0.98D-08     -V/T= 2.0061
 Calling FoFJK, ICntrl=      2127 FMM=F ISym2X=0 I1Cent= 0 IOpClX= 0 NMat=1 NMatS=1 NMatT=0.
 ***** Axes restored to original set *****
 -------------------------------------------------------------------
 Center     Atomic                   Forces (Hartrees/Bohr)
 Number     Number              X              Y              Z
 -------------------------------------------------------------------
      1       17           0.000969134    0.001338996    0.000659456
      2        6          -0.001754471   -0.002499062   -0.001293595
      3        6           0.000337627    0.001045109    0.000437763
      4        6          -0.000454358   -0.000104537   -0.000138473
      5        6           0.000249836   -0.000281875   -0.000038574
      6        6          -0.000862249   -0.000617789   -0.000560706
      7        6           0.001218391    0.001479165    0.000587189
      8        6          -0.000742852   -0.000573067    0.000974111
      9        6           0.000039627    0.000018632   -0.000790708
     10        7          -0.000441296    0.000430873    0.000225461
     11        1           0.000251087   -0.000394048   -0.000029251
     12        1           0.000206404   -0.000099209    0.000021131
     13        1           0.000212435    0.000238973    0.000126433
     14        1          -0.000119436    0.000028409    0.000018649
     15        1           0.000068286    0.000298365    0.000186622
     16        1           0.000153826   -0.000314414   -0.000564504
     17        1           0.000378199   -0.000279617    0.000216631
     18        1          -0.000054027    0.000279852    0.000189358
     19        1           0.000167149    0.000004988   -0.000350830
     20        1           0.000176688    0.000000255    0.000123839
 -------------------------------------------------------------------
 Cartesian Forces:  Max     0.002499062 RMS     0.000656304

 GradGradGradGradGradGradGradGradGradGradGradGradGradGradGradGradGradGrad
 Berny optimization.
 Using GEDIIS/GDIIS optimizer.
 FormGI is forming the generalized inverse of G from B-inverse, IUseBI=4.
 Internal  Forces:  Max     0.001776736 RMS     0.000298199
 Search for a local minimum.
 Step number   3 out of a maximum of  108
 All quantities printed in internal units (Hartrees-Bohrs-Radians)
 Mixed Optimization -- En-DIIS/RFO-DIIS
 Swapping is turned off.
 Update second derivatives using D2CorX and points    1    2    3
 DE= -2.54D-04 DEPred=-2.19D-04 R= 1.16D+00
 TightC=F SS=  1.41D+00  RLast= 9.53D-02 DXNew= 8.4853D-01 2.8600D-01
[...]
   XY=     3.6272   YY=    23.4402   ZY=     0.1501
   XZ=     0.8217   YZ=    -0.1647   ZZ=    20.6342
   Eigenvalues:    20.3047    21.1794    29.8084
     15  H    Isotropic =    29.0676   Anisotropy =     6.7527
   XX=    28.7553   YX=    -0.4751   ZX=     0.1717
   XY=     0.8123   YY=    30.7199   ZY=    -3.3317
   XZ=     1.8301   YZ=    -4.7433   ZZ=    27.7275
   Eigenvalues:    24.7086    28.9247    33.5693
     16  H    Isotropic =    28.8500   Anisotropy =     3.9295
   XX=    28.6510   YX=    -0.6919   ZX=     1.0977
   XY=    -2.4564   YY=    30.4471   ZY=     1.3564
   XZ=     2.9893   YZ=     2.1323   ZZ=    27.4519
   Eigenvalues:    24.9283    30.1521    31.4697
     17  H    Isotropic =    28.6796   Anisotropy =     6.8906
   XX=    30.9980   YX=    -3.7423   ZX=     0.9926
   XY=    -2.7804   YY=    27.7995   ZY=    -2.8364
   XZ=    -2.7555   YZ=    -3.9558   ZZ=    27.2413
   Eigenvalues:    23.0318    29.7337    33.2733
     18  H    Isotropic =    29.4767   Anisotropy =     4.9154
   XX=    31.0569   YX=     1.8978   ZX=     1.1028
   XY=    -0.0094   YY=    29.1818   ZY=     3.4702
   XZ=    -1.4686   YZ=     4.1733   ZZ=    28.1915
   Eigenvalues:    24.7407    30.9358    32.7536
     19  H    Isotropic =    31.5744   Anisotropy =    11.7811
   XX=    33.5174   YX=     4.4081   ZX=     2.8260
   XY=     3.0080   YY=    33.5642   ZY=     4.9285
   XZ=     0.5166   YZ=     5.6285   ZZ=    27.6414
   Eigenvalues:    24.5260    30.7687    39.4284
     20  H    Isotropic =    31.2406   Anisotropy =    15.4294
   XX=    35.8242   YX=    -1.5561   ZX=    -7.7390
   XY=    -0.5914   YY=    25.0159   ZY=     2.4102
   XZ=    -5.6042   YZ=     2.4799   ZZ=    32.8816
   Eigenvalues:    24.2238    27.9711    41.5269
 End of Minotr F.D. properties file   721 does not exist.
 End of Minotr F.D. properties file   722 does not exist.
 End of Minotr F.D. properties file   788 does not exist.

 **********************************************************************

            Population analysis using the SCF Density.

 **********************************************************************

 Orbital symmetries:
       Occupied  (A) (A) (A) (A) (A) (A) (A) (A) (A) (A) (A) (A)
                 (A) (A) (A) (A) (A) (A) (A) (A) (A) (A) (A) (A)
                 (A) (A) (A) (A) (A) (A) (A) (A) (A) (A) (A) (A)
                 (A) (A) (A) (A) (A)
       Virtual   (A) (A) (A) (A) (A) (A) (A) (A) (A) (A) (A) (A)
                 (A) (A) (A) (A) (A) (A) (A) (A) (A) (A) (A) (A)
                 (A) (A) (A) (A) (A) (A) (A) (A) (A) (A) (A) (A)
                 (A) (A) (A) (A) (A) (A) (A) (A) (A) (A) (A) (A)
                 (A) (A) (A) (A) (A) (A) (A) (A) (A) (A) (A) (A)
                 (A) (A) (A) (A) (A) (A) (A) (A) (A) (A) (A) (A)
                 (A) (A) (A) (A) (A) (A) (A) (A) (A) (A) (A) (A)
                 (A) (A) (A) (A) (A) (A) (A) (A) (A) (A) (A) (A)
                 (A) (A) (A) (A) (A) (A) (A) (A) (A) (A) (A) (A)
                 (A) (A) (A) (A) (A) (A) (A) (A) (A) (A) (A) (A)
                 (A) (A) (A) (A) (A) (A) (A) (A) (A) (A) (A) (A)
                 (A) (A) (A) (A) (A) (A) (A) (A) (A) (A) (A) (A)
                 (A) (A) (A) (A) (A) (A) (A) (A) (A) (A) (A) (A)
                 (A) (A) (A) (A) (A) (A) (A) (A) (A) (A) (A) (A)
                 (A) (A) (A) (A) (A) (A) (A) (A) (A) (A) (A) (A)
                 (A) (A) (A) (A) (A) (A) (A) (A) (A) (A) (A) (A)
                 (A) (A) (A) (A) (A) (A) (A) (A) (A) (A) (A) (A)
                 (A) (A) (A) (A) (A) (A) (A) (A) (A) (A) (A) (A)
                 (A) (A) (A) (A) (A) (A) (A) (A) (A) (A) (A) (A)
                 (A) (A) (A) (A) (A) (A) (A) (A) (A) (A) (A) (A)
                 (A) (A) (A) (A) (A) (A) (A) (A) (A) (A) (A) (A)
                 (A) (A) (A) (A) (A) (A) (A) (A) (A) (A) (A) (A)
                 (A) (A) (A) (A) (A) (A) (A) (A) (A) (A) (A) (A)
                 (A) (A) (A) (A) (A) (A) (A) (A) (A) (A) (A) (A)
                 (A) (A) (A) (A) (A) (A) (A) (A) (A) (A) (A) (A)
                 (A) (A) (A) (A) (A) (A) (A) (A) (A) (A) (A) (A)
                 (A) (A) (A) (A) (A) (A) (A) (A) (A) (A) (A) (A)
                 (A) (A) (A) (A) (A) (A) (A) (A) (A) (A) (A)
 The electronic state is 1-A.
 Alpha  occ. eigenvalues -- -102.64525 -14.72846 -10.60743 -10.56480 -10.56186
 Alpha  occ. eigenvalues --  -10.55649 -10.55345 -10.55262 -10.55111 -10.54045
 Alpha  occ. eigenvalues --   -9.80765  -7.52957  -7.52458  -7.52443  -0.99951
 Alpha  occ. eigenvalues --   -0.98703  -0.93524  -0.88516  -0.83399  -0.80382
 Alpha  occ. eigenvalues --   -0.71149  -0.69401  -0.66448  -0.59212  -0.56778
 Alpha  occ. eigenvalues --   -0.54991  -0.53612  -0.51972  -0.49714  -0.49351
 Alpha  occ. eigenvalues --   -0.47135  -0.46341  -0.43647  -0.42153  -0.41262
 Alpha  occ. eigenvalues --   -0.40618  -0.39891  -0.37557  -0.31722  -0.30993
 Alpha  occ. eigenvalues --   -0.29932
 Alpha virt. eigenvalues --    0.00956   0.01165   0.06035   0.06611   0.09052
 Alpha virt. eigenvalues --    0.10141   0.10405   0.11281   0.12554   0.13711
 Alpha virt. eigenvalues --    0.14175   0.16023   0.16287   0.17062   0.17491
 Alpha virt. eigenvalues --    0.20293   0.21550   0.22270   0.22907   0.24038
 Alpha virt. eigenvalues --    0.24465   0.26070   0.26738   0.28039   0.28506
 Alpha virt. eigenvalues --    0.29490   0.29953   0.30660   0.31120   0.32397
 Alpha virt. eigenvalues --    0.34185   0.35089   0.35688   0.36217   0.37989
 Alpha virt. eigenvalues --    0.38309   0.38602   0.39787   0.40461   0.41427
 Alpha virt. eigenvalues --    0.42017   0.42860   0.43404   0.44377   0.45451
 Alpha virt. eigenvalues --    0.45908   0.46396   0.47103   0.47814   0.48139
 Alpha virt. eigenvalues --    0.49321   0.50350   0.51139   0.51900   0.52825
 Alpha virt. eigenvalues --    0.53869   0.54369   0.54637   0.56586   0.57445
 Alpha virt. eigenvalues --    0.58356   0.60081   0.60476   0.62201   0.63427
 Alpha virt. eigenvalues --    0.64027   0.66377   0.66893   0.69307   0.70193
 Alpha virt. eigenvalues --    0.71130   0.72550   0.74409   0.74732   0.77028
 Alpha virt. eigenvalues --    0.78948   0.79186   0.80576   0.81761   0.82509
 Alpha virt. eigenvalues --    0.86677   0.87548   0.89186   0.90936   0.91346
 Alpha virt. eigenvalues --    0.92243   0.94245   0.94527   0.97602   0.98771
 Alpha virt. eigenvalues --    1.03923   1.04743   1.05389   1.06861   1.07743
 Alpha virt. eigenvalues --    1.11793   1.12922   1.13553   1.17367   1.17760
 Alpha virt. eigenvalues --    1.20046   1.21480   1.22705   1.24576   1.25760
 Alpha virt. eigenvalues --    1.27338   1.28562   1.29509   1.30075   1.33184
 Alpha virt. eigenvalues --    1.34316   1.36794   1.37442   1.38921   1.39652
 Alpha virt. eigenvalues --    1.41357   1.43120   1.45259   1.47926   1.49084
 Alpha virt. eigenvalues --    1.49712   1.51969   1.54633   1.57034   1.57967
 Alpha virt. eigenvalues --    1.59511   1.61153   1.62684   1.63469   1.64506
 Alpha virt. eigenvalues --    1.66836   1.67823   1.69981   1.72027   1.72716
 Alpha virt. eigenvalues --    1.73749   1.74286   1.76680   1.78656   1.80210
 Alpha virt. eigenvalues --    1.80439   1.84923   1.85487   1.86854   1.87687
 Alpha virt. eigenvalues --    1.89102   1.89982   1.92442   1.93967   1.94685
 Alpha virt. eigenvalues --    1.95098   1.97536   1.97812   2.00350   2.00688
 Alpha virt. eigenvalues --    2.01848   2.03684   2.05370   2.06072   2.07757
 Alpha virt. eigenvalues --    2.09805   2.11420   2.13290   2.13946   2.15765
 Alpha virt. eigenvalues --    2.16339   2.18183   2.20124   2.21197   2.23128
 Alpha virt. eigenvalues --    2.24720   2.25311   2.26992   2.27434   2.29650
 Alpha virt. eigenvalues --    2.30787   2.33167   2.34015   2.35118   2.40675
 Alpha virt. eigenvalues --    2.40889   2.42979   2.43465   2.46329   2.49049
 Alpha virt. eigenvalues --    2.51062   2.51782   2.55202   2.55934   2.57270
 Alpha virt. eigenvalues --    2.58808   2.60253   2.61280   2.62276   2.63642
 Alpha virt. eigenvalues --    2.65076   2.66141   2.68481   2.68889   2.69762
 Alpha virt. eigenvalues --    2.71004   2.71865   2.72387   2.74665   2.75826
 Alpha virt. eigenvalues --    2.76493   2.78217   2.79206   2.80852   2.82469
 Alpha virt. eigenvalues --    2.85596   2.86567   2.87502   2.88803   2.90677
 Alpha virt. eigenvalues --    2.92814   2.93256   2.95042   2.95354   2.99759
 Alpha virt. eigenvalues --    3.01163   3.02717   3.03574   3.06426   3.08153
 Alpha virt. eigenvalues --    3.10497   3.11680   3.14001   3.14616   3.15168
 Alpha virt. eigenvalues --    3.17774   3.19220   3.20287   3.20954   3.22661
 Alpha virt. eigenvalues --    3.23871   3.24506   3.25941   3.27389   3.28101
 Alpha virt. eigenvalues --    3.29774   3.31492   3.32773   3.33684   3.36199
 Alpha virt. eigenvalues --    3.38013   3.39328   3.40116   3.44034   3.44526
 Alpha virt. eigenvalues --    3.46676   3.48342   3.49160   3.50180   3.51704
 Alpha virt. eigenvalues --    3.52643   3.53787   3.54364   3.54695   3.60812
 Alpha virt. eigenvalues --    3.63310   3.66116   3.66561   3.72734   3.73218
 Alpha virt. eigenvalues --    3.77136   3.78331   3.81180   3.84005   3.84490
 Alpha virt. eigenvalues --    3.87588   3.90155   3.91423   3.92231   3.96434
 Alpha virt. eigenvalues --    4.00381   4.04592   4.06140   4.07967   4.10607
 Alpha virt. eigenvalues --    4.12271   4.15867   4.16532   4.17031   4.17652
 Alpha virt. eigenvalues --    4.19726   4.22361   4.25443   4.28735   4.30804
 Alpha virt. eigenvalues --    4.34118   4.35053   4.39071   4.41458   4.45872
 Alpha virt. eigenvalues --    4.54452   4.54681   4.59695   4.61692   4.64250
 Alpha virt. eigenvalues --    4.67871   4.68969   4.74500   4.76553   4.81594
 Alpha virt. eigenvalues --    4.84008   4.85180   4.89961   4.91725   5.00752
 Alpha virt. eigenvalues --    5.06527   5.10163   5.10848   5.12930   5.19433
 Alpha virt. eigenvalues --    5.25750   5.30962   5.35190   5.43352   5.52915
 Alpha virt. eigenvalues --    5.53063   5.73684  10.83195  10.92153  11.42360
 Alpha virt. eigenvalues --   22.07038  22.52255  22.61513  22.70713  22.76272
 Alpha virt. eigenvalues --   22.81216  22.92281  23.32833  26.03025  32.05222
          Condensed to atoms (all electrons):
               1          2          3          4          5          6
     1  Cl  16.885768   0.331625  -0.051658   0.011608  -0.003006   0.017833
     2  C    0.331625   5.212359   0.359306   0.039609  -0.096464   0.075666
     3  C   -0.051658   0.359306   5.068196   0.437574   0.010024  -0.136539
     4  C    0.011608   0.039609   0.437574   4.950164   0.470317   0.021930
     5  C   -0.003006  -0.096464   0.010024   0.470317   4.934289   0.454516
     6  C    0.017833   0.075666  -0.136539   0.021930   0.454516   5.119959
     7  C   -0.116083   0.223973   0.083352  -0.121142   0.011991   0.337854
     8  C    0.021449  -0.146476   0.011827  -0.005582   0.009037  -0.086002
     9  C   -0.014649   0.008832   0.003145  -0.000408   0.001369  -0.010456
    10  N    0.000420  -0.000774  -0.000122   0.000019  -0.000053  -0.000210
    11  H    0.001691  -0.049058   0.413905  -0.037031   0.006700  -0.003864
    12  H   -0.000345   0.004864  -0.033129   0.407983  -0.033581   0.004682
    13  H    0.000018  -0.000455   0.005133  -0.035207   0.412141  -0.035456
    14  H   -0.000162   0.009315  -0.000226   0.003377  -0.027888   0.399153
    15  H    0.001089   0.010680   0.000121  -0.000161   0.001679  -0.004404
    16  H    0.003166  -0.009952  -0.000474   0.000195  -0.000618   0.002785
    17  H    0.005683   0.002276   0.001685  -0.000367   0.000700   0.003235
    18  H    0.000607   0.001365  -0.000450   0.000013  -0.000295  -0.004052
    19  H    0.000509   0.000109  -0.000016   0.000001  -0.000001  -0.000124
    20  H    0.000011  -0.000337   0.000002  -0.000001   0.000000   0.000036
               7          8          9         10         11         12
     1  Cl  -0.116083   0.021449  -0.014649   0.000420   0.001691  -0.000345
     2  C    0.223973  -0.146476   0.008832  -0.000774  -0.049058   0.004864
     3  C    0.083352   0.011827   0.003145  -0.000122   0.413905  -0.033129
     4  C   -0.121142  -0.005582  -0.000408   0.000019  -0.037031   0.407983
     5  C    0.011991   0.009037   0.001369  -0.000053   0.006700  -0.033581
     6  C    0.337854  -0.086002  -0.010456  -0.000210  -0.003864   0.004682
     7  C    5.393219   0.156653   0.006543   0.013152   0.017153   0.000493
     8  C    0.156653   5.577370   0.146983  -0.062128   0.000267   0.000089
     9  C    0.006543   0.146983   5.096756   0.257995   0.000008  -0.000008
    10  N    0.013152  -0.062128   0.257995   6.678890  -0.000001   0.000000
    11  H    0.017153   0.000267   0.000008  -0.000001   0.497258  -0.003839
    12  H    0.000493   0.000089  -0.000008   0.000000  -0.003839   0.509524
    13  H    0.006586  -0.000340   0.000055  -0.000001  -0.000191  -0.003706
    14  H   -0.035387  -0.002671  -0.001783   0.000170   0.000052  -0.000297
    15  H   -0.046577   0.412431  -0.039629   0.013322   0.000007   0.000000
    16  H   -0.041845   0.440519  -0.059872   0.000071  -0.000014   0.000000
    17  H    0.012666  -0.095409   0.469534  -0.060565   0.000046  -0.000000
    18  H   -0.003032  -0.012233   0.393145  -0.029831  -0.000000   0.000000
    19  H   -0.001603  -0.005668  -0.045971   0.367172  -0.000000   0.000000
    20  H   -0.002166   0.016371  -0.054831   0.370701   0.000000  -0.000000
              13         14         15         16         17         18
     1  Cl   0.000018  -0.000162   0.001089   0.003166   0.005683   0.000607
     2  C   -0.000455   0.009315   0.010680  -0.009952   0.002276   0.001365
     3  C    0.005133  -0.000226   0.000121  -0.000474   0.001685  -0.000450
     4  C   -0.035207   0.003377  -0.000161   0.000195  -0.000367   0.000013
     5  C    0.412141  -0.027888   0.001679  -0.000618   0.000700  -0.000295
     6  C   -0.035456   0.399153  -0.004404   0.002785   0.003235  -0.004052
     7  C    0.006586  -0.035387  -0.046577  -0.041845   0.012666  -0.003032
     8  C   -0.000340  -0.002671   0.412431   0.440519  -0.095409  -0.012233
     9  C    0.000055  -0.001783  -0.039629  -0.059872   0.469534   0.393145
    10  N   -0.000001   0.000170   0.013322   0.000071  -0.060565  -0.029831
    11  H   -0.000191   0.000052   0.000007  -0.000014   0.000046  -0.000000
    12  H   -0.003706  -0.000297   0.000000   0.000000  -0.000000   0.000000
    13  H    0.508258  -0.003285  -0.000015   0.000006   0.000005  -0.000004
    14  H   -0.003285   0.502230   0.001269   0.000235   0.000179   0.000425
    15  H   -0.000015   0.001269   0.511992  -0.017191   0.007945  -0.006575
    16  H    0.000006   0.000235  -0.017191   0.510016  -0.005850   0.006002
    17  H    0.000005   0.000179   0.007945  -0.005850   0.565958  -0.040475
    18  H   -0.000004   0.000425  -0.006575   0.006002  -0.040475   0.557541
    19  H   -0.000000  -0.000001  -0.000761   0.004329  -0.007526   0.008711
    20  H    0.000000  -0.000015  -0.000787  -0.000420  -0.003912  -0.006069
              19         20
     1  Cl   0.000509   0.000011
     2  C    0.000109  -0.000337
     3  C   -0.000016   0.000002
     4  C    0.000001  -0.000001
     5  C   -0.000001   0.000000
     6  C   -0.000124   0.000036
     7  C   -0.001603  -0.002166
     8  C   -0.005668   0.016371
     9  C   -0.045971  -0.054831
    10  N    0.367172   0.370701
    11  H   -0.000000   0.000000
    12  H    0.000000  -0.000000
    13  H   -0.000000   0.000000
    14  H   -0.000001  -0.000015
    15  H   -0.000761  -0.000787
    16  H    0.004329  -0.000420
    17  H   -0.007526  -0.003912
    18  H    0.008711  -0.006069
    19  H    0.483504  -0.033774
    20  H   -0.033774   0.484873
 Mulliken charges:
               1
     1  Cl  -0.095574
     2  C    0.023536
     3  C   -0.171655
     4  C   -0.142891
     5  C   -0.150857
     6  C   -0.156542
     7  C    0.104201
     8  C   -0.376487
     9  C   -0.156757
    10  N   -0.548229
    11  H    0.156911
    12  H    0.147270
    13  H    0.146458
    14  H    0.155311
    15  H    0.155564
    16  H    0.168914
    17  H    0.144192
    18  H    0.135207
    19  H    0.231110
    20  H    0.230318
 Sum of Mulliken charges =  -0.00000
 Mulliken charges with hydrogens summed into heavy atoms:
               1
     1  Cl  -0.095574
     2  C    0.023536
     3  C   -0.014744
     4  C    0.004380
     5  C   -0.004400
     6  C   -0.001231
     7  C    0.104201
     8  C   -0.052009
     9  C    0.122642
    10  N   -0.086801
 Electronic spatial extent (au):  <R**2>=           1917.1308
 Charge=             -0.0000 electrons
 Dipole moment (field-independent basis, Debye):
    X=             -0.5509    Y=             -0.5245    Z=             -0.8899  Tot=              1.1707
 Quadrupole moment (field-independent basis, Debye-Ang):
   XX=            -60.5791   YY=            -66.5955   ZZ=            -69.0014
   XY=              4.5572   XZ=             -1.7828   YZ=              0.4838
 Traceless Quadrupole moment (field-independent basis, Debye-Ang):
   XX=              4.8129   YY=             -1.2035   ZZ=             -3.6094
   XY=              4.5572   XZ=             -1.7828   YZ=              0.4838
 Octapole moment (field-independent basis, Debye-Ang**2):
  XXX=             -1.8688  YYY=             -0.5472  ZZZ=             -1.1711  XYY=             -7.3232
  XXY=             20.3799  XXZ=            -22.6779  XZZ=             13.3864  YZZ=              3.6893
  YYZ=             -0.5746  XYZ=              6.6898
 Hexadecapole moment (field-independent basis, Debye-Ang**3):
 XXXX=          -1491.8674 YYYY=           -766.8136 ZZZZ=           -156.4590 XXXY=             77.9671
 XXXZ=            -48.2021 YYYX=             23.7682 YYYZ=             -3.1594 ZZZX=            -10.1927
 ZZZY=              3.8512 XXYY=           -405.7956 XXZZ=           -291.6359 YYZZ=           -163.1265
 XXYZ=             25.2384 YYXZ=             -2.6155 ZZXY=             -9.5131
 N-N= 5.767596990524D+02 E-N=-3.096548656989D+03  KE= 8.233569618645D+02
 Unable to Open any file for archive entry.
 1\1\GINC-NOTCH331\SP\RM062X\def2TZVP\C8H10Cl1N1\U6032257\21-Feb-2022\0
 \\# M062X/def2tzvp int=(grid=ultrafine) nmr=giao guess=read geom=check
 \\N3.xyz\\0,1\Cl,0,-0.0871963284,2.53397327,1.2418720248\C,0,-0.993816
 8412,1.2060547686,0.5097536958\C,0,-2.3216979559,1.4454893406,0.161032
 3902\C,0,-3.0709450889,0.4241902076,-0.4189354127\C,0,-2.4874504219,-0
 .8226720572,-0.6414984051\C,0,-1.1598281014,-1.0393613352,-0.281240881
 \C,0,-0.3765719311,-0.0352127907,0.3048617203\C,0,1.0681146979,-0.2998
 163448,0.6424732154\C,0,2.0210783371,0.1698944092,-0.4672565328\N,0,3.
 4049518799,-0.1307572779,-0.0922873507\H,0,-2.7557267069,2.4215111519,
 0.3447908938\H,0,-4.1054949536,0.6059336018,-0.6918398179\H,0,-3.06464
 95235,-1.6245671392,-1.0905852569\H,0,-0.7052643775,-2.0114183124,-0.4
 507168811\H,0,1.2243891187,-1.3709447173,0.7990617002\H,0,1.3335348033
 ,0.2055918053,1.5773289749\H,0,1.8263024529,1.2340579404,-0.6778037573
 \H,0,1.7881342336,-0.380937026,-1.385910369\H,0,3.6769390801,0.4613903
 285,0.6902266391\H,0,4.0291976269,0.113300177,-0.8573265903\\Version=E
 S64L-G16RevC.01\State=1-A\HF=-825.7953317\RMSD=1.595e-09\Dipole=-0.199
 6879,-0.0294674,-0.4140015\Quadrupole=3.8868562,-1.8302029,-2.0566532,
 3.3195046,0.5398154,1.0559923\PG=C01 [X(C8H10Cl1N1)]\\@
 The archive entry for this job was punched.


 IT CANNOT BE MY BEAUTY, FOR I HAVE NONE; AND IT CANNOT BE MY WIT,
 FOR HE HAS NOT ENOUGH TO KNOW THAT I HAVE ANY.
 -- CATHARINE SEDLEY, PUZZLED ABOUT WHY SHE WAS MISTRESS TO JAMES II
 Job cpu time:       0 days  0 hours 24 minutes  6.0 seconds.
 Elapsed time:       0 days  0 hours  0 minutes 28.1 seconds.
 File lengths (MBytes):  RWF=     83 Int=      0 D2E=      0 Chk=     14 Scr=      1
 Normal termination of Gaussian 16 at Mon Feb 21 19:43:39 2022.
