 Entering Gaussian System, Link 0=/uufs/chpc.utah.edu/sys/installdir/gaussian16/C01/AVX2/g16/g16
 Input=N3_conf-3.com
 Output=N3_conf-3.log
 Initial command:
 /uufs/chpc.utah.edu/sys/installdir/gaussian16/C01/AVX2/g16/l1.exe "/scratch/local/u6032257/4038676/notchpeak.peaks/Gau-14082.inp" -scrdir="/scratch/local/u6032257/4038676/notchpeak.peaks/"
 Entering Link 1 = /uufs/chpc.utah.edu/sys/installdir/gaussian16/C01/AVX2/g16/l1.exe PID=     14084.
  
 Copyright (c) 1988-2019, Gaussian, Inc.  All Rights Reserved.
  
 This is part of the Gaussian(R) 16 program.  It is based on
 the Gaussian(R) 09 system (copyright 2009, Gaussian, Inc.),
 the Gaussian(R) 03 system (copyright 2003, Gaussian, Inc.),
 the Gaussian(R) 98 system (copyright 1998, Gaussian, Inc.),
 the Gaussian(R) 94 system (copyright 1995, Gaussian, Inc.),
 the Gaussian 92(TM) system (copyright 1992, Gaussian, Inc.),
 the Gaussian 90(TM) system (copyright 1990, Gaussian, Inc.),
 the Gaussian 88(TM) system (copyright 1988, Gaussian, Inc.),
 the Gaussian 86(TM) system (copyright 1986, Carnegie Mellon
 University), and the Gaussian 82(TM) system (copyright 1983,
 Carnegie Mellon University). Gaussian is a federally registered
 trademark of Gaussian, Inc.
  
 This software contains proprietary and confidential information,
 including trade secrets, belonging to Gaussian, Inc.
  
 This software is provided under written license and may be
 used, copied, transmitted, or stored only in accord with that
 written license.
  
 The following legend is applicable only to US Government
 contracts under FAR:
  
                    RESTRICTED RIGHTS LEGEND
  
 Use, reproduction and disclosure by the US Government is
 subject to restrictions as set forth in subparagraphs (a)
 and (c) of the Commercial Computer Software - Restricted
 Rights clause in FAR 52.227-19.
  
 Gaussian, Inc.
 340 Quinnipiac St., Bldg. 40, Wallingford CT 06492
  
  
 ---------------------------------------------------------------
 Warning -- This program may not be used in any manner that
 competes with the business of Gaussian, Inc. or will provide
 assistance to any competitor of Gaussian, Inc.  The licensee
 of this program is prohibited from giving any competitor of
 Gaussian, Inc. access to this program.  By using this program,
 the user acknowledges that Gaussian, Inc. is engaged in the
 business of creating and licensing software in the field of
 computational chemistry and represents and warrants to the
 licensee that it is not a competitor of Gaussian, Inc. and that
 it will not use this program in any manner prohibited above.
 ---------------------------------------------------------------
  

 Cite this work as:
 Gaussian 16, Revision C.01,
 M. J. Frisch, G. W. Trucks, H. B. Schlegel, G. E. Scuseria, 
 M. A. Robb, J. R. Cheeseman, G. Scalmani, V. Barone, 
 G. A. Petersson, H. Nakatsuji, X. Li, M. Caricato, A. V. Marenich, 
 J. Bloino, B. G. Janesko, R. Gomperts, B. Mennucci, H. P. Hratchian, 
 J. V. Ortiz, A. F. Izmaylov, J. L. Sonnenberg, D. Williams-Young, 
 F. Ding, F. Lipparini, F. Egidi, J. Goings, B. Peng, A. Petrone, 
 T. Henderson, D. Ranasinghe, V. G. Zakrzewski, J. Gao, N. Rega, 
 G. Zheng, W. Liang, M. Hada, M. Ehara, K. Toyota, R. Fukuda, 
 J. Hasegawa, M. Ishida, T. Nakajima, Y. Honda, O. Kitao, H. Nakai, 
 T. Vreven, K. Throssell, J. A. Montgomery, Jr., J. E. Peralta, 
 F. Ogliaro, M. J. Bearpark, J. J. Heyd, E. N. Brothers, K. N. Kudin, 
 V. N. Staroverov, T. A. Keith, R. Kobayashi, J. Normand, 
 K. Raghavachari, A. P. Rendell, J. C. Burant, S. S. Iyengar, 
 J. Tomasi, M. Cossi, J. M. Millam, M. Klene, C. Adamo, R. Cammi, 
 J. W. Ochterski, R. L. Martin, K. Morokuma, O. Farkas, 
 J. B. Foresman, and D. J. Fox, Gaussian, Inc., Wallingford CT, 2019.
 
 ******************************************
 Gaussian 16:  ES64L-G16RevC.01  3-Jul-2019
                21-Feb-2022 
 ******************************************
 %NProcShared=40
 Will use up to   40 processors via shared memory.
 %mem=16GB
 %chk=N3_conf-3.chk
 ----------------------------------------------------------------------
 # B3LYP/6-31G(d,p) empiricaldispersion=GD3BJ int=(grid=ultrafine) opt 
 freq=noraman
 ----------------------------------------------------------------------
 1/18=20,19=15,26=4,38=1/1,3;
 2/9=110,12=2,17=6,18=5,40=1/2;
 3/5=1,6=6,7=101,11=2,25=1,30=1,71=1,74=-5,75=-5,124=41/1,2,3;
 4//1;
 5/5=2,38=5/2;
 6/7=2,8=2,9=2,10=2,28=1/1;
 7//1,2,3,16;
 1/18=20,19=15,26=4/3(2);
 2/9=110/2;
 99//99;
 2/9=110/2;
 3/5=1,6=6,7=101,11=2,25=1,30=1,71=1,74=-5,75=-5,124=41/1,2,3;
 4/5=5,16=3,69=1/1;
 5/5=2,38=5/2;
 7//1,2,3,16;
 1/18=20,19=15,26=4/3(-5);
 2/9=110/2;
 6/7=2,8=2,9=2,10=2,19=2,28=1/1;
 99/9=1/99;
 ------
 N3.xyz
 ------
 Symbolic Z-matrix:
 Charge =  0 Multiplicity = 1
 Cl                    0.0277    2.5996    0.9856 
 C                    -0.8522    1.2278    0.4034 
 C                    -2.121     1.4406   -0.1379 
 C                    -2.8712    0.3697   -0.6226 
 C                    -2.3524   -0.9227   -0.5673 
 C                    -1.0853   -1.143    -0.0272 
 C                    -0.3238   -0.0747    0.4618 
 C                     1.0615   -0.3651    1.0428 
 C                     2.1845   -0.4601   -0.0068 
 N                     2.3436    0.796    -0.7172 
 H                    -2.5226    2.4426   -0.1801 
 H                    -3.8526    0.5427   -1.0405 
 H                    -2.9311   -1.7545   -0.9436 
 H                    -0.6931   -2.1496    0.006 
 H                     1.0116   -1.3105    1.5842 
 H                     1.3133    0.365     1.8124 
 H                     1.969    -1.2561   -0.723 
 H                     3.1285   -0.7225    0.4757 
 H                     1.4669    1.0349   -1.164 
 H                     2.5184    1.5481   -0.0636 
 

 GradGradGradGradGradGradGradGradGradGradGradGradGradGradGradGradGradGrad
 Berny optimization.
 Initialization pass.
                           ----------------------------
                           !    Initial Parameters    !
                           ! (Angstroms and Degrees)  !
 --------------------------                            --------------------------
 ! Name  Definition              Value          Derivative Info.                !
 --------------------------------------------------------------------------------
 ! R1    R(1,2)                  1.7306         estimate D2E/DX2                !
 ! R2    R(2,3)                  1.3958         estimate D2E/DX2                !
 ! R3    R(2,7)                  1.4068         estimate D2E/DX2                !
 ! R4    R(3,4)                  1.3945         estimate D2E/DX2                !
 ! R5    R(3,11)                 1.0803         estimate D2E/DX2                !
 ! R6    R(4,5)                  1.3937         estimate D2E/DX2                !
 ! R7    R(4,12)                 1.0806         estimate D2E/DX2                !
 ! R8    R(5,6)                  1.3949         estimate D2E/DX2                !
 ! R9    R(5,13)                 1.0809         estimate D2E/DX2                !
 ! R10   R(6,7)                  1.4001         estimate D2E/DX2                !
 ! R11   R(6,14)                 1.0808         estimate D2E/DX2                !
 ! R12   R(7,8)                  1.53           estimate D2E/DX2                !
 ! R13   R(8,9)                  1.5401         estimate D2E/DX2                !
 ! R14   R(8,15)                 1.0906         estimate D2E/DX2                !
 ! R15   R(8,16)                 1.0903         estimate D2E/DX2                !
 ! R16   R(9,10)                 1.4518         estimate D2E/DX2                !
 ! R17   R(9,17)                 1.0922         estimate D2E/DX2                !
 ! R18   R(9,18)                 1.0922         estimate D2E/DX2                !
 ! R19   R(10,19)                1.0126         estimate D2E/DX2                !
 ! R20   R(10,20)                1.0116         estimate D2E/DX2                !
 ! A1    A(1,2,3)              118.1513         estimate D2E/DX2                !
 ! A2    A(1,2,7)              121.9352         estimate D2E/DX2                !
 ! A3    A(3,2,7)              119.9135         estimate D2E/DX2                !
 ! A4    A(2,3,4)              120.4483         estimate D2E/DX2                !
 ! A5    A(2,3,11)             119.6362         estimate D2E/DX2                !
 ! A6    A(4,3,11)             119.9155         estimate D2E/DX2                !
 ! A7    A(3,4,5)              119.8726         estimate D2E/DX2                !
 ! A8    A(3,4,12)             120.0042         estimate D2E/DX2                !
 ! A9    A(5,4,12)             120.1232         estimate D2E/DX2                !
 ! A10   A(4,5,6)              119.996          estimate D2E/DX2                !
 ! A11   A(4,5,13)             120.0316         estimate D2E/DX2                !
 ! A12   A(6,5,13)             119.9724         estimate D2E/DX2                !
 ! A13   A(5,6,7)              120.5828         estimate D2E/DX2                !
 ! A14   A(5,6,14)             119.2489         estimate D2E/DX2                !
 ! A15   A(7,6,14)             120.1677         estimate D2E/DX2                !
 ! A16   A(2,7,6)              119.1868         estimate D2E/DX2                !
 ! A17   A(2,7,8)              122.1114         estimate D2E/DX2                !
 ! A18   A(6,7,8)              118.7019         estimate D2E/DX2                !
 ! A19   A(7,8,9)              114.4014         estimate D2E/DX2                !
 ! A20   A(7,8,15)             108.1567         estimate D2E/DX2                !
 ! A21   A(7,8,16)             110.4902         estimate D2E/DX2                !
 ! A22   A(9,8,15)             108.5554         estimate D2E/DX2                !
 ! A23   A(9,8,16)             110.7304         estimate D2E/DX2                !
 ! A24   A(15,8,16)            103.9246         estimate D2E/DX2                !
 ! A25   A(8,9,10)             111.1016         estimate D2E/DX2                !
 ! A26   A(8,9,17)             110.3634         estimate D2E/DX2                !
 ! A27   A(8,9,18)             110.1209         estimate D2E/DX2                !
 ! A28   A(10,9,17)            109.3476         estimate D2E/DX2                !
 ! A29   A(10,9,18)            109.2278         estimate D2E/DX2                !
 ! A30   A(17,9,18)            106.5665         estimate D2E/DX2                !
 ! A31   A(9,10,19)            108.9752         estimate D2E/DX2                !
 ! A32   A(9,10,20)            110.2443         estimate D2E/DX2                !
 ! A33   A(19,10,20)           105.0276         estimate D2E/DX2                !
 ! D1    D(1,2,3,4)            179.9244         estimate D2E/DX2                !
 ! D2    D(1,2,3,11)            -0.1055         estimate D2E/DX2                !
 ! D3    D(7,2,3,4)              0.0009         estimate D2E/DX2                !
 ! D4    D(7,2,3,11)           179.9709         estimate D2E/DX2                !
 ! D5    D(1,2,7,6)           -179.9394         estimate D2E/DX2                !
 ! D6    D(1,2,7,8)             -0.0011         estimate D2E/DX2                !
 ! D7    D(3,2,7,6)             -0.0188         estimate D2E/DX2                !
 ! D8    D(3,2,7,8)            179.9195         estimate D2E/DX2                !
 ! D9    D(2,3,4,5)             -0.0083         estimate D2E/DX2                !
 ! D10   D(2,3,4,12)          -179.9796         estimate D2E/DX2                !
 ! D11   D(11,3,4,5)          -179.9783         estimate D2E/DX2                !
 ! D12   D(11,3,4,12)            0.0504         estimate D2E/DX2                !
 ! D13   D(3,4,5,6)              0.0339         estimate D2E/DX2                !
 ! D14   D(3,4,5,13)          -179.9103         estimate D2E/DX2                !
 ! D15   D(12,4,5,6)          -179.9948         estimate D2E/DX2                !
 ! D16   D(12,4,5,13)            0.061          estimate D2E/DX2                !
 ! D17   D(4,5,6,7)             -0.0524         estimate D2E/DX2                !
 ! D18   D(4,5,6,14)          -179.7512         estimate D2E/DX2                !
 ! D19   D(13,5,6,7)           179.8918         estimate D2E/DX2                !
 ! D20   D(13,5,6,14)            0.193          estimate D2E/DX2                !
 ! D21   D(5,6,7,2)              0.0447         estimate D2E/DX2                !
 ! D22   D(5,6,7,8)           -179.8958         estimate D2E/DX2                !
 ! D23   D(14,6,7,2)           179.7407         estimate D2E/DX2                !
 ! D24   D(14,6,7,8)            -0.1997         estimate D2E/DX2                !
 ! D25   D(2,7,8,9)            -96.1846         estimate D2E/DX2                !
 ! D26   D(2,7,8,15)           142.7165         estimate D2E/DX2                !
 ! D27   D(2,7,8,16)            29.5808         estimate D2E/DX2                !
 ! D28   D(6,7,8,9)             83.7541         estimate D2E/DX2                !
 ! D29   D(6,7,8,15)           -37.3449         estimate D2E/DX2                !
 ! D30   D(6,7,8,16)          -150.4806         estimate D2E/DX2                !
 ! D31   D(7,8,9,10)            61.9485         estimate D2E/DX2                !
 ! D32   D(7,8,9,17)           -59.5192         estimate D2E/DX2                !
 ! D33   D(7,8,9,18)          -176.8989         estimate D2E/DX2                !
 ! D34   D(15,8,9,10)         -177.1727         estimate D2E/DX2                !
 ! D35   D(15,8,9,17)           61.3596         estimate D2E/DX2                !
 ! D36   D(15,8,9,18)          -56.0201         estimate D2E/DX2                !
 ! D37   D(16,8,9,10)          -63.6911         estimate D2E/DX2                !
 ! D38   D(16,8,9,17)          174.8411         estimate D2E/DX2                !
 ! D39   D(16,8,9,18)           57.4614         estimate D2E/DX2                !
 ! D40   D(8,9,10,19)          -58.4039         estimate D2E/DX2                !
 ! D41   D(8,9,10,20)           56.3706         estimate D2E/DX2                !
 ! D42   D(17,9,10,19)          63.6563         estimate D2E/DX2                !
 ! D43   D(17,9,10,20)         178.4308         estimate D2E/DX2                !
 ! D44   D(18,9,10,19)         179.9207         estimate D2E/DX2                !
 ! D45   D(18,9,10,20)         -65.3048         estimate D2E/DX2                !
 --------------------------------------------------------------------------------
 Trust Radius=3.00D-01 FncErr=1.00D-07 GrdErr=1.00D-06 EigMax=2.50D+02 EigMin=1.00D-04
 Number of steps in this run=    108 maximum allowed number of steps=    120.
 GradGradGradGradGradGradGradGradGradGradGradGradGradGradGradGradGradGrad

                          Input orientation:                          
 ---------------------------------------------------------------------
 Center     Atomic      Atomic             Coordinates (Angstroms)
 Number     Number       Type             X           Y           Z
 ---------------------------------------------------------------------
      1         17           0        0.027700    2.599600    0.985600
      2          6           0       -0.852200    1.227800    0.403400
      3          6           0       -2.121000    1.440600   -0.137900
      4          6           0       -2.871200    0.369700   -0.622600
      5          6           0       -2.352400   -0.922700   -0.567300
      6          6           0       -1.085300   -1.143000   -0.027200
      7          6           0       -0.323800   -0.074700    0.461800
      8          6           0        1.061500   -0.365100    1.042800
      9          6           0        2.184500   -0.460100   -0.006800
     10          7           0        2.343600    0.796000   -0.717200
     11          1           0       -2.522600    2.442600   -0.180100
     12          1           0       -3.852600    0.542700   -1.040500
     13          1           0       -2.931100   -1.754500   -0.943600
     14          1           0       -0.693100   -2.149600    0.006000
     15          1           0        1.011600   -1.310500    1.584200
     16          1           0        1.313300    0.365000    1.812400
     17          1           0        1.969000   -1.256100   -0.723000
     18          1           0        3.128500   -0.722500    0.475700
     19          1           0        1.466900    1.034900   -1.164000
     20          1           0        2.518400    1.548100   -0.063600
 ---------------------------------------------------------------------
                    Distance matrix (angstroms):
                    1          2          3          4          5
     1  Cl   0.000000
     2  C    1.730611   0.000000
     3  C    2.687461   1.395759   0.000000
     4  C    3.995295   2.421853   1.394475   0.000000
     5  C    4.525812   2.795981   2.413114   1.393739   0.000000
     6  C    4.033806   2.420836   2.785663   2.414995   1.394913
     7  C    2.747690   1.406813   2.426047   2.804044   2.427626
     8  C    3.140296   2.570683   3.844855   4.333546   3.815502
     9  C    3.872778   3.498402   4.708203   5.160221   4.594738
    10  N    3.393508   3.413991   4.547939   5.233051   5.002881
    11  H    2.808476   2.146264   1.080309   2.148079   3.391775
    12  H    4.836595   3.399501   2.149267   1.080609   2.149864
    13  H    5.606648   3.876899   3.393240   2.149152   1.080919
    14  H    4.902455   3.404419   3.866412   3.389119   2.141783
    15  H    4.076182   3.363184   4.510805   4.771706   4.011962
    16  H    2.707361   2.723802   4.093287   4.841414   4.556150
    17  H    4.642670   3.923991   4.933825   5.106941   4.337038
    18  H    4.572888   4.433381   5.710758   6.196415   5.582848
    19  H    3.023303   2.805740   3.753731   4.422072   4.333048
    20  H    2.900010   3.417839   4.641240   5.545169   5.484821
                    6          7          8          9         10
     6  C    0.000000
     7  C    1.400096   0.000000
     8  C    2.521662   1.530016   0.000000
     9  C    3.340413   2.580637   1.540070   0.000000
    10  N    3.999147   3.043548   2.467698   1.451815   0.000000
    11  H    3.865972   3.403462   4.714280   5.532856   5.165237
    12  H    3.395042   3.884652   5.414113   6.206506   6.209797
    13  H    2.149581   3.405127   4.670875   5.359331   5.863341
    14  H    1.080818   2.156234   2.708877   3.336938   4.291984
    15  H    2.649841   2.137821   1.090589   2.151780   3.392346
    16  H    3.378087   2.167384   1.090291   2.179282   2.765168
    17  H    3.134594   2.838378   2.176117   1.092245   2.086019
    18  H    4.264486   3.512579   2.172976   1.092152   2.084447
    19  H    3.542497   2.661023   2.644677   2.022149   1.012574
    20  H    4.497777   3.314759   2.647076   2.036561   1.011634
                   11         12         13         14         15
    11  H    0.000000
    12  H    2.473622   0.000000
    13  H    4.285493   2.477030   0.000000
    14  H    4.946717   4.280897   2.463024   0.000000
    15  H    5.448769   5.829566   4.704444   2.469981   0.000000
    16  H    4.795895   5.903993   5.486597   3.689436   1.717672
    17  H    5.843765   6.101435   4.930319   2.901131   2.498549
    18  H    6.510212   7.255022   6.308581   4.106319   2.460850
    19  H    4.343477   5.343650   5.212651   4.021883   3.641538
    20  H    5.121072   6.523404   6.432621   4.898118   3.627297
                   16         17         18         19         20
    16  H    0.000000
    17  H    3.079961   0.000000
    18  H    2.502873   1.751014   0.000000
    19  H    3.054720   2.386476   2.921983   0.000000
    20  H    2.524157   2.932607   2.412196   1.606209   0.000000
 Stoichiometry    C8H10ClN
 Framework group  C1[X(C8H10ClN)]
 Deg. of freedom    54
 Full point group                 C1      NOp   1
 Largest Abelian subgroup         C1      NOp   1
 Largest concise Abelian subgroup C1      NOp   1
                         Standard orientation:                         
 ---------------------------------------------------------------------
 Center     Atomic      Atomic             Coordinates (Angstroms)
 Number     Number       Type             X           Y           Z
 ---------------------------------------------------------------------
      1         17           0       -0.567919    2.083573   -0.262478
      2          6           0        0.510450    0.736573   -0.129330
      3          6           0        1.814778    0.977665    0.305120
      4          6           0        2.723138   -0.072827    0.431253
      5          6           0        2.327985   -1.373131    0.122107
      6          6           0        1.026216   -1.621525   -0.313186
      7          6           0        0.106377   -0.573980   -0.442857
      8          6           0       -1.310785   -0.895549   -0.921599
      9          6           0       -2.266244   -1.367384    0.190284
     10          7           0       -2.446947   -0.336485    1.196446
     11          1           0        2.120431    1.985868    0.544221
     12          1           0        3.731106    0.121946    0.768567
     13          1           0        3.029564   -2.189540    0.220342
     14          1           0        0.731496   -2.635044   -0.545751
     15          1           0       -1.244565   -1.678675   -1.677717
     16          1           0       -1.733769   -0.046677   -1.459404
     17          1           0       -1.879999   -2.272260    0.664638
     18          1           0       -3.237547   -1.629059   -0.235031
     19          1           0       -1.544608   -0.097797    1.589025
     20          1           0       -2.780336    0.516831    0.767370
 ---------------------------------------------------------------------
 Rotational constants (GHZ):           1.4969533           1.0219316           0.6904210
 Standard basis: 6-31G(d,p) (6D, 7F)
 There are   204 symmetry adapted cartesian basis functions of A   symmetry.
 There are   204 symmetry adapted basis functions of A   symmetry.
   204 basis functions,   374 primitive gaussians,   204 cartesian basis functions
    41 alpha electrons       41 beta electrons
       nuclear repulsion energy       591.1002156775 Hartrees.
 NAtoms=   20 NActive=   20 NUniq=   20 SFac= 1.00D+00 NAtFMM=   60 NAOKFM=F Big=F
 Integral buffers will be    131072 words long.
 Raffenetti 2 integral format.
 Two-electron integral symmetry is turned on.
 Nuclear repulsion after empirical dispersion term =      591.0598342761 Hartrees.
 One-electron integrals computed using PRISM.
 NBasis=   204 RedAO= T EigKep=  4.48D-04  NBF=   204
 NBsUse=   204 1.00D-06 EigRej= -1.00D+00 NBFU=   204
 ExpMin= 1.43D-01 ExpMax= 2.52D+04 ExpMxC= 3.78D+03 IAcc=3 IRadAn=         5 AccDes= 0.00D+00
 Harris functional with IExCor=  402 and IRadAn=       5 diagonalized for initial guess.
 HarFok:  IExCor=  402 AccDes= 0.00D+00 IRadAn=         5 IDoV= 1 UseB2=F ITyADJ=14
 ICtDFT=  3500011 ScaDFX=  1.000000  1.000000  1.000000  1.000000
 FoFCou: FMM=F IPFlag=           0 FMFlag=      100000 FMFlg1=           0
         NFxFlg=           0 DoJE=T BraDBF=F KetDBF=T FulRan=T
         wScrn=  0.000000 ICntrl=       500 IOpCl=  0 I1Cent=   200000004 NGrid=           0
         NMat0=    1 NMatS0=      1 NMatT0=    0 NMatD0=    1 NMtDS0=    0 NMtDT0=    0
 Petite list used in FoFCou.
 Requested convergence on RMS density matrix=1.00D-08 within 128 cycles.
 Requested convergence on MAX density matrix=1.00D-06.
 Requested convergence on             energy=1.00D-06.
 No special actions if energy rises.
 Integral accuracy reduced to 1.0D-05 until final iterations.
 Initial convergence to 1.0D-05 achieved.  Increase integral accuracy.
 SCF Done:  E(RB3LYP) =  -825.870504295     A.U. after   14 cycles
            NFock= 14  Conv=0.50D-08     -V/T= 2.0059

 **********************************************************************

            Population analysis using the SCF Density.

 **********************************************************************

 Orbital symmetries:
       Occupied  (A) (A) (A) (A) (A) (A) (A) (A) (A) (A) (A) (A)
                 (A) (A) (A) (A) (A) (A) (A) (A) (A) (A) (A) (A)
                 (A) (A) (A) (A) (A) (A) (A) (A) (A) (A) (A) (A)
                 (A) (A) (A) (A) (A)
       Virtual   (A) (A) (A) (A) (A) (A) (A) (A) (A) (A) (A) (A)
                 (A) (A) (A) (A) (A) (A) (A) (A) (A) (A) (A) (A)
                 (A) (A) (A) (A) (A) (A) (A) (A) (A) (A) (A) (A)
                 (A) (A) (A) (A) (A) (A) (A) (A) (A) (A) (A) (A)
                 (A) (A) (A) (A) (A) (A) (A) (A) (A) (A) (A) (A)
                 (A) (A) (A) (A) (A) (A) (A) (A) (A) (A) (A) (A)
                 (A) (A) (A) (A) (A) (A) (A) (A) (A) (A) (A) (A)
                 (A) (A) (A) (A) (A) (A) (A) (A) (A) (A) (A) (A)
                 (A) (A) (A) (A) (A) (A) (A) (A) (A) (A) (A) (A)
                 (A) (A) (A) (A) (A) (A) (A) (A) (A) (A) (A) (A)
                 (A) (A) (A) (A) (A) (A) (A) (A) (A) (A) (A) (A)
                 (A) (A) (A) (A) (A) (A) (A) (A) (A) (A) (A) (A)
                 (A) (A) (A) (A) (A) (A) (A) (A) (A) (A) (A) (A)
                 (A) (A) (A) (A) (A) (A) (A)
 The electronic state is 1-A.
 Alpha  occ. eigenvalues -- -101.55478 -14.29972 -10.25357 -10.21284 -10.20662
 Alpha  occ. eigenvalues --  -10.20453 -10.20131 -10.20112 -10.19943 -10.18709
 Alpha  occ. eigenvalues --   -9.47140  -7.23522  -7.22574  -7.22535  -0.90173
 Alpha  occ. eigenvalues --   -0.87669  -0.84158  -0.77962  -0.74008  -0.70886
 Alpha  occ. eigenvalues --   -0.63217  -0.60995  -0.58291  -0.51826  -0.49204
 Alpha  occ. eigenvalues --   -0.47829  -0.46446  -0.43690  -0.43004  -0.42731
 Alpha  occ. eigenvalues --   -0.41651  -0.38527  -0.37862  -0.36844  -0.35017
 Alpha  occ. eigenvalues --   -0.34310  -0.33831  -0.31318  -0.25968  -0.24812
 Alpha  occ. eigenvalues --   -0.22200
 Alpha virt. eigenvalues --   -0.01572  -0.01375   0.03525   0.09656   0.10748
 Alpha virt. eigenvalues --    0.12356   0.13093   0.14340   0.15240   0.16649
 Alpha virt. eigenvalues --    0.17097   0.17608   0.18401   0.19491   0.22923
 Alpha virt. eigenvalues --    0.24370   0.27169   0.28051   0.29521   0.30778
 Alpha virt. eigenvalues --    0.32648   0.40326   0.41205   0.45251   0.46222
 Alpha virt. eigenvalues --    0.46706   0.51690   0.52257   0.53319   0.54713
 Alpha virt. eigenvalues --    0.56589   0.56846   0.57561   0.59375   0.59864
 Alpha virt. eigenvalues --    0.60245   0.60737   0.61548   0.63423   0.65113
 Alpha virt. eigenvalues --    0.66468   0.71291   0.72093   0.74501   0.75295
 Alpha virt. eigenvalues --    0.77295   0.78494   0.80568   0.80689   0.81544
 Alpha virt. eigenvalues --    0.82721   0.83455   0.85122   0.86218   0.88889
 Alpha virt. eigenvalues --    0.91239   0.91414   0.92541   0.92939   0.94794
 Alpha virt. eigenvalues --    0.96044   0.96405   0.98618   1.01956   1.02838
 Alpha virt. eigenvalues --    1.06036   1.09378   1.10889   1.13524   1.14937
 Alpha virt. eigenvalues --    1.19287   1.24371   1.27249   1.32403   1.33940
 Alpha virt. eigenvalues --    1.38214   1.39976   1.40417   1.40848   1.44055
 Alpha virt. eigenvalues --    1.47141   1.49662   1.50571   1.53456   1.59768
 Alpha virt. eigenvalues --    1.71749   1.74451   1.77570   1.81196   1.82250
 Alpha virt. eigenvalues --    1.85143   1.85659   1.86972   1.88711   1.92938
 Alpha virt. eigenvalues --    1.96924   1.97861   1.98637   1.98758   1.99787
 Alpha virt. eigenvalues --    2.01048   2.05891   2.08915   2.12377   2.13399
 Alpha virt. eigenvalues --    2.17762   2.19440   2.21316   2.26227   2.28215
 Alpha virt. eigenvalues --    2.28824   2.29981   2.31020   2.32727   2.36958
 Alpha virt. eigenvalues --    2.37935   2.39297   2.41785   2.45164   2.46296
 Alpha virt. eigenvalues --    2.46832   2.49038   2.51158   2.53910   2.55916
 Alpha virt. eigenvalues --    2.58214   2.60251   2.63519   2.66607   2.69713
 Alpha virt. eigenvalues --    2.70999   2.72489   2.75646   2.78661   2.84057
 Alpha virt. eigenvalues --    2.87759   2.91465   2.93958   2.98093   2.99991
 Alpha virt. eigenvalues --    3.04467   3.18855   3.24013   3.27287   3.30434
 Alpha virt. eigenvalues --    3.31017   3.34016   3.35574   3.40693   3.46487
 Alpha virt. eigenvalues --    3.52667   3.60845   3.82797   3.98966   4.09153
 Alpha virt. eigenvalues --    4.13380   4.16366   4.29523   4.38578   4.41975
 Alpha virt. eigenvalues --    4.50713   4.65704   4.79747
          Condensed to atoms (all electrons):
               1          2          3          4          5          6
     1  Cl  16.926613   0.234519  -0.077386   0.004779   0.000298   0.004245
     2  C    0.234519   5.123368   0.504557  -0.039296  -0.042443  -0.042302
     3  C   -0.077386   0.504557   4.870427   0.538870  -0.029044  -0.045202
     4  C    0.004779  -0.039296   0.538870   4.798239   0.545609  -0.038510
     5  C    0.000298  -0.042443  -0.029044   0.545609   4.824817   0.521444
     6  C    0.004245  -0.042302  -0.045202  -0.038510   0.521444   4.877808
     7  C   -0.076224   0.496927  -0.029023  -0.032378  -0.026098   0.542146
     8  C   -0.007182  -0.058323   0.005791   0.000343   0.006105  -0.048272
     9  C   -0.000491  -0.002758  -0.000114   0.000020  -0.000030  -0.003597
    10  N   -0.002211   0.001468  -0.000190   0.000019   0.000005  -0.000814
    11  H   -0.000966  -0.040938   0.370151  -0.036122   0.004537   0.000856
    12  H   -0.000185   0.004915  -0.040487   0.371648  -0.040727   0.004622
    13  H    0.000014   0.000979   0.004716  -0.041001   0.366204  -0.037233
    14  H   -0.000146   0.005852   0.000421   0.004706  -0.043342   0.370599
    15  H    0.000530   0.005522  -0.000200   0.000011   0.000175  -0.009715
    16  H    0.005342  -0.010008   0.000177   0.000003  -0.000234   0.003968
    17  H   -0.000044  -0.000017  -0.000006  -0.000002  -0.000128   0.003311
    18  H   -0.000033  -0.000003   0.000001  -0.000000   0.000003   0.000026
    19  H    0.000096   0.004323  -0.000210  -0.000022  -0.000080   0.000458
    20  H    0.005097  -0.000088   0.000027  -0.000001  -0.000000   0.000011
               7          8          9         10         11         12
     1  Cl  -0.076224  -0.007182  -0.000491  -0.002211  -0.000966  -0.000185
     2  C    0.496927  -0.058323  -0.002758   0.001468  -0.040938   0.004915
     3  C   -0.029023   0.005791  -0.000114  -0.000190   0.370151  -0.040487
     4  C   -0.032378   0.000343   0.000020   0.000019  -0.036122   0.371648
     5  C   -0.026098   0.006105  -0.000030   0.000005   0.004537  -0.040727
     6  C    0.542146  -0.048272  -0.003597  -0.000814   0.000856   0.004622
     7  C    4.779521   0.358633  -0.038432  -0.006382   0.003591   0.000728
     8  C    0.358633   5.136070   0.347293  -0.082644  -0.000166   0.000006
     9  C   -0.038432   0.347293   4.782865   0.346386   0.000001   0.000000
    10  N   -0.006382  -0.082644   0.346386   6.703487  -0.000004   0.000000
    11  H    0.003591  -0.000166   0.000001  -0.000004   0.599339  -0.006432
    12  H    0.000728   0.000006   0.000000   0.000000  -0.006432   0.617264
    13  H    0.004188  -0.000179   0.000000   0.000000  -0.000187  -0.005987
    14  H   -0.042978  -0.009654   0.000406   0.000035   0.000016  -0.000210
    15  H   -0.028700   0.334289  -0.026645   0.006880   0.000002  -0.000000
    16  H   -0.030319   0.377277  -0.033023  -0.005528   0.000001  -0.000000
    17  H   -0.005942  -0.049482   0.389062  -0.038739   0.000000  -0.000000
    18  H    0.004954  -0.043230   0.382395  -0.037171  -0.000000   0.000000
    19  H    0.010252  -0.008481  -0.046568   0.352311  -0.000009   0.000000
    20  H   -0.001751  -0.001294  -0.045552   0.353518  -0.000000   0.000000
              13         14         15         16         17         18
     1  Cl   0.000014  -0.000146   0.000530   0.005342  -0.000044  -0.000033
     2  C    0.000979   0.005852   0.005522  -0.010008  -0.000017  -0.000003
     3  C    0.004716   0.000421  -0.000200   0.000177  -0.000006   0.000001
     4  C   -0.041001   0.004706   0.000011   0.000003  -0.000002  -0.000000
     5  C    0.366204  -0.043342   0.000175  -0.000234  -0.000128   0.000003
     6  C   -0.037233   0.370599  -0.009715   0.003968   0.003311   0.000026
     7  C    0.004188  -0.042978  -0.028700  -0.030319  -0.005942   0.004954
     8  C   -0.000179  -0.009654   0.334289   0.377277  -0.049482  -0.043230
     9  C    0.000000   0.000406  -0.026645  -0.033023   0.389062   0.382395
    10  N    0.000000   0.000035   0.006880  -0.005528  -0.038739  -0.037171
    11  H   -0.000187   0.000016   0.000002   0.000001   0.000000  -0.000000
    12  H   -0.005987  -0.000210  -0.000000  -0.000000  -0.000000   0.000000
    13  H    0.622696  -0.005778  -0.000007   0.000003   0.000003  -0.000000
    14  H   -0.005778   0.622213   0.004201   0.000147   0.001047  -0.000081
    15  H   -0.000007   0.004201   0.657189  -0.036910  -0.001384  -0.000180
    16  H    0.000003   0.000147  -0.036910   0.610356   0.005401  -0.004544
    17  H    0.000003   0.001047  -0.001384   0.005401   0.627314  -0.035788
    18  H   -0.000000  -0.000081  -0.000180  -0.004544  -0.035788   0.626723
    19  H   -0.000001   0.000015   0.000167  -0.000385  -0.005818   0.006967
    20  H   -0.000000   0.000001   0.000002   0.004024   0.006599  -0.005739
              19         20
     1  Cl   0.000096   0.005097
     2  C    0.004323  -0.000088
     3  C   -0.000210   0.000027
     4  C   -0.000022  -0.000001
     5  C   -0.000080  -0.000000
     6  C    0.000458   0.000011
     7  C    0.010252  -0.001751
     8  C   -0.008481  -0.001294
     9  C   -0.046568  -0.045552
    10  N    0.352311   0.353518
    11  H   -0.000009  -0.000000
    12  H    0.000000   0.000000
    13  H   -0.000001  -0.000000
    14  H    0.000015   0.000001
    15  H    0.000167   0.000002
    16  H   -0.000385   0.004024
    17  H   -0.005818   0.006599
    18  H    0.006967  -0.005739
    19  H    0.486546  -0.039830
    20  H   -0.039830   0.484558
 Mulliken charges:
               1
     1  Cl  -0.016665
     2  C   -0.146255
     3  C   -0.073276
     4  C   -0.076916
     5  C   -0.087073
     6  C   -0.103851
     7  C    0.117286
     8  C   -0.256900
     9  C   -0.051218
    10  N   -0.590428
    11  H    0.106329
    12  H    0.094843
    13  H    0.091569
    14  H    0.092531
    15  H    0.094770
    16  H    0.114253
    17  H    0.104614
    18  H    0.105700
    19  H    0.240267
    20  H    0.240419
 Sum of Mulliken charges =  -0.00000
 Mulliken charges with hydrogens summed into heavy atoms:
               1
     1  Cl  -0.016665
     2  C   -0.146255
     3  C    0.033053
     4  C    0.017927
     5  C    0.004496
     6  C   -0.011320
     7  C    0.117286
     8  C   -0.047877
     9  C    0.159096
    10  N   -0.109741
 Electronic spatial extent (au):  <R**2>=           1701.8541
 Charge=             -0.0000 electrons
 Dipole moment (field-independent basis, Debye):
    X=              1.7826    Y=             -0.8579    Z=             -0.8806  Tot=              2.1654
 Quadrupole moment (field-independent basis, Debye-Ang):
   XX=            -64.6586   YY=            -63.1214   ZZ=            -70.4189
   XY=             -1.3437   XZ=              6.7681   YZ=              2.5686
 Traceless Quadrupole moment (field-independent basis, Debye-Ang):
   XX=              1.4077   YY=              2.9449   ZZ=             -4.3526
   XY=             -1.3437   XZ=              6.7681   YZ=              2.5686
 Octapole moment (field-independent basis, Debye-Ang**2):
  XXX=             19.3565  YYY=             -1.1774  ZZZ=             -4.0074  XYY=              0.8057
  XXY=              8.1768  XXZ=            -10.1363  XZZ=              3.3236  YZZ=              5.4722
  YYZ=              0.4154  XYZ=             -3.1198
 Hexadecapole moment (field-independent basis, Debye-Ang**3):
 XXXX=          -1236.8646 YYYY=           -757.3229 ZZZZ=           -222.5122 XXXY=            -29.7072
 XXXZ=             74.4720 YYYX=            -13.5085 YYYZ=              3.4987 ZZZX=             14.9716
 ZZZY=              2.2543 XXYY=           -315.9392 XXZZ=           -285.4166 YYZZ=           -170.1042
 XXYZ=             13.2443 YYXZ=              3.2060 ZZXY=             -5.3347
 N-N= 5.910598342761D+02 E-N=-3.122762816177D+03  KE= 8.209875242503D+02
 Calling FoFJK, ICntrl=      2127 FMM=F ISym2X=0 I1Cent= 0 IOpClX= 0 NMat=1 NMatS=1 NMatT=0.
 ***** Axes restored to original set *****
 -------------------------------------------------------------------
 Center     Atomic                   Forces (Hartrees/Bohr)
 Number     Number              X              Y              Z
 -------------------------------------------------------------------
      1       17           0.005772502    0.010568972    0.005671423
      2        6          -0.012029700   -0.018919666   -0.009299519
      3        6          -0.002960444    0.000231522   -0.001130731
      4        6           0.005143314   -0.000482708    0.002197808
      5        6           0.002515963    0.000258164    0.000584466
      6        6          -0.008860372    0.009559737   -0.003945919
      7        6           0.020238548   -0.000942176    0.009447063
      8        6          -0.008354829   -0.012237525    0.005514528
      9        6          -0.008189335    0.011949740    0.004535212
     10        7           0.009813416   -0.000428858   -0.013070779
     11        1          -0.000454561    0.003120073    0.000263850
     12        1          -0.002701966    0.001501464   -0.000924798
     13        1          -0.001702528   -0.002590567   -0.000963251
     14        1           0.003451651   -0.002033313    0.001791002
     15        1          -0.002753381   -0.005945409    0.001216882
     16        1           0.002035511    0.005100711   -0.002166146
     17        1          -0.001711132   -0.001032188   -0.002067641
     18        1           0.001332089   -0.000189130    0.002364640
     19        1          -0.002390418    0.000762642   -0.003397593
     20        1           0.001805674    0.001748514    0.003379502
 -------------------------------------------------------------------
 Cartesian Forces:  Max     0.020238548 RMS     0.006361796

 GradGradGradGradGradGradGradGradGradGradGradGradGradGradGradGradGradGrad
 Berny optimization.
 FormGI is forming the generalized inverse of G from B-inverse, IUseBI=4.
 Internal  Forces:  Max     0.026209314 RMS     0.004275443
 Search for a local minimum.
 Step number   1 out of a maximum of  108
 All quantities printed in internal units (Hartrees-Bohrs-Radians)
 Mixed Optimization -- RFO/linear search
 Second derivative matrix not updated -- first step.
 ITU=  0
     Eigenvalues ---    0.00236   0.00369   0.01006   0.01370   0.02047
     Eigenvalues ---    0.02075   0.02120   0.02137   0.02153   0.02162
     Eigenvalues ---    0.02163   0.02167   0.03640   0.04272   0.04675
     Eigenvalues ---    0.05221   0.05389   0.09313   0.09658   0.12737
     Eigenvalues ---    0.13069   0.16000   0.16000   0.16000   0.16000
     Eigenvalues ---    0.16000   0.16000   0.21874   0.21902   0.22000
     Eigenvalues ---    0.22490   0.24479   0.25000   0.25000   0.28513
     Eigenvalues ---    0.29422   0.32444   0.34555   0.34565   0.34745
     Eigenvalues ---    0.34779   0.35883   0.35896   0.35921   0.35957
     Eigenvalues ---    0.38008   0.41674   0.42003   0.45296   0.45544
     Eigenvalues ---    0.45700   0.46061   0.46399   0.46580
 RFO step:  Lambda=-8.45622516D-03 EMin= 2.35904450D-03
 Linear search not attempted -- first point.
 Iteration  1 RMS(Cart)=  0.10721390 RMS(Int)=  0.00399140
 Iteration  2 RMS(Cart)=  0.00654735 RMS(Int)=  0.00023843
 Iteration  3 RMS(Cart)=  0.00002189 RMS(Int)=  0.00023809
 Iteration  4 RMS(Cart)=  0.00000001 RMS(Int)=  0.00023809
 Variable       Old X    -DE/DX   Delta X   Delta X   Delta X     New X
                                 (Linear)    (Quad)   (Total)
    R1        3.27038   0.01322   0.00000   0.03971   0.03971   3.31010
    R2        2.63760   0.00132   0.00000   0.00306   0.00309   2.64069
    R3        2.65849  -0.00081   0.00000  -0.00176  -0.00170   2.65679
    R4        2.63518  -0.00264   0.00000  -0.00533  -0.00535   2.62982
    R5        2.04149   0.00305   0.00000   0.00830   0.00830   2.04978
    R6        2.63379  -0.00002   0.00000  -0.00008  -0.00013   2.63366
    R7        2.04205   0.00305   0.00000   0.00830   0.00830   2.05036
    R8        2.63600  -0.00088   0.00000  -0.00213  -0.00216   2.63384
    R9        2.04264   0.00324   0.00000   0.00882   0.00882   2.05146
   R10        2.64580  -0.00048   0.00000  -0.00128  -0.00125   2.64454
   R11        2.04245   0.00320   0.00000   0.00871   0.00871   2.05116
   R12        2.89131  -0.00897   0.00000  -0.02962  -0.02962   2.86169
   R13        2.91031   0.00532   0.00000   0.01811   0.01811   2.92842
   R14        2.06092   0.00588   0.00000   0.01653   0.01653   2.07745
   R15        2.06035   0.00236   0.00000   0.00662   0.00662   2.06697
   R16        2.74353   0.00922   0.00000   0.02372   0.02372   2.76725
   R17        2.06404   0.00245   0.00000   0.00691   0.00691   2.07095
   R18        2.06387   0.00224   0.00000   0.00633   0.00633   2.07020
   R19        1.91349   0.00375   0.00000   0.00808   0.00808   1.92157
   R20        1.91171   0.00380   0.00000   0.00815   0.00815   1.91986
    A1        2.06213  -0.00367   0.00000  -0.01438  -0.01464   2.04749
    A2        2.12817  -0.00217   0.00000  -0.00860  -0.00886   2.11931
    A3        2.09289   0.00584   0.00000   0.02302   0.02293   2.11582
    A4        2.10222  -0.00186   0.00000  -0.00724  -0.00721   2.09501
    A5        2.08805   0.00008   0.00000  -0.00142  -0.00144   2.08660
    A6        2.09292   0.00178   0.00000   0.00866   0.00864   2.10156
    A7        2.09217  -0.00049   0.00000  -0.00188  -0.00193   2.09024
    A8        2.09447  -0.00082   0.00000  -0.00539  -0.00538   2.08909
    A9        2.09654   0.00131   0.00000   0.00727   0.00729   2.10383
   A10        2.09433  -0.00094   0.00000  -0.00490  -0.00496   2.08937
   A11        2.09495   0.00060   0.00000   0.00321   0.00323   2.09818
   A12        2.09391   0.00034   0.00000   0.00170   0.00172   2.09563
   A13        2.10457   0.00528   0.00000   0.02188   0.02191   2.12648
   A14        2.08129   0.00038   0.00000   0.00701   0.00700   2.08828
   A15        2.09732  -0.00567   0.00000  -0.02889  -0.02891   2.06841
   A16        2.08020  -0.00784   0.00000  -0.03089  -0.03079   2.04941
   A17        2.13125   0.00728   0.00000   0.02845   0.02837   2.15961
   A18        2.07174   0.00056   0.00000   0.00243   0.00235   2.07408
   A19        1.99668  -0.00194   0.00000  -0.01645  -0.01667   1.98001
   A20        1.88769  -0.00077   0.00000  -0.00804  -0.00800   1.87969
   A21        1.92842   0.00113   0.00000  -0.00124  -0.00161   1.92681
   A22        1.89465   0.00135   0.00000   0.01025   0.01022   1.90487
   A23        1.93261  -0.00135   0.00000  -0.01549  -0.01570   1.91691
   A24        1.81383   0.00201   0.00000   0.03667   0.03674   1.85057
   A25        1.93909   0.02621   0.00000   0.12268   0.12275   2.06184
   A26        1.92620  -0.00725   0.00000  -0.03149  -0.03177   1.89443
   A27        1.92197  -0.00835   0.00000  -0.03707  -0.03796   1.88401
   A28        1.90848  -0.00881   0.00000  -0.03444  -0.03440   1.87407
   A29        1.90638  -0.00725   0.00000  -0.01993  -0.01997   1.88642
   A30        1.85994   0.00435   0.00000  -0.00566  -0.00724   1.85269
   A31        1.90198   0.00216   0.00000   0.01700   0.01698   1.91896
   A32        1.92413  -0.00211   0.00000  -0.00851  -0.00852   1.91561
   A33        1.83308   0.00098   0.00000   0.01463   0.01460   1.84768
    D1        3.14027   0.00088   0.00000   0.02981   0.02978  -3.11313
    D2       -0.00184   0.00074   0.00000   0.02537   0.02533   0.02349
    D3        0.00002  -0.00019   0.00000  -0.00708  -0.00705  -0.00704
    D4        3.14109  -0.00033   0.00000  -0.01152  -0.01150   3.12959
    D5       -3.14054  -0.00114   0.00000  -0.03806  -0.03810   3.10455
    D6       -0.00002  -0.00142   0.00000  -0.05086  -0.05088  -0.05090
    D7       -0.00033  -0.00003   0.00000   0.00027   0.00025  -0.00008
    D8        3.14019  -0.00030   0.00000  -0.01253  -0.01253   3.12766
    D9       -0.00014   0.00022   0.00000   0.00736   0.00732   0.00718
   D10       -3.14124  -0.00002   0.00000  -0.00060  -0.00064   3.14131
   D11       -3.14121   0.00036   0.00000   0.01182   0.01181  -3.12940
   D12        0.00088   0.00011   0.00000   0.00385   0.00385   0.00472
   D13        0.00059  -0.00003   0.00000  -0.00079  -0.00087  -0.00027
   D14       -3.14003  -0.00024   0.00000  -0.00750  -0.00759   3.13556
   D15       -3.14150   0.00022   0.00000   0.00718   0.00716  -3.13434
   D16        0.00106   0.00001   0.00000   0.00047   0.00044   0.00150
   D17       -0.00091  -0.00020   0.00000  -0.00607  -0.00615  -0.00707
   D18       -3.13725  -0.00018   0.00000  -0.00574  -0.00580   3.14014
   D19        3.13970   0.00001   0.00000   0.00064   0.00057   3.14027
   D20        0.00337   0.00003   0.00000   0.00097   0.00092   0.00429
   D21        0.00078   0.00022   0.00000   0.00629   0.00637   0.00715
   D22       -3.13977   0.00049   0.00000   0.01864   0.01848  -3.12129
   D23        3.13707   0.00022   0.00000   0.00606   0.00612  -3.13999
   D24       -0.00349   0.00049   0.00000   0.01841   0.01824   0.01475
   D25       -1.67874  -0.00024   0.00000  -0.07777  -0.07764  -1.75638
   D26        2.49087  -0.00012   0.00000  -0.07423  -0.07418   2.41669
   D27        0.51628  -0.00266   0.00000  -0.11268  -0.11256   0.40372
   D28        1.46178  -0.00052   0.00000  -0.09054  -0.09061   1.37118
   D29       -0.65179  -0.00040   0.00000  -0.08700  -0.08715  -0.73894
   D30       -2.62638  -0.00294   0.00000  -0.12545  -0.12553  -2.75191
   D31        1.08121  -0.00039   0.00000  -0.01753  -0.01729   1.06391
   D32       -1.03881  -0.00192   0.00000  -0.03492  -0.03445  -1.07325
   D33       -3.08747   0.00220   0.00000   0.01359   0.01322  -3.07425
   D34       -3.09225  -0.00168   0.00000  -0.03126  -0.03115  -3.12340
   D35        1.07093  -0.00322   0.00000  -0.04866  -0.04831   1.02262
   D36       -0.97774   0.00090   0.00000  -0.00015  -0.00064  -0.97838
   D37       -1.11162   0.00075   0.00000   0.01002   0.01004  -1.10158
   D38        3.05155  -0.00079   0.00000  -0.00738  -0.00712   3.04444
   D39        1.00289   0.00333   0.00000   0.04114   0.04055   1.04344
   D40       -1.01934  -0.00092   0.00000  -0.01867  -0.01834  -1.03768
   D41        0.98385   0.00032   0.00000   0.00379   0.00414   0.98799
   D42        1.11101   0.00122   0.00000  -0.00103  -0.00127   1.10974
   D43        3.11420   0.00246   0.00000   0.02144   0.02121   3.13542
   D44        3.14021  -0.00260   0.00000  -0.03841  -0.03852   3.10169
   D45       -1.13978  -0.00136   0.00000  -0.01594  -0.01604  -1.15582
         Item               Value     Threshold  Converged?
 Maximum Force            0.026209     0.000450     NO 
 RMS     Force            0.004275     0.000300     NO 
 Maximum Displacement     0.411347     0.001800     NO 
 RMS     Displacement     0.109622     0.001200     NO 
 Predicted change in Energy=-4.647022D-03
 GradGradGradGradGradGradGradGradGradGradGradGradGradGradGradGradGradGrad

                          Input orientation:                          
 ---------------------------------------------------------------------
 Center     Atomic      Atomic             Coordinates (Angstroms)
 Number     Number       Type             X           Y           Z
 ---------------------------------------------------------------------
      1         17           0       -0.117789    2.615926    1.203276
      2          6           0       -0.913583    1.230857    0.484602
      3          6           0       -2.176010    1.437181   -0.077910
      4          6           0       -2.873849    0.369214   -0.633910
      5          6           0       -2.312713   -0.906418   -0.619532
      6          6           0       -1.056471   -1.102102   -0.048432
      7          6           0       -0.327103   -0.046624    0.510497
      8          6           0        1.043044   -0.331455    1.089116
      9          6           0        2.151538   -0.461298    0.014033
     10          7           0        2.421687    0.695350   -0.842445
     11          1           0       -2.607652    2.432286   -0.073273
     12          1           0       -3.853787    0.535608   -1.068953
     13          1           0       -2.853017   -1.745799   -1.046160
     14          1           0       -0.620986   -2.096267   -0.036567
     15          1           0        0.977943   -1.271637    1.655123
     16          1           0        1.318261    0.439426    1.814635
     17          1           0        1.903904   -1.303551   -0.641928
     18          1           0        3.083477   -0.733857    0.521307
     19          1           0        1.582287    0.949620   -1.356971
     20          1           0        2.650519    1.501740   -0.268406
 ---------------------------------------------------------------------
                    Distance matrix (angstroms):
                    1          2          3          4          5
     1  Cl   0.000000
     2  C    1.751627   0.000000
     3  C    2.695765   1.397394   0.000000
     4  C    4.002353   2.415810   1.391643   0.000000
     5  C    4.532905   2.782916   2.409253   1.393670   0.000000
     6  C    4.033810   2.397339   2.775282   2.410480   1.393769
     7  C    2.759153   1.405911   2.442613   2.822854   2.441078
     8  C    3.169797   2.575781   3.853872   4.336105   3.809353
     9  C    4.004179   3.532675   4.726558   5.134598   4.530902
    10  N    3.784511   3.629304   4.719496   5.309666   5.002988
    11  H    2.804054   2.150471   1.084699   2.154400   3.395929
    12  H    4.842358   3.397308   2.147077   1.085002   2.157852
    13  H    5.618370   3.868477   3.395175   2.154917   1.085588
    14  H    4.898487   3.380382   3.860708   3.392758   2.148844
    15  H    4.064227   3.348204   4.504278   4.771621   4.016947
    16  H    2.678274   2.715968   4.097215   4.855316   4.573887
    17  H    4.780619   3.953546   4.947264   5.062127   4.235336
    18  H    4.683399   4.453980   5.721422   6.167741   5.518167
    19  H    3.495954   3.114459   3.999813   4.551575   4.377181
    20  H    3.327278   3.652837   4.830717   5.651092   5.527765
                    6          7          8          9         10
     6  C    0.000000
     7  C    1.399433   0.000000
     8  C    2.509159   1.514342   0.000000
     9  C    3.271980   2.561658   1.549652   0.000000
    10  N    3.994856   3.152273   2.585713   1.464367   0.000000
    11  H    3.859880   3.418580   4.724087   5.570489   5.376135
    12  H    3.398313   3.907833   5.421072   6.183091   6.281592
    13  H    2.153459   3.419155   4.662518   5.274422   5.815773
    14  H    1.085428   2.141654   2.674084   3.219095   4.207187
    15  H    2.658888   2.124611   1.099338   2.174201   3.491601
    16  H    3.389201   2.155051   1.093791   2.178950   2.888446
    17  H    3.025994   2.808085   2.163924   1.095901   2.074587
    18  H    4.195162   3.479147   2.155853   1.095502   2.083367
    19  H    3.589552   2.850562   2.813410   2.048021   1.016850
    20  H    4.535433   3.445337   2.790599   2.045061   1.015948
                   11         12         13         14         15
    11  H    0.000000
    12  H    2.478229   0.000000
    13  H    4.296872   2.491361   0.000000
    14  H    4.945299   4.294600   2.474686   0.000000
    15  H    5.437177   5.833725   4.711477   2.469495   0.000000
    16  H    4.790458   5.922366   5.509893   3.690172   1.751856
    17  H    5.885065   6.059362   4.794506   2.714762   2.476866
    18  H    6.539644   7.229530   6.222777   3.986281   2.451126
    19  H    4.626205   5.459419   5.199405   3.984383   3.791032
    20  H    5.343440   6.624219   6.437416   4.868485   3.766841
                   16         17         18         19         20
    16  H    0.000000
    17  H    3.068494   0.000000
    18  H    2.482998   1.751874   0.000000
    19  H    3.223212   2.385687   2.935233   0.000000
    20  H    2.691185   2.926878   2.410185   1.622015   0.000000
 Stoichiometry    C8H10ClN
 Framework group  C1[X(C8H10ClN)]
 Deg. of freedom    54
 Full point group                 C1      NOp   1
 Largest Abelian subgroup         C1      NOp   1
 Largest concise Abelian subgroup C1      NOp   1
                         Standard orientation:                         
 ---------------------------------------------------------------------
 Center     Atomic      Atomic             Coordinates (Angstroms)
 Number     Number       Type             X           Y           Z
 ---------------------------------------------------------------------
      1         17           0       -0.301118    2.214381   -0.230835
      2          6           0        0.596668    0.716318   -0.096734
      3          6           0        1.909286    0.795567    0.375985
      4          6           0        2.685437   -0.355462    0.472887
      5          6           0        2.151556   -1.584221    0.088911
      6          6           0        0.843921   -1.650269   -0.388917
      7          6           0        0.036363   -0.511797   -0.489645
      8          6           0       -1.383520   -0.665717   -0.993107
      9          6           0       -2.363340   -1.203804    0.080129
     10          7           0       -2.559847   -0.410755    1.295378
     11          1           0        2.317951    1.758992    0.661251
     12          1           0        3.704036   -0.287540    0.840409
     13          1           0        2.752314   -2.485924    0.156151
     14          1           0        0.429591   -2.607585   -0.688967
     15          1           0       -1.362881   -1.361810   -1.843738
     16          1           0       -1.752617    0.284602   -1.389391
     17          1           0       -2.027938   -2.200011    0.390089
     18          1           0       -3.340139   -1.345331   -0.395222
     19          1           0       -1.673833   -0.293992    1.780486
     20          1           0       -2.866781    0.525707    1.048434
 ---------------------------------------------------------------------
 Rotational constants (GHZ):           1.4024757           1.0100940           0.6787579
 Standard basis: 6-31G(d,p) (6D, 7F)
 There are   204 symmetry adapted cartesian basis functions of A   symmetry.
 There are   204 symmetry adapted basis functions of A   symmetry.
   204 basis functions,   374 primitive gaussians,   204 cartesian basis functions
    41 alpha electrons       41 beta electrons
       nuclear repulsion energy       585.3671723514 Hartrees.
 NAtoms=   20 NActive=   20 NUniq=   20 SFac= 1.00D+00 NAtFMM=   60 NAOKFM=F Big=F
 Integral buffers will be    131072 words long.
 Raffenetti 2 integral format.
 Two-electron integral symmetry is turned on.
 Nuclear repulsion after empirical dispersion term =      585.3276686919 Hartrees.
 One-electron integrals computed using PRISM.
 NBasis=   204 RedAO= T EigKep=  4.42D-04  NBF=   204
 NBsUse=   204 1.00D-06 EigRej= -1.00D+00 NBFU=   204
 Initial guess from the checkpoint file:  "N3_conf-3.chk"
 B after Tr=    -0.000000    0.000000    0.000000
         Rot=    0.998556   -0.029960    0.004105    0.044405 Ang=  -6.16 deg.
 ExpMin= 1.43D-01 ExpMax= 2.52D+04 ExpMxC= 3.78D+03 IAcc=3 IRadAn=         5 AccDes= 0.00D+00
 Harris functional with IExCor=  402 and IRadAn=       5 diagonalized for initial guess.
 HarFok:  IExCor=  402 AccDes= 0.00D+00 IRadAn=         5 IDoV= 1 UseB2=F ITyADJ=14
 ICtDFT=  3500011 ScaDFX=  1.000000  1.000000  1.000000  1.000000
 FoFCou: FMM=F IPFlag=           0 FMFlag=      100000 FMFlg1=           0
         NFxFlg=           0 DoJE=T BraDBF=F KetDBF=T FulRan=T
         wScrn=  0.000000 ICntrl=       500 IOpCl=  0 I1Cent=   200000004 NGrid=           0
         NMat0=    1 NMatS0=      1 NMatT0=    0 NMatD0=    1 NMtDS0=    0 NMtDT0=    0
 Petite list used in FoFCou.
 Requested convergence on RMS density matrix=1.00D-08 within 128 cycles.
 Requested convergence on MAX density matrix=1.00D-06.
 Requested convergence on             energy=1.00D-06.
 No special actions if energy rises.
 Integral accuracy reduced to 1.0D-05 until final iterations.
 Initial convergence to 1.0D-05 achieved.  Increase integral accuracy.
 SCF Done:  E(RB3LYP) =  -825.873603680     A.U. after   12 cycles
            NFock= 12  Conv=0.64D-08     -V/T= 2.0061
 Calling FoFJK, ICntrl=      2127 FMM=F ISym2X=0 I1Cent= 0 IOpClX= 0 NMat=1 NMatS=1 NMatT=0.
 ***** Axes restored to original set *****
 -------------------------------------------------------------------
 Center     Atomic                   Forces (Hartrees/Bohr)
 Number     Number              X              Y              Z
 -------------------------------------------------------------------
      1       17           0.004151202    0.003319666    0.001130626
      2        6          -0.005767730   -0.008557509   -0.003535778
      3        6           0.000052985    0.002038494    0.000216075
      4        6           0.000447596   -0.000104789    0.000089329
      5        6           0.001201866   -0.001520615    0.000232467
      6        6          -0.004197429    0.001125723   -0.003624279
      7        6           0.006013820    0.003675595    0.003665419
      8        6          -0.003069390    0.001318554    0.001637701
      9        6           0.000368778   -0.000680077   -0.001893914
     10        7          -0.001945736   -0.002466300    0.003548875
     11        1           0.000651564   -0.000098476    0.000213064
     12        1          -0.000065833    0.000191497   -0.000057314
     13        1           0.000227955   -0.000025493    0.000206681
     14        1           0.000515829   -0.000500147    0.000470322
     15        1           0.002128046    0.000367887   -0.002030455
     16        1           0.000220612    0.000854448   -0.001207454
     17        1          -0.000369498   -0.000440684   -0.000338819
     18        1           0.000577664    0.000327270    0.000206896
     19        1          -0.001236835   -0.000208562    0.000104771
     20        1           0.000094532    0.001383517    0.000965786
 -------------------------------------------------------------------
 Cartesian Forces:  Max     0.008557509 RMS     0.002273533

 GradGradGradGradGradGradGradGradGradGradGradGradGradGradGradGradGradGrad
 Berny optimization.
 Using GEDIIS/GDIIS optimizer.
 FormGI is forming the generalized inverse of G from B-inverse, IUseBI=4.
 Internal  Forces:  Max     0.008010398 RMS     0.001693007
 Search for a local minimum.
 Step number   2 out of a maximum of  108
 All quantities printed in internal units (Hartrees-Bohrs-Radians)
 Mixed Optimization -- RFO/linear search
 Update second derivatives using D2CorX and points    1    2
 DE= -3.10D-03 DEPred=-4.65D-03 R= 6.67D-01
 TightC=F SS=  1.41D+00  RLast= 3.20D-01 DXNew= 5.0454D-01 9.5957D-01
 Trust test= 6.67D-01 RLast= 3.20D-01 DXMaxT set to 5.05D-01
 ITU=  1  0
 Use linear search instead of GDIIS.
     Eigenvalues ---    0.00236   0.00431   0.01007   0.01340   0.02061
     Eigenvalues ---    0.02118   0.02135   0.02151   0.02158   0.02163
     Eigenvalues ---    0.02165   0.02168   0.03611   0.03767   0.04595
     Eigenvalues ---    0.05133   0.05484   0.09362   0.10311   0.12955
     Eigenvalues ---    0.13429   0.15744   0.16000   0.16000   0.16000
     Eigenvalues ---    0.16000   0.16044   0.20266   0.21991   0.22479
     Eigenvalues ---    0.22974   0.24520   0.24983   0.27144   0.28803
     Eigenvalues ---    0.29970   0.31678   0.34519   0.34561   0.34775
     Eigenvalues ---    0.34965   0.35838   0.35895   0.35920   0.35979
     Eigenvalues ---    0.39235   0.41902   0.42180   0.45346   0.45497
     Eigenvalues ---    0.45652   0.46168   0.46558   0.46617
 RFO step:  Lambda=-1.53992387D-03 EMin= 2.35885700D-03
 Quartic linear search produced a step of -0.18275.
 Iteration  1 RMS(Cart)=  0.10144214 RMS(Int)=  0.00255365
 Iteration  2 RMS(Cart)=  0.00396725 RMS(Int)=  0.00011640
 Iteration  3 RMS(Cart)=  0.00000535 RMS(Int)=  0.00011636
 Iteration  4 RMS(Cart)=  0.00000000 RMS(Int)=  0.00011636
 Variable       Old X    -DE/DX   Delta X   Delta X   Delta X     New X
                                 (Linear)    (Quad)   (Total)
    R1        3.31010   0.00497  -0.00726   0.02898   0.02172   3.33182
    R2        2.64069  -0.00117  -0.00056  -0.00093  -0.00145   2.63924
    R3        2.65679  -0.00364   0.00031  -0.00765  -0.00728   2.64951
    R4        2.62982   0.00042   0.00098  -0.00142  -0.00046   2.62937
    R5        2.04978  -0.00035  -0.00152   0.00263   0.00112   2.05090
    R6        2.63366   0.00099   0.00002   0.00189   0.00185   2.63551
    R7        2.05036   0.00011  -0.00152   0.00369   0.00217   2.05253
    R8        2.63384  -0.00139   0.00040  -0.00323  -0.00288   2.63096
    R9        2.05146  -0.00018  -0.00161   0.00325   0.00163   2.05310
   R10        2.64454   0.00228   0.00023   0.00353   0.00377   2.64832
   R11        2.05116   0.00067  -0.00159   0.00514   0.00354   2.05470
   R12        2.86169  -0.00263   0.00541  -0.01954  -0.01412   2.84757
   R13        2.92842  -0.00342  -0.00331  -0.00239  -0.00570   2.92272
   R14        2.07745  -0.00149  -0.00302   0.00332   0.00030   2.07775
   R15        2.06697  -0.00014  -0.00121   0.00240   0.00119   2.06815
   R16        2.76725  -0.00429  -0.00433   0.00054  -0.00380   2.76345
   R17        2.07095   0.00063  -0.00126   0.00434   0.00308   2.07403
   R18        2.07020   0.00051  -0.00116   0.00382   0.00266   2.07286
   R19        1.92157   0.00092  -0.00148   0.00500   0.00353   1.92510
   R20        1.91986   0.00167  -0.00149   0.00638   0.00489   1.92475
    A1        2.04749   0.00118   0.00268  -0.00142   0.00096   2.04845
    A2        2.11931  -0.00406   0.00162  -0.01627  -0.01494   2.10437
    A3        2.11582   0.00291  -0.00419   0.01879   0.01453   2.13035
    A4        2.09501  -0.00129   0.00132  -0.00785  -0.00646   2.08855
    A5        2.08660   0.00003   0.00026  -0.00122  -0.00101   2.08559
    A6        2.10156   0.00126  -0.00158   0.00910   0.00748   2.10903
    A7        2.09024  -0.00008   0.00035  -0.00047  -0.00015   2.09009
    A8        2.08909  -0.00013   0.00098  -0.00320  -0.00221   2.08688
    A9        2.10383   0.00021  -0.00133   0.00372   0.00238   2.10622
   A10        2.08937  -0.00043   0.00091  -0.00290  -0.00204   2.08733
   A11        2.09818   0.00046  -0.00059   0.00301   0.00244   2.10061
   A12        2.09563  -0.00003  -0.00031  -0.00010  -0.00039   2.09524
   A13        2.12648   0.00068  -0.00400   0.01169   0.00770   2.13417
   A14        2.08828   0.00013  -0.00128   0.00383   0.00252   2.09080
   A15        2.06841  -0.00080   0.00528  -0.01546  -0.01021   2.05820
   A16        2.04941  -0.00179   0.00563  -0.01914  -0.01362   2.03579
   A17        2.15961  -0.00148  -0.00518   0.00687   0.00137   2.16099
   A18        2.07408   0.00326  -0.00043   0.01175   0.01100   2.08508
   A19        1.98001  -0.00402   0.00305  -0.02494  -0.02206   1.95795
   A20        1.87969   0.00302   0.00146   0.02031   0.02178   1.90147
   A21        1.92681   0.00096   0.00029  -0.00436  -0.00452   1.92229
   A22        1.90487  -0.00031  -0.00187   0.00259   0.00091   1.90578
   A23        1.91691   0.00029   0.00287  -0.01645  -0.01384   1.90306
   A24        1.85057   0.00037  -0.00671   0.02740   0.02066   1.87122
   A25        2.06184  -0.00801  -0.02243   0.01711  -0.00534   2.05650
   A26        1.89443   0.00209   0.00581  -0.00611  -0.00026   1.89417
   A27        1.88401   0.00243   0.00694  -0.00680   0.00030   1.88431
   A28        1.87407   0.00258   0.00629  -0.00695  -0.00068   1.87340
   A29        1.88642   0.00226   0.00365  -0.00343   0.00023   1.88665
   A30        1.85269  -0.00078   0.00132   0.00550   0.00711   1.85980
   A31        1.91896  -0.00145  -0.00310  -0.00234  -0.00545   1.91351
   A32        1.91561   0.00008   0.00156  -0.00483  -0.00328   1.91233
   A33        1.84768   0.00025  -0.00267   0.00335   0.00067   1.84835
    D1       -3.11313  -0.00109  -0.00544  -0.03517  -0.04077   3.12928
    D2        0.02349  -0.00087  -0.00463  -0.02725  -0.03204  -0.00855
    D3       -0.00704   0.00011   0.00129  -0.00078   0.00052  -0.00652
    D4        3.12959   0.00032   0.00210   0.00713   0.00926   3.13884
    D5        3.10455   0.00157   0.00696   0.05022   0.05686  -3.12177
    D6       -0.05090   0.00084   0.00930   0.00564   0.01495  -0.03595
    D7       -0.00008   0.00021  -0.00005   0.01407   0.01392   0.01384
    D8        3.12766  -0.00053   0.00229  -0.03051  -0.02800   3.09967
    D9        0.00718  -0.00023  -0.00134  -0.00775  -0.00912  -0.00194
   D10        3.14131  -0.00000   0.00012   0.00024   0.00037  -3.14151
   D11       -3.12940  -0.00045  -0.00216  -0.01570  -0.01795   3.13584
   D12        0.00472  -0.00022  -0.00070  -0.00771  -0.00846  -0.00374
   D13       -0.00027   0.00003   0.00016   0.00245   0.00266   0.00238
   D14        3.13556   0.00011   0.00139   0.00398   0.00544   3.14100
   D15       -3.13434  -0.00020  -0.00131  -0.00557  -0.00692  -3.14125
   D16        0.00150  -0.00012  -0.00008  -0.00405  -0.00413  -0.00263
   D17       -0.00707   0.00030   0.00112   0.01148   0.01269   0.00563
   D18        3.14014   0.00002   0.00106  -0.00004   0.00104   3.14118
   D19        3.14027   0.00021  -0.00010   0.00994   0.00991  -3.13300
   D20        0.00429  -0.00006  -0.00017  -0.00157  -0.00174   0.00255
   D21        0.00715  -0.00041  -0.00116  -0.01945  -0.02056  -0.01341
   D22       -3.12129   0.00033  -0.00338   0.02290   0.01950  -3.10179
   D23       -3.13999  -0.00013  -0.00112  -0.00801  -0.00908   3.13411
   D24        0.01475   0.00061  -0.00333   0.03434   0.03098   0.04573
   D25       -1.75638   0.00138   0.01419   0.14522   0.15939  -1.59699
   D26        2.41669   0.00220   0.01356   0.14356   0.15732   2.57401
   D27        0.40372  -0.00046   0.02057   0.10181   0.12247   0.52619
   D28        1.37118   0.00059   0.01656   0.09981   0.11617   1.48735
   D29       -0.73894   0.00141   0.01593   0.09816   0.11410  -0.62483
   D30       -2.75191  -0.00125   0.02294   0.05641   0.07926  -2.67265
   D31        1.06391  -0.00084   0.00316  -0.02908  -0.02586   1.03806
   D32       -1.07325  -0.00019   0.00630  -0.02712  -0.02082  -1.09407
   D33       -3.07425  -0.00160  -0.00242  -0.02693  -0.02918  -3.10343
   D34       -3.12340   0.00016   0.00569  -0.01773  -0.01203  -3.13543
   D35        1.02262   0.00081   0.00883  -0.01578  -0.00699   1.01563
   D36       -0.97838  -0.00060   0.00012  -0.01559  -0.01536  -0.99373
   D37       -1.10158   0.00060  -0.00183   0.00745   0.00549  -1.09609
   D38        3.04444   0.00125   0.00130   0.00941   0.01053   3.05497
   D39        1.04344  -0.00016  -0.00741   0.00960   0.00217   1.04561
   D40       -1.03768   0.00028   0.00335  -0.00097   0.00231  -1.03537
   D41        0.98799  -0.00020  -0.00076  -0.00106  -0.00188   0.98611
   D42        1.10974  -0.00052   0.00023  -0.00269  -0.00242   1.10733
   D43        3.13542  -0.00100  -0.00388  -0.00278  -0.00661   3.12881
   D44        3.10169   0.00096   0.00704  -0.00144   0.00561   3.10730
   D45       -1.15582   0.00048   0.00293  -0.00153   0.00142  -1.15440
         Item               Value     Threshold  Converged?
 Maximum Force            0.008010     0.000450     NO 
 RMS     Force            0.001693     0.000300     NO 
 Maximum Displacement     0.318881     0.001800     NO 
 RMS     Displacement     0.102201     0.001200     NO 
 Predicted change in Energy=-7.766453D-04
 GradGradGradGradGradGradGradGradGradGradGradGradGradGradGradGradGradGrad

                          Input orientation:                          
 ---------------------------------------------------------------------
 Center     Atomic      Atomic             Coordinates (Angstroms)
 Number     Number       Type             X           Y           Z
 ---------------------------------------------------------------------
      1         17           0        0.041022    2.584269    1.034531
      2          6           0       -0.857848    1.191919    0.432873
      3          6           0       -2.107439    1.434048   -0.141984
      4          6           0       -2.851262    0.371516   -0.645723
      5          6           0       -2.342187   -0.924950   -0.574533
      6          6           0       -1.094410   -1.142920    0.003302
      7          6           0       -0.320806   -0.099591    0.529620
      8          6           0        1.043623   -0.400333    1.094016
      9          6           0        2.137694   -0.413895    0.000898
     10          7           0        2.341433    0.807994   -0.776253
     11          1           0       -2.484239    2.450549   -0.192988
     12          1           0       -3.822838    0.561603   -1.092522
     13          1           0       -2.914892   -1.761884   -0.964315
     14          1           0       -0.694587   -2.152403    0.060844
     15          1           0        1.016394   -1.381045    1.590356
     16          1           0        1.308336    0.340476    1.854859
     17          1           0        1.911060   -1.219306   -0.709398
     18          1           0        3.089641   -0.676773    0.478292
     19          1           0        1.478154    1.055905   -1.256953
     20          1           0        2.542849    1.583020   -0.146825
 ---------------------------------------------------------------------
                    Distance matrix (angstroms):
                    1          2          3          4          5
     1  Cl   0.000000
     2  C    1.763122   0.000000
     3  C    2.706120   1.396626   0.000000
     4  C    4.010590   2.410421   1.391401   0.000000
     5  C    4.536892   2.774755   2.409788   1.394651   0.000000
     6  C    4.030456   2.385784   2.772742   2.408584   1.392247
     7  C    2.754807   1.402061   2.448501   2.829590   2.446702
     8  C    3.149062   2.566704   3.849914   4.335039   3.810903
     9  C    3.801765   3.426152   4.632113   5.091628   4.545507
    10  N    3.424322   3.441626   4.537258   5.212642   4.998008
    11  H    2.810984   2.149650   1.085290   2.159178   3.399963
    12  H    4.852313   3.393419   2.146456   1.086150   2.161130
    13  H    5.623331   3.861155   3.397379   2.157996   1.086453
    14  H    4.891344   3.368910   3.860042   3.394209   2.150565
    15  H    4.121165   3.387137   4.547976   4.798987   4.021795
    16  H    2.704372   2.727518   4.104973   4.853465   4.563942
    17  H    4.583177   3.845211   4.848771   5.021402   4.265553
    18  H    4.498652   4.367693   5.643576   6.136501   5.538482
    19  H    3.106790   2.886333   3.773941   4.425588   4.357119
    20  H    2.942318   3.471851   4.652676   5.550952   5.507851
                    6          7          8          9         10
     6  C    0.000000
     7  C    1.401430   0.000000
     8  C    2.512424   1.506869   0.000000
     9  C    3.313304   2.534276   1.546635   0.000000
    10  N    4.027256   3.101054   2.577260   1.462357   0.000000
    11  H    3.857871   3.421377   4.714840   5.441038   5.130819
    12  H    3.398610   3.915705   5.421135   6.138005   6.177295
    13  H    2.152569   3.424082   4.664803   5.317644   5.853938
    14  H    1.087303   2.138574   2.675550   3.323826   4.322280
    15  H    2.651592   2.134336   1.099496   2.172342   3.485464
    16  H    3.376672   2.145699   1.094419   2.166582   2.865068
    17  H    3.089762   2.787499   2.162282   1.097529   2.073556
    18  H    4.236649   3.459324   2.154467   1.096910   2.082842
    19  H    3.611254   2.786265   2.799375   2.043893   1.018717
    20  H    4.547850   3.389584   2.778678   2.042949   1.018535
                   11         12         13         14         15
    11  H    0.000000
    12  H    2.483772   0.000000
    13  H    4.304067   2.497878   0.000000
    14  H    4.945145   4.299074   2.476532   0.000000
    15  H    5.487792   5.864289   4.703870   2.421127   0.000000
    16  H    4.798928   5.921562   5.495754   3.666693   1.766020
    17  H    5.749189   6.016312   4.863043   2.872863   2.472945
    18  H    6.426422   7.196068   6.270008   4.083152   2.455818
    19  H    4.333314   5.326527   5.227277   4.092754   3.776125
    20  H    5.101603   6.516103   6.453186   4.947475   3.759460
                   16         17         18         19         20
    16  H    0.000000
    17  H    3.061308   0.000000
    18  H    2.470380   1.758977   0.000000
    19  H    3.197507   2.379876   2.934304   0.000000
    20  H    2.659826   2.927230   2.407574   1.625980   0.000000
 Stoichiometry    C8H10ClN
 Framework group  C1[X(C8H10ClN)]
 Deg. of freedom    54
 Full point group                 C1      NOp   1
 Largest Abelian subgroup         C1      NOp   1
 Largest concise Abelian subgroup C1      NOp   1
                         Standard orientation:                         
 ---------------------------------------------------------------------
 Center     Atomic      Atomic             Coordinates (Angstroms)
 Number     Number       Type             X           Y           Z
 ---------------------------------------------------------------------
      1         17           0       -0.634299    2.067368   -0.284797
      2          6           0        0.499997    0.724485   -0.148300
      3          6           0        1.781008    1.012005    0.328049
      4          6           0        2.709835   -0.014380    0.468809
      5          6           0        2.353419   -1.320883    0.135539
      6          6           0        1.070898   -1.584214   -0.337902
      7          6           0        0.111872   -0.575558   -0.501883
      8          6           0       -1.273536   -0.939021   -0.970066
      9          6           0       -2.191413   -1.366999    0.198874
     10          7           0       -2.426095   -0.401121    1.271484
     11          1           0        2.037817    2.034140    0.587166
     12          1           0        3.705601    0.210967    0.839474
     13          1           0        3.071080   -2.129706    0.241118
     14          1           0        0.789701   -2.601541   -0.599055
     15          1           0       -1.200970   -1.763930   -1.693357
     16          1           0       -1.729954   -0.091264   -1.490398
     17          1           0       -1.771938   -2.270951    0.658744
     18          1           0       -3.163600   -1.652375   -0.221393
     19          1           0       -1.538790   -0.144156    1.700951
     20          1           0       -2.805667    0.458789    0.879192
 ---------------------------------------------------------------------
 Rotational constants (GHZ):           1.4819958           1.0179936           0.6979460
 Standard basis: 6-31G(d,p) (6D, 7F)
 There are   204 symmetry adapted cartesian basis functions of A   symmetry.
 There are   204 symmetry adapted basis functions of A   symmetry.
   204 basis functions,   374 primitive gaussians,   204 cartesian basis functions
    41 alpha electrons       41 beta electrons
       nuclear repulsion energy       589.8991541743 Hartrees.
 NAtoms=   20 NActive=   20 NUniq=   20 SFac= 1.00D+00 NAtFMM=   60 NAOKFM=F Big=F
 Integral buffers will be    131072 words long.
 Raffenetti 2 integral format.
 Two-electron integral symmetry is turned on.
 Nuclear repulsion after empirical dispersion term =      589.8589083730 Hartrees.
 One-electron integrals computed using PRISM.
 NBasis=   204 RedAO= T EigKep=  4.38D-04  NBF=   204
 NBsUse=   204 1.00D-06 EigRej= -1.00D+00 NBFU=   204
 Initial guess from the checkpoint file:  "N3_conf-3.chk"
 B after Tr=     0.000000   -0.000000    0.000000
         Rot=    0.997883    0.031398   -0.004132   -0.056805 Ang=   7.46 deg.
 ExpMin= 1.43D-01 ExpMax= 2.52D+04 ExpMxC= 3.78D+03 IAcc=3 IRadAn=         5 AccDes= 0.00D+00
 Harris functional with IExCor=  402 and IRadAn=       5 diagonalized for initial guess.
 HarFok:  IExCor=  402 AccDes= 0.00D+00 IRadAn=         5 IDoV= 1 UseB2=F ITyADJ=14
 ICtDFT=  3500011 ScaDFX=  1.000000  1.000000  1.000000  1.000000
 FoFCou: FMM=F IPFlag=           0 FMFlag=      100000 FMFlg1=           0
         NFxFlg=           0 DoJE=T BraDBF=F KetDBF=T FulRan=T
         wScrn=  0.000000 ICntrl=       500 IOpCl=  0 I1Cent=   200000004 NGrid=           0
         NMat0=    1 NMatS0=      1 NMatT0=    0 NMatD0=    1 NMtDS0=    0 NMtDT0=    0
 Petite list used in FoFCou.
 Requested convergence on RMS density matrix=1.00D-08 within 128 cycles.
 Requested convergence on MAX density matrix=1.00D-06.
 Requested convergence on             energy=1.00D-06.
 No special actions if energy rises.
 Integral accuracy reduced to 1.0D-05 until final iterations.
 Initial convergence to 1.0D-05 achieved.  Increase integral accuracy.
 SCF Done:  E(RB3LYP) =  -825.874132463     A.U. after   12 cycles
            NFock= 12  Conv=0.46D-08     -V/T= 2.0061
 Calling FoFJK, ICntrl=      2127 FMM=F ISym2X=0 I1Cent= 0 IOpClX= 0 NMat=1 NMatS=1 NMatT=0.
 ***** Axes restored to original set *****
 -------------------------------------------------------------------
 Center     Atomic                   Forces (Hartrees/Bohr)
 Number     Number              X              Y              Z
 -------------------------------------------------------------------
      1       17          -0.000369884    0.001830734    0.001864379
      2        6          -0.001529643   -0.001528521   -0.002025514
      3        6           0.000843993    0.001747764    0.000647710
      4        6          -0.000868146   -0.000038529   -0.000477864
      5        6           0.000331065   -0.000687291   -0.000029144
      6        6          -0.001378126   -0.001885834   -0.000122527
      7        6           0.000101807    0.000721172   -0.000055757
      8        6          -0.001175505    0.002754152    0.001510800
      9        6           0.003122682   -0.002144699   -0.003146471
     10        7          -0.001170627   -0.001202295    0.002893820
     11        1           0.000431003   -0.000833469    0.000219235
     12        1           0.000532181   -0.000254846    0.000303970
     13        1           0.000561290    0.000637150    0.000245619
     14        1          -0.000461843    0.000256489   -0.000054837
     15        1           0.000875047    0.001785768   -0.001564774
     16        1          -0.000222162   -0.000595471    0.000344281
     17        1           0.000208741   -0.000083240    0.000570622
     18        1          -0.000077256    0.000003002   -0.000502485
     19        1           0.000904365    0.000043129    0.000660696
     20        1          -0.000658983   -0.000525163   -0.001281760
 -------------------------------------------------------------------
 Cartesian Forces:  Max     0.003146471 RMS     0.001209636

 GradGradGradGradGradGradGradGradGradGradGradGradGradGradGradGradGradGrad
 Berny optimization.
 Using GEDIIS/GDIIS optimizer.
 FormGI is forming the generalized inverse of G from B-inverse, IUseBI=4.
 Internal  Forces:  Max     0.002742578 RMS     0.000904883
 Search for a local minimum.
 Step number   3 out of a maximum of  108
 All quantities printed in internal units (Hartrees-Bohrs-Radians)
 Mixed Optimization -- En-DIIS/RFO-DIIS
 Update second derivatives using D2CorX and points    1    2    3
 DE= -5.29D-04 DEPred=-7.77D-04 R= 6.81D-01
[...]
     14  H    Isotropic =    23.8608   Anisotropy =     9.1012
   XX=    28.1324   YX=    -3.8730   ZX=     1.2999
   XY=    -3.1726   YY=    22.4480   ZY=    -0.0640
   XZ=     0.9292   YZ=     0.1041   ZZ=    21.0019
   Eigenvalues:    20.3272    21.3268    29.9282
     15  H    Isotropic =    29.2875   Anisotropy =     8.3687
   XX=    27.7807   YX=    -0.2987   ZX=    -0.3037
   XY=    -0.6208   YY=    28.4581   ZY=     3.6335
   XZ=     1.1100   YZ=     5.4829   ZZ=    31.6237
   Eigenvalues:    25.0788    27.9171    34.8666
     16  H    Isotropic =    28.6129   Anisotropy =     4.0229
   XX=    27.4453   YX=     0.2452   ZX=     2.3727
   XY=     1.2612   YY=    30.9719   ZY=    -0.5035
   XZ=     3.5699   YZ=    -1.7126   ZZ=    27.4216
   Eigenvalues:    24.2055    30.3384    31.2949
     17  H    Isotropic =    29.3591   Anisotropy =     8.3638
   XX=    26.2053   YX=     0.0794   ZX=    -1.7516
   XY=    -0.6306   YY=    34.8660   ZY=    -0.5534
   XZ=    -3.5076   YZ=    -0.9237   ZZ=    27.0058
   Eigenvalues:    23.9021    29.2402    34.9349
     18  H    Isotropic =    28.7536   Anisotropy =     8.6471
   XX=    32.2762   YX=     3.4383   ZX=     0.6853
   XY=     4.2891   YY=    26.8497   ZY=     2.4941
   XZ=    -0.2014   YZ=     2.1246   ZZ=    27.1348
   Eigenvalues:    23.6979    28.0445    34.5183
     19  H    Isotropic =    31.6733   Anisotropy =     8.6969
   XX=    35.8549   YX=     0.6879   ZX=     3.3668
   XY=     3.1865   YY=    26.8687   ZY=     1.4912
   XZ=     0.8452   YZ=     2.4338   ZZ=    32.2964
   Eigenvalues:    26.0712    31.4775    37.4712
     20  H    Isotropic =    31.8405   Anisotropy =    11.9775
   XX=    30.0120   YX=    -3.8150   ZX=     0.6795
   XY=    -4.4009   YY=    38.0748   ZY=    -1.7968
   XZ=    -1.2811   YZ=     0.3056   ZZ=    27.4346
   Eigenvalues:    27.1317    28.5642    39.8254
 End of Minotr F.D. properties file   721 does not exist.
 End of Minotr F.D. properties file   722 does not exist.
 End of Minotr F.D. properties file   788 does not exist.

 **********************************************************************

            Population analysis using the SCF Density.

 **********************************************************************

 Orbital symmetries:
       Occupied  (A) (A) (A) (A) (A) (A) (A) (A) (A) (A) (A) (A)
                 (A) (A) (A) (A) (A) (A) (A) (A) (A) (A) (A) (A)
                 (A) (A) (A) (A) (A) (A) (A) (A) (A) (A) (A) (A)
                 (A) (A) (A) (A) (A)
       Virtual   (A) (A) (A) (A) (A) (A) (A) (A) (A) (A) (A) (A)
                 (A) (A) (A) (A) (A) (A) (A) (A) (A) (A) (A) (A)
                 (A) (A) (A) (A) (A) (A) (A) (A) (A) (A) (A) (A)
                 (A) (A) (A) (A) (A) (A) (A) (A) (A) (A) (A) (A)
                 (A) (A) (A) (A) (A) (A) (A) (A) (A) (A) (A) (A)
                 (A) (A) (A) (A) (A) (A) (A) (A) (A) (A) (A) (A)
                 (A) (A) (A) (A) (A) (A) (A) (A) (A) (A) (A) (A)
                 (A) (A) (A) (A) (A) (A) (A) (A) (A) (A) (A) (A)
                 (A) (A) (A) (A) (A) (A) (A) (A) (A) (A) (A) (A)
                 (A) (A) (A) (A) (A) (A) (A) (A) (A) (A) (A) (A)
                 (A) (A) (A) (A) (A) (A) (A) (A) (A) (A) (A) (A)
                 (A) (A) (A) (A) (A) (A) (A) (A) (A) (A) (A) (A)
                 (A) (A) (A) (A) (A) (A) (A) (A) (A) (A) (A) (A)
                 (A) (A) (A) (A) (A) (A) (A) (A) (A) (A) (A) (A)
                 (A) (A) (A) (A) (A) (A) (A) (A) (A) (A) (A) (A)
                 (A) (A) (A) (A) (A) (A) (A) (A) (A) (A) (A) (A)
                 (A) (A) (A) (A) (A) (A) (A) (A) (A) (A) (A) (A)
                 (A) (A) (A) (A) (A) (A) (A) (A) (A) (A) (A) (A)
                 (A) (A) (A) (A) (A) (A) (A) (A) (A) (A) (A) (A)
                 (A) (A) (A) (A) (A) (A) (A) (A) (A) (A) (A) (A)
                 (A) (A) (A) (A) (A) (A) (A) (A) (A) (A) (A) (A)
                 (A) (A) (A) (A) (A) (A) (A) (A) (A) (A) (A) (A)
                 (A) (A) (A) (A) (A) (A) (A) (A) (A) (A) (A) (A)
                 (A) (A) (A) (A) (A) (A) (A) (A) (A) (A) (A) (A)
                 (A) (A) (A) (A) (A) (A) (A) (A) (A) (A) (A) (A)
                 (A) (A) (A) (A) (A) (A) (A) (A) (A) (A) (A) (A)
                 (A) (A) (A) (A) (A) (A) (A) (A) (A) (A) (A) (A)
                 (A) (A) (A) (A) (A) (A) (A) (A) (A) (A) (A)
 The electronic state is 1-A.
 Alpha  occ. eigenvalues -- -102.64861 -14.72296 -10.61163 -10.56867 -10.56341
 Alpha  occ. eigenvalues --  -10.56005 -10.55691 -10.55663 -10.55489 -10.54383
 Alpha  occ. eigenvalues --   -9.81104  -7.53294  -7.52796  -7.52780  -1.00366
 Alpha  occ. eigenvalues --   -0.98380  -0.93901  -0.88581  -0.83718  -0.80655
 Alpha  occ. eigenvalues --   -0.72069  -0.69494  -0.66659  -0.59464  -0.57070
 Alpha  occ. eigenvalues --   -0.55300  -0.53456  -0.50574  -0.50306  -0.49824
 Alpha  occ. eigenvalues --   -0.48556  -0.45573  -0.44718  -0.42869  -0.41328
 Alpha  occ. eigenvalues --   -0.40705  -0.40456  -0.37651  -0.32356  -0.30997
 Alpha  occ. eigenvalues --   -0.29718
 Alpha virt. eigenvalues --    0.00418   0.00756   0.05864   0.06820   0.08495
 Alpha virt. eigenvalues --    0.09857   0.10299   0.11863   0.12304   0.12997
 Alpha virt. eigenvalues --    0.13914   0.14503   0.16953   0.17287   0.18431
 Alpha virt. eigenvalues --    0.19638   0.20219   0.21758   0.22641   0.24124
 Alpha virt. eigenvalues --    0.24972   0.25783   0.25965   0.28113   0.28427
 Alpha virt. eigenvalues --    0.28897   0.30267   0.30944   0.31596   0.33002
 Alpha virt. eigenvalues --    0.34024   0.34339   0.35022   0.35525   0.36809
 Alpha virt. eigenvalues --    0.36900   0.38181   0.39270   0.39995   0.40085
 Alpha virt. eigenvalues --    0.41347   0.41899   0.42802   0.44132   0.44435
 Alpha virt. eigenvalues --    0.45332   0.46296   0.46526   0.47239   0.47512
 Alpha virt. eigenvalues --    0.49075   0.49912   0.51163   0.52115   0.52318
 Alpha virt. eigenvalues --    0.53459   0.54252   0.54912   0.56278   0.57035
 Alpha virt. eigenvalues --    0.58252   0.59376   0.60396   0.62042   0.63190
 Alpha virt. eigenvalues --    0.64753   0.66302   0.67941   0.69193   0.70565
 Alpha virt. eigenvalues --    0.71169   0.72980   0.74432   0.75500   0.76684
 Alpha virt. eigenvalues --    0.77764   0.80275   0.81428   0.81713   0.85333
 Alpha virt. eigenvalues --    0.86189   0.88119   0.89752   0.90753   0.91216
 Alpha virt. eigenvalues --    0.92271   0.93669   0.95186   0.96739   1.01939
 Alpha virt. eigenvalues --    1.03473   1.04574   1.06501   1.07590   1.09009
 Alpha virt. eigenvalues --    1.10916   1.12289   1.13856   1.16109   1.16883
 Alpha virt. eigenvalues --    1.20620   1.21759   1.22389   1.23838   1.26065
 Alpha virt. eigenvalues --    1.26690   1.26885   1.29191   1.31476   1.32170
 Alpha virt. eigenvalues --    1.32976   1.35106   1.36919   1.37161   1.40861
 Alpha virt. eigenvalues --    1.41755   1.42544   1.45763   1.47488   1.49185
 Alpha virt. eigenvalues --    1.50043   1.51793   1.55118   1.56436   1.59091
 Alpha virt. eigenvalues --    1.60785   1.61727   1.62533   1.64326   1.64973
 Alpha virt. eigenvalues --    1.66141   1.67869   1.68536   1.71555   1.72832
 Alpha virt. eigenvalues --    1.73453   1.73699   1.76501   1.78115   1.79271
 Alpha virt. eigenvalues --    1.83260   1.83578   1.85281   1.86516   1.87015
 Alpha virt. eigenvalues --    1.88200   1.90504   1.91152   1.94711   1.95209
 Alpha virt. eigenvalues --    1.95769   1.96649   1.99365   2.00257   2.00799
 Alpha virt. eigenvalues --    2.04110   2.04262   2.06321   2.08283   2.09561
 Alpha virt. eigenvalues --    2.12021   2.12422   2.14403   2.14786   2.15955
 Alpha virt. eigenvalues --    2.17914   2.18537   2.19894   2.22365   2.22499
 Alpha virt. eigenvalues --    2.24545   2.25574   2.25891   2.27314   2.28985
 Alpha virt. eigenvalues --    2.30658   2.31793   2.32959   2.34547   2.36996
 Alpha virt. eigenvalues --    2.39954   2.43883   2.44964   2.47745   2.49381
 Alpha virt. eigenvalues --    2.50111   2.51488   2.53765   2.54742   2.56665
 Alpha virt. eigenvalues --    2.60124   2.60477   2.61668   2.61899   2.64133
 Alpha virt. eigenvalues --    2.65513   2.66669   2.67197   2.69133   2.70385
 Alpha virt. eigenvalues --    2.72201   2.73073   2.73921   2.75520   2.76460
 Alpha virt. eigenvalues --    2.77589   2.78683   2.80113   2.81564   2.82960
 Alpha virt. eigenvalues --    2.85836   2.87275   2.88088   2.89493   2.90582
 Alpha virt. eigenvalues --    2.91861   2.92435   2.95533   2.96864   3.00071
 Alpha virt. eigenvalues --    3.00561   3.02335   3.04544   3.06583   3.07011
 Alpha virt. eigenvalues --    3.10024   3.11721   3.13573   3.13881   3.15395
 Alpha virt. eigenvalues --    3.17089   3.18758   3.19473   3.19854   3.21275
 Alpha virt. eigenvalues --    3.22710   3.23316   3.26193   3.27634   3.28085
 Alpha virt. eigenvalues --    3.29811   3.31254   3.32203   3.33125   3.34945
 Alpha virt. eigenvalues --    3.36328   3.39333   3.40027   3.41463   3.42892
 Alpha virt. eigenvalues --    3.43800   3.47727   3.47923   3.49937   3.50722
 Alpha virt. eigenvalues --    3.51519   3.53886   3.54205   3.56012   3.59633
 Alpha virt. eigenvalues --    3.64606   3.66280   3.70595   3.71821   3.74997
 Alpha virt. eigenvalues --    3.76026   3.76228   3.81546   3.82632   3.86703
 Alpha virt. eigenvalues --    3.88761   3.89450   3.91156   3.94791   3.95565
 Alpha virt. eigenvalues --    3.97142   4.02702   4.06979   4.07562   4.09357
 Alpha virt. eigenvalues --    4.11733   4.14295   4.15698   4.17469   4.19657
 Alpha virt. eigenvalues --    4.20098   4.22446   4.25268   4.27456   4.30345
 Alpha virt. eigenvalues --    4.32545   4.35580   4.36657   4.40237   4.43664
 Alpha virt. eigenvalues --    4.48990   4.53978   4.59610   4.62381   4.62951
 Alpha virt. eigenvalues --    4.66927   4.69644   4.73595   4.76358   4.83940
 Alpha virt. eigenvalues --    4.84786   4.86809   4.89359   4.96661   5.02163
 Alpha virt. eigenvalues --    5.08094   5.09376   5.10856   5.13203   5.17652
 Alpha virt. eigenvalues --    5.25974   5.28884   5.35106   5.41259   5.48854
 Alpha virt. eigenvalues --    5.54495   5.75937  10.83168  10.92535  11.41532
 Alpha virt. eigenvalues --   22.07254  22.53614  22.60323  22.70237  22.75594
 Alpha virt. eigenvalues --   22.81891  22.91170  23.31475  26.00251  32.09302
          Condensed to atoms (all electrons):
               1          2          3          4          5          6
     1  Cl  16.891025   0.328556  -0.056430   0.011370  -0.003014   0.018888
     2  C    0.328556   5.342414   0.332270   0.054190  -0.104535   0.041292
     3  C   -0.056430   0.332270   5.104072   0.431464   0.017710  -0.155080
     4  C    0.011370   0.054190   0.431464   4.958686   0.460581   0.031490
     5  C   -0.003014  -0.104535   0.017710   0.460581   4.939923   0.434547
     6  C    0.018888   0.041292  -0.155080   0.031490   0.434547   5.208741
     7  C   -0.103910   0.135951   0.066282  -0.136436   0.037725   0.284136
     8  C    0.010560  -0.100743   0.026517  -0.006286   0.008520  -0.053401
     9  C   -0.006532  -0.022769  -0.000052  -0.000474   0.001977  -0.002130
    10  N   -0.007755   0.043373   0.003276  -0.000466   0.001079  -0.016113
    11  H    0.001556  -0.050207   0.413475  -0.037604   0.006456  -0.003509
    12  H   -0.000345   0.005780  -0.034484   0.409773  -0.034610   0.005605
    13  H    0.000017  -0.001202   0.005606  -0.035782   0.413244  -0.036196
    14  H   -0.000141   0.007527  -0.000426   0.004018  -0.026210   0.405826
    15  H    0.001131   0.015075  -0.000795   0.000157   0.000370  -0.021573
    16  H    0.001670  -0.009936   0.001382  -0.000137  -0.000074   0.004541
    17  H   -0.000249   0.007217   0.000487  -0.000232   0.000623  -0.009458
    18  H    0.000017   0.000729   0.000014  -0.000002  -0.000000  -0.000393
    19  H    0.000359  -0.001914   0.001415  -0.000327   0.000415  -0.001904
    20  H    0.003503   0.009799   0.000636  -0.000002   0.000014  -0.000812
               7          8          9         10         11         12
     1  Cl  -0.103910   0.010560  -0.006532  -0.007755   0.001556  -0.000345
     2  C    0.135951  -0.100743  -0.022769   0.043373  -0.050207   0.005780
     3  C    0.066282   0.026517  -0.000052   0.003276   0.413475  -0.034484
     4  C   -0.136436  -0.006286  -0.000474  -0.000466  -0.037604   0.409773
     5  C    0.037725   0.008520   0.001977   0.001079   0.006456  -0.034610
     6  C    0.284136  -0.053401  -0.002130  -0.016113  -0.003509   0.005605
     7  C    5.624208   0.117417  -0.014370  -0.013257   0.018411  -0.000201
     8  C    0.117417   5.501271   0.269462  -0.072271   0.000238   0.000051
     9  C   -0.014370   0.269462   5.010496   0.255997   0.000003  -0.000009
    10  N   -0.013257  -0.072271   0.255997   6.627166  -0.000025  -0.000003
    11  H    0.018411   0.000238   0.000003  -0.000025   0.496200  -0.003806
    12  H   -0.000201   0.000051  -0.000009  -0.000003  -0.003806   0.507728
    13  H    0.007528  -0.000095   0.000057   0.000002  -0.000180  -0.003687
    14  H   -0.046991   0.006045  -0.002703  -0.000073   0.000050  -0.000278
    15  H   -0.030075   0.399057  -0.055681   0.011799  -0.000004   0.000000
    16  H   -0.071595   0.450382  -0.032427  -0.006918   0.000001  -0.000001
    17  H   -0.012362  -0.051552   0.426761  -0.034211   0.000001  -0.000002
    18  H    0.017054  -0.082161   0.433593  -0.029243  -0.000001   0.000000
    19  H    0.014125  -0.014244  -0.044541   0.384232   0.000012  -0.000001
    20  H   -0.020760   0.016868  -0.059040   0.379038  -0.000004   0.000000
              13         14         15         16         17         18
     1  Cl   0.000017  -0.000141   0.001131   0.001670  -0.000249   0.000017
     2  C   -0.001202   0.007527   0.015075  -0.009936   0.007217   0.000729
     3  C    0.005606  -0.000426  -0.000795   0.001382   0.000487   0.000014
     4  C   -0.035782   0.004018   0.000157  -0.000137  -0.000232  -0.000002
     5  C    0.413244  -0.026210   0.000370  -0.000074   0.000623  -0.000000
     6  C   -0.036196   0.405826  -0.021573   0.004541  -0.009458  -0.000393
     7  C    0.007528  -0.046991  -0.030075  -0.071595  -0.012362   0.017054
     8  C   -0.000095   0.006045   0.399057   0.450382  -0.051552  -0.082161
     9  C    0.000057  -0.002703  -0.055681  -0.032427   0.426761   0.433593
    10  N    0.000002  -0.000073   0.011799  -0.006918  -0.034211  -0.029243
    11  H   -0.000180   0.000050  -0.000004   0.000001   0.000001  -0.000001
    12  H   -0.003687  -0.000278   0.000000  -0.000001  -0.000002   0.000000
    13  H    0.506307  -0.003607  -0.000039   0.000007   0.000009  -0.000001
    14  H   -0.003607   0.500112  -0.000693   0.000166   0.000777  -0.000027
    15  H   -0.000039  -0.000693   0.538323  -0.012171   0.001774   0.000407
    16  H    0.000007   0.000166  -0.012171   0.492144   0.004636  -0.002433
    17  H    0.000009   0.000777   0.001774   0.004636   0.540685  -0.020492
    18  H   -0.000001  -0.000027   0.000407  -0.002433  -0.020492   0.539961
    19  H    0.000003  -0.000019  -0.000506   0.000206  -0.007485   0.007166
    20  H   -0.000000   0.000003   0.000218   0.000681   0.008300  -0.006383
              19         20
     1  Cl   0.000359   0.003503
     2  C   -0.001914   0.009799
     3  C    0.001415   0.000636
     4  C   -0.000327  -0.000002
     5  C    0.000415   0.000014
     6  C   -0.001904  -0.000812
     7  C    0.014125  -0.020760
     8  C   -0.014244   0.016868
     9  C   -0.044541  -0.059040
    10  N    0.384232   0.379038
    11  H    0.000012  -0.000004
    12  H   -0.000001   0.000000
    13  H    0.000003  -0.000000
    14  H   -0.000019   0.000003
    15  H   -0.000506   0.000218
    16  H    0.000206   0.000681
    17  H   -0.007485   0.008300
    18  H    0.007166  -0.006383
    19  H    0.465355  -0.039878
    20  H   -0.039878   0.482037
 Mulliken charges:
               1
     1  Cl  -0.090277
     2  C   -0.032865
     3  C   -0.157339
     4  C   -0.143982
     5  C   -0.154741
     6  C   -0.134497
     7  C    0.127119
     8  C   -0.425636
     9  C   -0.157618
    10  N   -0.525625
    11  H    0.158937
    12  H    0.148491
    13  H    0.148009
    14  H    0.156644
    15  H    0.153225
    16  H    0.179875
    17  H    0.144772
    18  H    0.142195
    19  H    0.237531
    20  H    0.225783
 Sum of Mulliken charges =  -0.00000
 Mulliken charges with hydrogens summed into heavy atoms:
               1
     1  Cl  -0.090277
     2  C   -0.032865
     3  C    0.001599
     4  C    0.004509
     5  C   -0.006732
     6  C    0.022146
     7  C    0.127119
     8  C   -0.092535
     9  C    0.129348
    10  N   -0.062312
 Electronic spatial extent (au):  <R**2>=           1709.1603
 Charge=              0.0000 electrons
 Dipole moment (field-independent basis, Debye):
    X=              1.6309    Y=             -0.9149    Z=             -0.8471  Tot=              2.0529
 Quadrupole moment (field-independent basis, Debye-Ang):
   XX=            -65.2338   YY=            -64.5263   ZZ=            -71.6349
   XY=             -1.8176   XZ=              7.2249   YZ=              3.4869
 Traceless Quadrupole moment (field-independent basis, Debye-Ang):
   XX=              1.8979   YY=              2.6054   ZZ=             -4.5033
   XY=             -1.8176   XZ=              7.2249   YZ=              3.4869
 Octapole moment (field-independent basis, Debye-Ang**2):
  XXX=             18.3829  YYY=             -1.1300  ZZZ=             -4.6654  XYY=              2.2733
  XXY=              9.7948  XXZ=             -8.3887  XZZ=              2.8244  YZZ=              6.5476
  YYZ=             -1.0363  XYZ=             -4.6715
 Hexadecapole moment (field-independent basis, Debye-Ang**3):
 XXXX=          -1231.2029 YYYY=           -779.3036 ZZZZ=           -258.6588 XXXY=            -37.0661
 XXXZ=             80.7183 YYYX=            -15.7677 YYYZ=              7.1267 ZZZX=             18.5091
 ZZZY=              5.3655 XXYY=           -322.0046 XXZZ=           -293.2820 YYZZ=           -180.0635
 XXYZ=             18.9696 YYXZ=              6.6119 ZZXY=             -6.9039
 N-N= 5.887304753397D+02 E-N=-3.120280726216D+03  KE= 8.233554906242D+02
 Unable to Open any file for archive entry.
 1\1\GINC-NOTCH114\SP\RM062X\def2TZVP\C8H10Cl1N1\U6032257\21-Feb-2022\0
 \\# M062X/def2tzvp int=(grid=ultrafine) nmr=giao guess=read geom=check
 \\N3.xyz\\0,1\Cl,0,-0.0162679547,2.5959547026,1.1309308772\C,0,-0.8747
 829309,1.2023200507,0.4624006897\C,0,-2.1212280706,1.4412665345,-0.117
 2507847\C,0,-2.8433815429,0.378926662,-0.6535538103\C,0,-2.3165632501,
 -0.9119522211,-0.6024017697\C,0,-1.0734325033,-1.1271307309,-0.0157953
 582\C,0,-0.3165079165,-0.081329679,0.5350416833\C,0,1.0494323097,-0.37
 14459961,1.103468513\C,0,2.1401085598,-0.4398196605,0.0039084937\N,0,2
 .3267092531,0.7562545293,-0.8094535865\H,0,-2.512951608,2.4514693763,-
 0.1431909115\H,0,-3.8128533133,0.5622882087,-1.1053442146\H,0,-2.87335
 78769,-1.7473257899,-1.0145114794\H,0,-0.6642127394,-2.1328771192,0.02
 65817073\H,0,1.0209231442,-1.3343649153,1.6272069646\H,0,1.3247142806,
 0.3874593504,1.840601337\H,0,1.9066690587,-1.2718655191,-0.6712976159\
 H,0,3.0956577145,-0.6844298284,0.4823423114\H,0,1.4590695662,0.9802400
 171,-1.2917803033\H,0,2.5219558197,1.5545620281,-0.2098027433\\Version
 =ES64L-G16RevC.01\State=1-A\HF=-825.7959718\RMSD=1.673e-09\Dipole=-0.6
 278536,-0.4921128,0.1262571\Quadrupole=-0.1964995,2.8805324,-2.6840329
 ,-0.3661641,6.1561718,-0.2723067\PG=C01 [X(C8H10Cl1N1)]\\@
 The archive entry for this job was punched.


 I LOVE MANKIND - IT'S PEOPLE I CAN'T STAND.
     -- LINUS OF PEANUTS
 Job cpu time:       0 days  0 hours 24 minutes 37.0 seconds.
 Elapsed time:       0 days  0 hours  0 minutes 41.6 seconds.
 File lengths (MBytes):  RWF=     83 Int=      0 D2E=      0 Chk=     14 Scr=      1
 Normal termination of Gaussian 16 at Mon Feb 21 19:40:28 2022.
