 Entering Gaussian System, Link 0=/uufs/chpc.utah.edu/sys/installdir/gaussian16/C01/AVX2/g16/g16
 Input=N3_conf-7.com
 Output=N3_conf-7.log
 Initial command:
 /uufs/chpc.utah.edu/sys/installdir/gaussian16/C01/AVX2/g16/l1.exe "/scratch/local/u6032257/4038680/notchpeak.peaks/Gau-34956.inp" -scrdir="/scratch/local/u6032257/4038680/notchpeak.peaks/"
 Entering Link 1 = /uufs/chpc.utah.edu/sys/installdir/gaussian16/C01/AVX2/g16/l1.exe PID=     34958.
  
 Copyright (c) 1988-2019, Gaussian, Inc.  All Rights Reserved.
  
 This is part of the Gaussian(R) 16 program.  It is based on
 the Gaussian(R) 09 system (copyright 2009, Gaussian, Inc.),
 the Gaussian(R) 03 system (copyright 2003, Gaussian, Inc.),
 the Gaussian(R) 98 system (copyright 1998, Gaussian, Inc.),
 the Gaussian(R) 94 system (copyright 1995, Gaussian, Inc.),
 the Gaussian 92(TM) system (copyright 1992, Gaussian, Inc.),
 the Gaussian 90(TM) system (copyright 1990, Gaussian, Inc.),
 the Gaussian 88(TM) system (copyright 1988, Gaussian, Inc.),
 the Gaussian 86(TM) system (copyright 1986, Carnegie Mellon
 University), and the Gaussian 82(TM) system (copyright 1983,
 Carnegie Mellon University). Gaussian is a federally registered
 trademark of Gaussian, Inc.
  
 This software contains proprietary and confidential information,
 including trade secrets, belonging to Gaussian, Inc.
  
 This software is provided under written license and may be
 used, copied, transmitted, or stored only in accord with that
 written license.
  
 The following legend is applicable only to US Government
 contracts under FAR:
  
                    RESTRICTED RIGHTS LEGEND
  
 Use, reproduction and disclosure by the US Government is
 subject to restrictions as set forth in subparagraphs (a)
 and (c) of the Commercial Computer Software - Restricted
 Rights clause in FAR 52.227-19.
  
 Gaussian, Inc.
 340 Quinnipiac St., Bldg. 40, Wallingford CT 06492
  
  
 ---------------------------------------------------------------
 Warning -- This program may not be used in any manner that
 competes with the business of Gaussian, Inc. or will provide
 assistance to any competitor of Gaussian, Inc.  The licensee
 of this program is prohibited from giving any competitor of
 Gaussian, Inc. access to this program.  By using this program,
 the user acknowledges that Gaussian, Inc. is engaged in the
 business of creating and licensing software in the field of
 computational chemistry and represents and warrants to the
 licensee that it is not a competitor of Gaussian, Inc. and that
 it will not use this program in any manner prohibited above.
 ---------------------------------------------------------------
  

 Cite this work as:
 Gaussian 16, Revision C.01,
 M. J. Frisch, G. W. Trucks, H. B. Schlegel, G. E. Scuseria, 
 M. A. Robb, J. R. Cheeseman, G. Scalmani, V. Barone, 
 G. A. Petersson, H. Nakatsuji, X. Li, M. Caricato, A. V. Marenich, 
 J. Bloino, B. G. Janesko, R. Gomperts, B. Mennucci, H. P. Hratchian, 
 J. V. Ortiz, A. F. Izmaylov, J. L. Sonnenberg, D. Williams-Young, 
 F. Ding, F. Lipparini, F. Egidi, J. Goings, B. Peng, A. Petrone, 
 T. Henderson, D. Ranasinghe, V. G. Zakrzewski, J. Gao, N. Rega, 
 G. Zheng, W. Liang, M. Hada, M. Ehara, K. Toyota, R. Fukuda, 
 J. Hasegawa, M. Ishida, T. Nakajima, Y. Honda, O. Kitao, H. Nakai, 
 T. Vreven, K. Throssell, J. A. Montgomery, Jr., J. E. Peralta, 
 F. Ogliaro, M. J. Bearpark, J. J. Heyd, E. N. Brothers, K. N. Kudin, 
 V. N. Staroverov, T. A. Keith, R. Kobayashi, J. Normand, 
 K. Raghavachari, A. P. Rendell, J. C. Burant, S. S. Iyengar, 
 J. Tomasi, M. Cossi, J. M. Millam, M. Klene, C. Adamo, R. Cammi, 
 J. W. Ochterski, R. L. Martin, K. Morokuma, O. Farkas, 
 J. B. Foresman, and D. J. Fox, Gaussian, Inc., Wallingford CT, 2019.
 
 ******************************************
 Gaussian 16:  ES64L-G16RevC.01  3-Jul-2019
                21-Feb-2022 
 ******************************************
 %NProcShared=52
 Will use up to   52 processors via shared memory.
 %mem=16GB
 %chk=N3_conf-7.chk
 ----------------------------------------------------------------------
 # B3LYP/6-31G(d,p) empiricaldispersion=GD3BJ int=(grid=ultrafine) opt 
 freq=noraman
 ----------------------------------------------------------------------
 1/18=20,19=15,26=4,38=1/1,3;
 2/9=110,12=2,17=6,18=5,40=1/2;
 3/5=1,6=6,7=101,11=2,25=1,30=1,71=1,74=-5,75=-5,124=41/1,2,3;
 4//1;
 5/5=2,38=5/2;
 6/7=2,8=2,9=2,10=2,28=1/1;
 7//1,2,3,16;
 1/18=20,19=15,26=4/3(2);
 2/9=110/2;
 99//99;
 2/9=110/2;
 3/5=1,6=6,7=101,11=2,25=1,30=1,71=1,74=-5,75=-5,124=41/1,2,3;
 4/5=5,16=3,69=1/1;
 5/5=2,38=5/2;
 7//1,2,3,16;
 1/18=20,19=15,26=4/3(-5);
 2/9=110/2;
 6/7=2,8=2,9=2,10=2,19=2,28=1/1;
 99/9=1/99;
 ------
 N3.xyz
 ------
 Symbolic Z-matrix:
 Charge =  0 Multiplicity = 1
 Cl                   -0.2402    2.6345    1.3439 
 C                    -0.9636    1.2751    0.5536 
 C                    -2.2463    1.4226    0.0232 
 C                    -2.869     0.3566   -0.6257 
 C                    -2.2064   -0.8638   -0.7487 
 C                    -0.9248   -1.0177   -0.2197 
 C                    -0.2936    0.0446    0.4378 
 C                     1.1094   -0.1621    1.0081 
 C                     2.2354    0.3387    0.0863 
 N                     2.4103   -0.5604   -1.0443 
 H                    -2.7557    2.3704    0.1152 
 H                    -3.8605    0.479    -1.0369 
 H                    -2.6814   -1.6894   -1.2589 
 H                    -0.4117   -1.9616   -0.3336 
 H                     1.2584   -1.2136    1.2558 
 H                     1.169     0.3511    1.9681 
 H                     3.1723    0.4041    0.6435 
 H                     2.0112    1.3475   -0.2683 
 H                     3.0794   -0.1817   -1.7011 
 H                     2.7749   -1.4534   -0.7441 
 

 GradGradGradGradGradGradGradGradGradGradGradGradGradGradGradGradGradGrad
 Berny optimization.
 Initialization pass.
                           ----------------------------
                           !    Initial Parameters    !
                           ! (Angstroms and Degrees)  !
 --------------------------                            --------------------------
 ! Name  Definition              Value          Derivative Info.                !
 --------------------------------------------------------------------------------
 ! R1    R(1,2)                  1.7309         estimate D2E/DX2                !
 ! R2    R(2,3)                  1.3959         estimate D2E/DX2                !
 ! R3    R(2,7)                  1.4059         estimate D2E/DX2                !
 ! R4    R(3,4)                  1.3947         estimate D2E/DX2                !
 ! R5    R(3,11)                 1.0799         estimate D2E/DX2                !
 ! R6    R(4,5)                  1.3941         estimate D2E/DX2                !
 ! R7    R(4,12)                 1.0803         estimate D2E/DX2                !
 ! R8    R(5,6)                  1.395          estimate D2E/DX2                !
 ! R9    R(5,13)                 1.0805         estimate D2E/DX2                !
 ! R10   R(6,7)                  1.3997         estimate D2E/DX2                !
 ! R11   R(6,14)                 1.0804         estimate D2E/DX2                !
 ! R12   R(7,8)                  1.5285         estimate D2E/DX2                !
 ! R13   R(8,9)                  1.539          estimate D2E/DX2                !
 ! R14   R(8,15)                 1.0905         estimate D2E/DX2                !
 ! R15   R(8,16)                 1.0902         estimate D2E/DX2                !
 ! R16   R(9,10)                 1.4551         estimate D2E/DX2                !
 ! R17   R(9,17)                 1.092          estimate D2E/DX2                !
 ! R18   R(9,18)                 1.0926         estimate D2E/DX2                !
 ! R19   R(10,19)                1.0112         estimate D2E/DX2                !
 ! R20   R(10,20)                1.0102         estimate D2E/DX2                !
 ! A1    A(1,2,3)              118.3314         estimate D2E/DX2                !
 ! A2    A(1,2,7)              121.7258         estimate D2E/DX2                !
 ! A3    A(3,2,7)              119.9428         estimate D2E/DX2                !
 ! A4    A(2,3,4)              120.4183         estimate D2E/DX2                !
 ! A5    A(2,3,11)             119.5923         estimate D2E/DX2                !
 ! A6    A(4,3,11)             119.9891         estimate D2E/DX2                !
 ! A7    A(3,4,5)              119.8633         estimate D2E/DX2                !
 ! A8    A(3,4,12)             120.0167         estimate D2E/DX2                !
 ! A9    A(5,4,12)             120.1191         estimate D2E/DX2                !
 ! A10   A(4,5,6)              119.9846         estimate D2E/DX2                !
 ! A11   A(4,5,13)             120.1052         estimate D2E/DX2                !
 ! A12   A(6,5,13)             119.909          estimate D2E/DX2                !
 ! A13   A(5,6,7)              120.5768         estimate D2E/DX2                !
 ! A14   A(5,6,14)             119.5203         estimate D2E/DX2                !
 ! A15   A(7,6,14)             119.8961         estimate D2E/DX2                !
 ! A16   A(2,7,6)              119.2128         estimate D2E/DX2                !
 ! A17   A(2,7,8)              121.6729         estimate D2E/DX2                !
 ! A18   A(6,7,8)              119.114          estimate D2E/DX2                !
 ! A19   A(7,8,9)              113.8343         estimate D2E/DX2                !
 ! A20   A(7,8,15)             109.9106         estimate D2E/DX2                !
 ! A21   A(7,8,16)             108.365          estimate D2E/DX2                !
 ! A22   A(9,8,15)             110.4786         estimate D2E/DX2                !
 ! A23   A(9,8,16)             109.5275         estimate D2E/DX2                !
 ! A24   A(15,8,16)            104.2656         estimate D2E/DX2                !
 ! A25   A(8,9,10)             110.6268         estimate D2E/DX2                !
 ! A26   A(8,9,17)             109.9739         estimate D2E/DX2                !
 ! A27   A(8,9,18)             110.1653         estimate D2E/DX2                !
 ! A28   A(10,9,17)            109.2896         estimate D2E/DX2                !
 ! A29   A(10,9,18)            110.0609         estimate D2E/DX2                !
 ! A30   A(17,9,18)            106.6403         estimate D2E/DX2                !
 ! A31   A(9,10,19)            110.6597         estimate D2E/DX2                !
 ! A32   A(9,10,20)            111.0205         estimate D2E/DX2                !
 ! A33   A(19,10,20)           106.5746         estimate D2E/DX2                !
 ! D1    D(1,2,3,4)            179.8309         estimate D2E/DX2                !
 ! D2    D(1,2,3,11)             0.0066         estimate D2E/DX2                !
 ! D3    D(7,2,3,4)             -0.1643         estimate D2E/DX2                !
 ! D4    D(7,2,3,11)          -179.9886         estimate D2E/DX2                !
 ! D5    D(1,2,7,6)           -179.5879         estimate D2E/DX2                !
 ! D6    D(1,2,7,8)              0.2198         estimate D2E/DX2                !
 ! D7    D(3,2,7,6)              0.4071         estimate D2E/DX2                !
 ! D8    D(3,2,7,8)           -179.7851         estimate D2E/DX2                !
 ! D9    D(2,3,4,5)             -0.1361         estimate D2E/DX2                !
 ! D10   D(2,3,4,12)          -179.7819         estimate D2E/DX2                !
 ! D11   D(11,3,4,5)           179.6875         estimate D2E/DX2                !
 ! D12   D(11,3,4,12)            0.0417         estimate D2E/DX2                !
 ! D13   D(3,4,5,6)              0.1895         estimate D2E/DX2                !
 ! D14   D(3,4,5,13)          -179.4183         estimate D2E/DX2                !
 ! D15   D(12,4,5,6)           179.8349         estimate D2E/DX2                !
 ! D16   D(12,4,5,13)            0.2271         estimate D2E/DX2                !
 ! D17   D(4,5,6,7)              0.0584         estimate D2E/DX2                !
 ! D18   D(4,5,6,14)          -178.9922         estimate D2E/DX2                !
 ! D19   D(13,5,6,7)           179.6669         estimate D2E/DX2                !
 ! D20   D(13,5,6,14)            0.6163         estimate D2E/DX2                !
 ! D21   D(5,6,7,2)             -0.3556         estimate D2E/DX2                !
 ! D22   D(5,6,7,8)            179.8317         estimate D2E/DX2                !
 ! D23   D(14,6,7,2)           178.6915         estimate D2E/DX2                !
 ! D24   D(14,6,7,8)            -1.1213         estimate D2E/DX2                !
 ! D25   D(2,7,8,9)            -82.6961         estimate D2E/DX2                !
 ! D26   D(2,7,8,15)           152.7764         estimate D2E/DX2                !
 ! D27   D(2,7,8,16)            39.4237         estimate D2E/DX2                !
 ! D28   D(6,7,8,9)             97.1119         estimate D2E/DX2                !
 ! D29   D(6,7,8,15)           -27.4156         estimate D2E/DX2                !
 ! D30   D(6,7,8,16)          -140.7684         estimate D2E/DX2                !
 ! D31   D(7,8,9,10)           -73.8326         estimate D2E/DX2                !
 ! D32   D(7,8,9,17)           165.3458         estimate D2E/DX2                !
 ! D33   D(7,8,9,18)            48.0837         estimate D2E/DX2                !
 ! D34   D(15,8,9,10)           50.3894         estimate D2E/DX2                !
 ! D35   D(15,8,9,17)          -70.4322         estimate D2E/DX2                !
 ! D36   D(15,8,9,18)          172.3058         estimate D2E/DX2                !
 ! D37   D(16,8,9,10)          164.6913         estimate D2E/DX2                !
 ! D38   D(16,8,9,17)           43.8697         estimate D2E/DX2                !
 ! D39   D(16,8,9,18)          -73.3924         estimate D2E/DX2                !
 ! D40   D(8,9,10,19)          173.917          estimate D2E/DX2                !
 ! D41   D(8,9,10,20)          -67.9512         estimate D2E/DX2                !
 ! D42   D(17,9,10,19)         -64.8555         estimate D2E/DX2                !
 ! D43   D(17,9,10,20)          53.2763         estimate D2E/DX2                !
 ! D44   D(18,9,10,19)          51.9394         estimate D2E/DX2                !
 ! D45   D(18,9,10,20)         170.0712         estimate D2E/DX2                !
 --------------------------------------------------------------------------------
 Trust Radius=3.00D-01 FncErr=1.00D-07 GrdErr=1.00D-06 EigMax=2.50D+02 EigMin=1.00D-04
 Number of steps in this run=    108 maximum allowed number of steps=    120.
 GradGradGradGradGradGradGradGradGradGradGradGradGradGradGradGradGradGrad

                          Input orientation:                          
 ---------------------------------------------------------------------
 Center     Atomic      Atomic             Coordinates (Angstroms)
 Number     Number       Type             X           Y           Z
 ---------------------------------------------------------------------
      1         17           0       -0.240200    2.634500    1.343900
      2          6           0       -0.963600    1.275100    0.553600
      3          6           0       -2.246300    1.422600    0.023200
      4          6           0       -2.869000    0.356600   -0.625700
      5          6           0       -2.206400   -0.863800   -0.748700
      6          6           0       -0.924800   -1.017700   -0.219700
      7          6           0       -0.293600    0.044600    0.437800
      8          6           0        1.109400   -0.162100    1.008100
      9          6           0        2.235400    0.338700    0.086300
     10          7           0        2.410300   -0.560400   -1.044300
     11          1           0       -2.755700    2.370400    0.115200
     12          1           0       -3.860500    0.479000   -1.036900
     13          1           0       -2.681400   -1.689400   -1.258900
     14          1           0       -0.411700   -1.961600   -0.333600
     15          1           0        1.258400   -1.213600    1.255800
     16          1           0        1.169000    0.351100    1.968100
     17          1           0        3.172300    0.404100    0.643500
     18          1           0        2.011200    1.347500   -0.268300
     19          1           0        3.079400   -0.181700   -1.701100
     20          1           0        2.774900   -1.453400   -0.744100
 ---------------------------------------------------------------------
                    Distance matrix (angstroms):
                    1          2          3          4          5
     1  Cl   0.000000
     2  C    1.730852   0.000000
     3  C    2.690239   1.395851   0.000000
     4  C    3.997342   2.421764   1.394698   0.000000
     5  C    4.525817   2.795609   2.413513   1.394110   0.000000
     6  C    4.031388   2.420006   2.785754   2.415254   1.395000
     7  C    2.744349   1.405859   2.425658   2.803758   2.427298
     8  C    3.123324   2.563092   3.839534   4.331976   3.817494
     9  C    3.602895   3.365831   4.611340   5.153849   4.676839
    10  N    4.789158   4.159993   5.172598   5.374674   4.636092
    11  H    2.811973   2.145577   1.079943   2.148758   3.392360
    12  H    4.839521   3.399337   2.149380   1.080342   2.149934
    13  H    5.606259   3.876113   3.393764   2.149942   1.080530
    14  H    4.895667   3.401168   3.865989   3.390825   2.144393
    15  H    4.130549   3.409398   4.555412   4.800104   4.018111
    16  H    2.754884   2.720766   4.073699   4.799299   4.500034
    17  H    4.136472   4.227575   5.548274   6.173365   5.698790
    18  H    3.053581   3.087102   4.268128   4.992591   4.786312
    19  H    5.312509   4.853018   5.823235   6.068749   5.414057
    20  H    5.491949   4.806779   5.837172   5.928214   5.016074
                    6          7          8          9         10
     6  C    0.000000
     7  C    1.399715   0.000000
     8  C    2.525374   1.528521   0.000000
     9  C    3.452582   2.570192   1.538958   0.000000
    10  N    3.465830   3.142248   2.462383   1.455069   0.000000
    11  H    3.865692   3.402257   4.706360   5.388851   6.051577
    12  H    3.395035   3.884098   5.412295   6.200102   6.356362
    13  H    2.148665   3.403988   4.673553   5.486135   5.219780
    14  H    1.080367   2.152637   2.711476   3.531973   3.229882
    15  H    2.642317   2.158911   1.090508   2.175292   2.654054
    16  H    3.323264   2.138915   1.090196   2.162992   3.383225
    17  H    4.421861   3.490561   2.170040   1.092030   2.087959
    18  H    3.770495   2.740115   2.172863   1.092559   2.097985
    19  H    4.350524   4.000404   3.349783   2.044004   1.011185
    20  H    3.761995   3.613390   2.740721   2.047498   1.010199
                   11         12         13         14         15
    11  H    0.000000
    12  H    2.474937   0.000000
    13  H    4.286683   2.478209   0.000000
    14  H    4.945906   4.283151   2.466133   0.000000
    15  H    5.500820   5.858712   4.698098   2.423826   0.000000
    16  H    4.786865   5.860226   5.422430   3.625606   1.721525
    17  H    6.267904   7.231157   6.501359   4.404125   2.579705
    18  H    4.890474   5.985140   5.676667   4.101811   3.073894
    19  H    6.622730   7.002849   5.971224   4.150407   3.622722
    20  H    6.778450   6.917256   5.485611   3.252875   2.521285
                   16         17         18         19         20
    16  H    0.000000
    17  H    2.402204   0.000000
    18  H    2.589131   1.752009   0.000000
    19  H    4.170915   2.418458   2.352110   0.000000
    20  H    3.631964   2.352375   2.941881   1.620429   0.000000
 Stoichiometry    C8H10ClN
 Framework group  C1[X(C8H10ClN)]
 Deg. of freedom    54
 Full point group                 C1      NOp   1
 Largest Abelian subgroup         C1      NOp   1
 Largest concise Abelian subgroup C1      NOp   1
                         Standard orientation:                         
 ---------------------------------------------------------------------
 Center     Atomic      Atomic             Coordinates (Angstroms)
 Number     Number       Type             X           Y           Z
 ---------------------------------------------------------------------
      1         17           0       -0.444843    2.302462   -0.017056
      2          6           0       -0.850724    0.620511    0.029320
      3          6           0       -2.129175    0.236091   -0.378338
      4          6           0       -2.501265   -1.107956   -0.361908
      5          6           0       -1.590834   -2.075160    0.061382
      6          6           0       -0.312068   -1.697065    0.471049
      7          6           0        0.069021   -0.350250    0.463060
      8          6           0        1.477221    0.026928    0.922502
      9          6           0        2.479726    0.209128   -0.230831
     10          7           0        2.856161   -1.079854   -0.791233
     11          1           0       -2.831130    0.986497   -0.710643
     12          1           0       -3.491267   -1.398606   -0.682155
     13          1           0       -1.871825   -3.118500    0.066772
     14          1           0        0.392908   -2.454333    0.782087
     15          1           0        1.845657   -0.711712    1.635155
     16          1           0        1.414541    0.949469    1.500009
     17          1           0        3.374463    0.720789    0.129974
     18          1           0        2.048208    0.844123   -1.008171
     19          1           0        3.435687   -0.957057   -1.610723
     20          1           0        3.400552   -1.616903   -0.131143
 ---------------------------------------------------------------------
 Rotational constants (GHZ):           1.3553882           1.0153787           0.6367164
 Standard basis: 6-31G(d,p) (6D, 7F)
 There are   204 symmetry adapted cartesian basis functions of A   symmetry.
 There are   204 symmetry adapted basis functions of A   symmetry.
   204 basis functions,   374 primitive gaussians,   204 cartesian basis functions
    41 alpha electrons       41 beta electrons
       nuclear repulsion energy       582.4140696318 Hartrees.
 NAtoms=   20 NActive=   20 NUniq=   20 SFac= 1.00D+00 NAtFMM=   60 NAOKFM=F Big=F
 Integral buffers will be    131072 words long.
 Raffenetti 2 integral format.
 Two-electron integral symmetry is turned on.
 Nuclear repulsion after empirical dispersion term =      582.3752966858 Hartrees.
 One-electron integrals computed using PRISM.
 NBasis=   204 RedAO= T EigKep=  4.47D-04  NBF=   204
 NBsUse=   204 1.00D-06 EigRej= -1.00D+00 NBFU=   204
 ExpMin= 1.43D-01 ExpMax= 2.52D+04 ExpMxC= 3.78D+03 IAcc=3 IRadAn=         5 AccDes= 0.00D+00
 Harris functional with IExCor=  402 and IRadAn=       5 diagonalized for initial guess.
 HarFok:  IExCor=  402 AccDes= 0.00D+00 IRadAn=         5 IDoV= 1 UseB2=F ITyADJ=14
 ICtDFT=  3500011 ScaDFX=  1.000000  1.000000  1.000000  1.000000
 FoFCou: FMM=F IPFlag=           0 FMFlag=      100000 FMFlg1=           0
         NFxFlg=           0 DoJE=T BraDBF=F KetDBF=T FulRan=T
         wScrn=  0.000000 ICntrl=       500 IOpCl=  0 I1Cent=   200000004 NGrid=           0
         NMat0=    1 NMatS0=      1 NMatT0=    0 NMatD0=    1 NMtDS0=    0 NMtDT0=    0
 Petite list used in FoFCou.
 Requested convergence on RMS density matrix=1.00D-08 within 128 cycles.
 Requested convergence on MAX density matrix=1.00D-06.
 Requested convergence on             energy=1.00D-06.
 No special actions if energy rises.
 Integral accuracy reduced to 1.0D-05 until final iterations.
 Initial convergence to 1.0D-05 achieved.  Increase integral accuracy.
 SCF Done:  E(RB3LYP) =  -825.868695973     A.U. after   14 cycles
            NFock= 14  Conv=0.44D-08     -V/T= 2.0060

 **********************************************************************

            Population analysis using the SCF Density.

 **********************************************************************

 Orbital symmetries:
       Occupied  (A) (A) (A) (A) (A) (A) (A) (A) (A) (A) (A) (A)
                 (A) (A) (A) (A) (A) (A) (A) (A) (A) (A) (A) (A)
                 (A) (A) (A) (A) (A) (A) (A) (A) (A) (A) (A) (A)
                 (A) (A) (A) (A) (A)
       Virtual   (A) (A) (A) (A) (A) (A) (A) (A) (A) (A) (A) (A)
                 (A) (A) (A) (A) (A) (A) (A) (A) (A) (A) (A) (A)
                 (A) (A) (A) (A) (A) (A) (A) (A) (A) (A) (A) (A)
                 (A) (A) (A) (A) (A) (A) (A) (A) (A) (A) (A) (A)
                 (A) (A) (A) (A) (A) (A) (A) (A) (A) (A) (A) (A)
                 (A) (A) (A) (A) (A) (A) (A) (A) (A) (A) (A) (A)
                 (A) (A) (A) (A) (A) (A) (A) (A) (A) (A) (A) (A)
                 (A) (A) (A) (A) (A) (A) (A) (A) (A) (A) (A) (A)
                 (A) (A) (A) (A) (A) (A) (A) (A) (A) (A) (A) (A)
                 (A) (A) (A) (A) (A) (A) (A) (A) (A) (A) (A) (A)
                 (A) (A) (A) (A) (A) (A) (A) (A) (A) (A) (A) (A)
                 (A) (A) (A) (A) (A) (A) (A) (A) (A) (A) (A) (A)
                 (A) (A) (A) (A) (A) (A) (A) (A) (A) (A) (A) (A)
                 (A) (A) (A) (A) (A) (A) (A)
 The electronic state is 1-A.
 Alpha  occ. eigenvalues -- -101.54619 -14.30688 -10.24296 -10.20669 -10.20177
 Alpha  occ. eigenvalues --  -10.19407 -10.19090 -10.18881 -10.18801 -10.18672
 Alpha  occ. eigenvalues --   -9.46274  -7.22653  -7.21712  -7.21673  -0.89131
 Alpha  occ. eigenvalues --   -0.87841  -0.83063  -0.77402  -0.73023  -0.70518
 Alpha  occ. eigenvalues --   -0.62104  -0.60345  -0.57480  -0.50881  -0.48859
 Alpha  occ. eigenvalues --   -0.47061  -0.46085  -0.44511  -0.42575  -0.42235
 Alpha  occ. eigenvalues --   -0.39872  -0.38715  -0.36540  -0.35617  -0.34638
 Alpha  occ. eigenvalues --   -0.34279  -0.32645  -0.30607  -0.24626  -0.23642
 Alpha  occ. eigenvalues --   -0.22657
 Alpha virt. eigenvalues --   -0.00376  -0.00168   0.04484   0.08336   0.11372
 Alpha virt. eigenvalues --    0.12716   0.13657   0.15285   0.15904   0.16274
 Alpha virt. eigenvalues --    0.17138   0.18393   0.19190   0.19442   0.23381
 Alpha virt. eigenvalues --    0.25282   0.26294   0.29052   0.30485   0.31145
 Alpha virt. eigenvalues --    0.33545   0.41060   0.41710   0.45775   0.46166
 Alpha virt. eigenvalues --    0.47295   0.51955   0.52128   0.53263   0.55398
 Alpha virt. eigenvalues --    0.56869   0.57832   0.59219   0.60473   0.60786
 Alpha virt. eigenvalues --    0.61060   0.61413   0.62214   0.63311   0.65990
 Alpha virt. eigenvalues --    0.66779   0.72245   0.72877   0.74275   0.76849
 Alpha virt. eigenvalues --    0.78017   0.78940   0.81566   0.81817   0.82342
 Alpha virt. eigenvalues --    0.83359   0.85475   0.86991   0.87447   0.88011
 Alpha virt. eigenvalues --    0.89531   0.91149   0.93018   0.94636   0.95478
 Alpha virt. eigenvalues --    0.96453   0.96665   0.98155   0.99242   1.01639
 Alpha virt. eigenvalues --    1.07170   1.11044   1.12122   1.13342   1.14366
 Alpha virt. eigenvalues --    1.20735   1.25222   1.27057   1.30242   1.34404
 Alpha virt. eigenvalues --    1.38298   1.40514   1.41440   1.41962   1.42679
 Alpha virt. eigenvalues --    1.47144   1.50204   1.53409   1.54828   1.62236
 Alpha virt. eigenvalues --    1.74033   1.76444   1.79319   1.80561   1.83333
 Alpha virt. eigenvalues --    1.84064   1.86705   1.88037   1.88441   1.93042
 Alpha virt. eigenvalues --    1.94470   1.98619   1.99408   2.00051   2.00548
 Alpha virt. eigenvalues --    2.01897   2.07590   2.09697   2.12153   2.13653
 Alpha virt. eigenvalues --    2.18665   2.20208   2.21197   2.26617   2.28103
 Alpha virt. eigenvalues --    2.30496   2.30865   2.32514   2.35998   2.37477
 Alpha virt. eigenvalues --    2.39004   2.39801   2.42187   2.44407   2.46056
 Alpha virt. eigenvalues --    2.47754   2.50534   2.52696   2.54880   2.56625
 Alpha virt. eigenvalues --    2.57578   2.61876   2.64500   2.66864   2.69986
 Alpha virt. eigenvalues --    2.73398   2.74893   2.75245   2.78404   2.82387
 Alpha virt. eigenvalues --    2.88754   2.90300   2.93181   2.98944   2.99429
 Alpha virt. eigenvalues --    3.05714   3.19980   3.25111   3.27377   3.30591
 Alpha virt. eigenvalues --    3.32147   3.33122   3.36749   3.46467   3.48009
 Alpha virt. eigenvalues --    3.49396   3.57487   3.83969   3.97873   4.08554
 Alpha virt. eigenvalues --    4.14386   4.17777   4.30754   4.37156   4.42722
 Alpha virt. eigenvalues --    4.51437   4.66910   4.81378
          Condensed to atoms (all electrons):
               1          2          3          4          5          6
     1  Cl  16.926802   0.232770  -0.077648   0.004592   0.000299   0.004401
     2  C    0.232770   5.112830   0.508784  -0.039747  -0.043659  -0.040011
     3  C   -0.077648   0.508784   4.869751   0.539818  -0.028652  -0.046304
     4  C    0.004592  -0.039747   0.539818   4.799281   0.545659  -0.037792
     5  C    0.000299  -0.043659  -0.028652   0.545659   4.836648   0.516126
     6  C    0.004401  -0.040011  -0.046304  -0.037792   0.516126   4.855512
     7  C   -0.075438   0.505121  -0.029272  -0.032144  -0.025713   0.550588
     8  C   -0.005497  -0.057765   0.005964   0.000305   0.006694  -0.049884
     9  C   -0.001970  -0.005979  -0.000118   0.000035  -0.000134  -0.002175
    10  N    0.000083  -0.000378  -0.000004   0.000006  -0.000026   0.005271
    11  H   -0.000552  -0.041287   0.368979  -0.036171   0.004536   0.000890
    12  H   -0.000188   0.004937  -0.040970   0.370587  -0.041104   0.004566
    13  H    0.000015   0.001012   0.004744  -0.041966   0.364618  -0.036716
    14  H   -0.000153   0.006055   0.000410   0.004814  -0.044925   0.368664
    15  H    0.000328   0.005163  -0.000153  -0.000003   0.000153  -0.008020
    16  H    0.005866  -0.010177   0.000109   0.000010  -0.000241   0.003661
    17  H   -0.000043   0.000109   0.000004  -0.000000   0.000004   0.000089
    18  H    0.003038   0.002081  -0.000141  -0.000011   0.000002  -0.000048
    19  H    0.000005   0.000012  -0.000001   0.000000   0.000001  -0.000126
    20  H   -0.000003   0.000006  -0.000000  -0.000000  -0.000000   0.000048
               7          8          9         10         11         12
     1  Cl  -0.075438  -0.005497  -0.001970   0.000083  -0.000552  -0.000188
     2  C    0.505121  -0.057765  -0.005979  -0.000378  -0.041287   0.004937
     3  C   -0.029272   0.005964  -0.000118  -0.000004   0.368979  -0.040970
     4  C   -0.032144   0.000305   0.000035   0.000006  -0.036171   0.370587
     5  C   -0.025713   0.006694  -0.000134  -0.000026   0.004536  -0.041104
     6  C    0.550588  -0.049884  -0.002175   0.005271   0.000890   0.004566
     7  C    4.733886   0.360863  -0.035499  -0.002413   0.003444   0.000747
     8  C    0.360863   5.051390   0.351736  -0.059384  -0.000170   0.000006
     9  C   -0.035499   0.351736   4.803210   0.304567  -0.000001   0.000000
    10  N   -0.002413  -0.059384   0.304567   6.764944   0.000000   0.000000
    11  H    0.003444  -0.000170  -0.000001   0.000000   0.605974  -0.006493
    12  H    0.000747   0.000006   0.000000   0.000000  -0.006493   0.624848
    13  H    0.004223  -0.000185   0.000001  -0.000004  -0.000190  -0.006071
    14  H   -0.038924  -0.011731   0.000036   0.002447   0.000016  -0.000209
    15  H   -0.032679   0.372439  -0.036159  -0.007364   0.000003  -0.000000
    16  H   -0.025545   0.363368  -0.030788   0.004194  -0.000000  -0.000000
    17  H    0.005207  -0.046684   0.378356  -0.056030  -0.000000   0.000000
    18  H   -0.007877  -0.031863   0.391122  -0.038501   0.000005   0.000000
    19  H    0.000112   0.006249  -0.034371   0.342525   0.000000  -0.000000
    20  H   -0.000356  -0.004099  -0.038418   0.340193   0.000000  -0.000000
              13         14         15         16         17         18
     1  Cl   0.000015  -0.000153   0.000328   0.005866  -0.000043   0.003038
     2  C    0.001012   0.006055   0.005163  -0.010177   0.000109   0.002081
     3  C    0.004744   0.000410  -0.000153   0.000109   0.000004  -0.000141
     4  C   -0.041966   0.004814  -0.000003   0.000010  -0.000000  -0.000011
     5  C    0.364618  -0.044925   0.000153  -0.000241   0.000004   0.000002
     6  C   -0.036716   0.368664  -0.008020   0.003661   0.000089  -0.000048
     7  C    0.004223  -0.038924  -0.032679  -0.025545   0.005207  -0.007877
     8  C   -0.000185  -0.011731   0.372439   0.363368  -0.046684  -0.031863
     9  C    0.000001   0.000036  -0.036159  -0.030788   0.378356   0.391122
    10  N   -0.000004   0.002447  -0.007364   0.004194  -0.056030  -0.038501
    11  H   -0.000190   0.000016   0.000003  -0.000000  -0.000000   0.000005
    12  H   -0.006071  -0.000209  -0.000000  -0.000000   0.000000   0.000000
    13  H    0.630327  -0.005959  -0.000008   0.000003  -0.000000   0.000000
    14  H   -0.005959   0.625449   0.004952   0.000204   0.000003   0.000033
    15  H   -0.000008   0.004952   0.635877  -0.037084  -0.003191   0.005348
    16  H    0.000003   0.000204  -0.037084   0.614090  -0.001142  -0.001777
    17  H   -0.000000   0.000003  -0.003191  -0.001142   0.701288  -0.046333
    18  H    0.000000   0.000033   0.005348  -0.001777  -0.046333   0.604629
    19  H    0.000000  -0.000014   0.000118  -0.000254  -0.002127  -0.005194
    20  H   -0.000000   0.000065   0.005131  -0.000198  -0.006966   0.006462
              19         20
     1  Cl   0.000005  -0.000003
     2  C    0.000012   0.000006
     3  C   -0.000001  -0.000000
     4  C    0.000000  -0.000000
     5  C    0.000001  -0.000000
     6  C   -0.000126   0.000048
     7  C    0.000112  -0.000356
     8  C    0.006249  -0.004099
     9  C   -0.034371  -0.038418
    10  N    0.342525   0.340193
    11  H    0.000000   0.000000
    12  H   -0.000000  -0.000000
    13  H    0.000000  -0.000000
    14  H   -0.000014   0.000065
    15  H    0.000118   0.005131
    16  H   -0.000254  -0.000198
    17  H   -0.002127  -0.006966
    18  H   -0.005194   0.006462
    19  H    0.491171  -0.035230
    20  H   -0.035230   0.501288
 Mulliken charges:
               1
     1  Cl  -0.016706
     2  C   -0.139876
     3  C   -0.075299
     4  C   -0.077271
     5  C   -0.090284
     6  C   -0.088738
     7  C    0.141672
     8  C   -0.251751
     9  C   -0.043447
    10  N   -0.600126
    11  H    0.101017
    12  H    0.089344
    13  H    0.086158
    14  H    0.088767
    15  H    0.095150
    16  H    0.115702
    17  H    0.077457
    18  H    0.119027
    19  H    0.237125
    20  H    0.232079
 Sum of Mulliken charges =  -0.00000
 Mulliken charges with hydrogens summed into heavy atoms:
               1
     1  Cl  -0.016706
     2  C   -0.139876
     3  C    0.025717
     4  C    0.012073
     5  C   -0.004126
     6  C    0.000029
     7  C    0.141672
     8  C   -0.040898
     9  C    0.153037
    10  N   -0.130922
 Electronic spatial extent (au):  <R**2>=           1799.7925
 Charge=             -0.0000 electrons
 Dipole moment (field-independent basis, Debye):
    X=              1.2922    Y=             -1.1220    Z=              0.2517  Tot=              1.7297
 Quadrupole moment (field-independent basis, Debye-Ang):
   XX=            -54.2548   YY=            -65.7966   ZZ=            -66.8777
   XY=              0.1641   XZ=              1.5135   YZ=             -2.0046
 Traceless Quadrupole moment (field-independent basis, Debye-Ang):
   XX=              8.0549   YY=             -3.4869   ZZ=             -4.5680
   XY=              0.1641   XZ=              1.5135   YZ=             -2.0046
 Octapole moment (field-independent basis, Debye-Ang**2):
  XXX=             27.3782  YYY=             -4.2091  ZZZ=             -4.3056  XYY=              1.3328
  XXY=             -9.7368  XXZ=            -13.3231  XZZ=             10.7443  YZZ=              4.5940
  YYZ=              3.0404  XYZ=             -2.6824
 Hexadecapole moment (field-independent basis, Debye-Ang**3):
 XXXX=          -1133.6301 YYYY=           -843.8629 ZZZZ=           -179.4651 XXXY=            -49.6916
 XXXZ=            -15.2159 YYYX=              2.4560 YYYZ=             -8.6533 ZZZX=            -16.5530
 ZZZY=              2.7115 XXYY=           -340.4548 XXZZ=           -232.3183 YYZZ=           -184.4306
 XXYZ=              3.3334 YYXZ=              7.3295 ZZXY=             -9.8847
 N-N= 5.823752966858D+02 E-N=-3.105914533306D+03  KE= 8.209546152595D+02
 Calling FoFJK, ICntrl=      2127 FMM=F ISym2X=0 I1Cent= 0 IOpClX= 0 NMat=1 NMatS=1 NMatT=0.
 ***** Axes restored to original set *****
 -------------------------------------------------------------------
 Center     Atomic                   Forces (Hartrees/Bohr)
 Number     Number              X              Y              Z
 -------------------------------------------------------------------
      1       17           0.006658503    0.009102561    0.006079139
      2        6          -0.010652336   -0.018904740   -0.011550765
      3        6          -0.001732359   -0.000049167   -0.001070175
      4        6           0.005660026   -0.000989623    0.001934024
      5        6           0.002355838    0.001333041    0.001081464
      6        6          -0.009014839    0.008934566   -0.002159405
      7        6           0.018310843   -0.004712494    0.006720330
      8        6          -0.009025611    0.008971778    0.000407956
      9        6           0.004483623   -0.007751917    0.002976646
     10        7          -0.011654247    0.001034204   -0.011742742
     11        1          -0.001030388    0.003217836    0.000835252
     12        1          -0.003162599    0.001361867   -0.000775771
     13        1          -0.001679725   -0.002761603   -0.001536319
     14        1           0.003287408   -0.001363989    0.001243016
     15        1           0.000733885   -0.004578238   -0.004125035
     16        1           0.002059939    0.004422406    0.001467727
     17        1           0.002309620    0.005029577    0.011121915
     18        1          -0.002121804   -0.000305970   -0.001987721
     19        1           0.002118200    0.001772141   -0.002699549
     20        1           0.002096023   -0.003762234    0.003780014
 -------------------------------------------------------------------
 Cartesian Forces:  Max     0.018904740 RMS     0.006108592

 GradGradGradGradGradGradGradGradGradGradGradGradGradGradGradGradGradGrad
 Berny optimization.
 FormGI is forming the generalized inverse of G from B-inverse, IUseBI=4.
 Internal  Forces:  Max     0.012707892 RMS     0.003204258
 Search for a local minimum.
 Step number   1 out of a maximum of  108
 All quantities printed in internal units (Hartrees-Bohrs-Radians)
 Mixed Optimization -- RFO/linear search
 Second derivative matrix not updated -- first step.
 ITU=  0
     Eigenvalues ---    0.00251   0.00389   0.00963   0.01383   0.02055
     Eigenvalues ---    0.02081   0.02123   0.02137   0.02151   0.02159
     Eigenvalues ---    0.02160   0.02163   0.03735   0.04280   0.04317
     Eigenvalues ---    0.05212   0.05425   0.09203   0.09586   0.12679
     Eigenvalues ---    0.12999   0.15998   0.16000   0.16000   0.16000
     Eigenvalues ---    0.16000   0.16000   0.21871   0.21894   0.22000
     Eigenvalues ---    0.22490   0.24479   0.25000   0.25000   0.28611
     Eigenvalues ---    0.29560   0.32419   0.34519   0.34579   0.34754
     Eigenvalues ---    0.34790   0.35930   0.35950   0.35953   0.36001
     Eigenvalues ---    0.37588   0.41737   0.42008   0.45362   0.45775
     Eigenvalues ---    0.45939   0.46066   0.46383   0.46536
 RFO step:  Lambda=-5.98174185D-03 EMin= 2.50607210D-03
 Linear search not attempted -- first point.
 Iteration  1 RMS(Cart)=  0.06527904 RMS(Int)=  0.00150200
 Iteration  2 RMS(Cart)=  0.00239122 RMS(Int)=  0.00033015
 Iteration  3 RMS(Cart)=  0.00000246 RMS(Int)=  0.00033015
 Iteration  4 RMS(Cart)=  0.00000000 RMS(Int)=  0.00033015
 Variable       Old X    -DE/DX   Delta X   Delta X   Delta X     New X
                                 (Linear)    (Quad)   (Total)
    R1        3.27084   0.01271   0.00000   0.03849   0.03849   3.30933
    R2        2.63778   0.00013   0.00000   0.00042   0.00044   2.63821
    R3        2.65669  -0.00367   0.00000  -0.00832  -0.00829   2.64840
    R4        2.63560  -0.00222   0.00000  -0.00438  -0.00440   2.63120
    R5        2.04080   0.00338   0.00000   0.00924   0.00924   2.05004
    R6        2.63449  -0.00015   0.00000  -0.00012  -0.00015   2.63433
    R7        2.04155   0.00335   0.00000   0.00917   0.00917   2.05072
    R8        2.63617  -0.00048   0.00000  -0.00115  -0.00116   2.63501
    R9        2.04191   0.00357   0.00000   0.00978   0.00978   2.05169
   R10        2.64508  -0.00146   0.00000  -0.00349  -0.00347   2.64160
   R11        2.04160   0.00262   0.00000   0.00717   0.00717   2.04877
   R12        2.88849  -0.00922   0.00000  -0.03056  -0.03056   2.85793
   R13        2.90821  -0.00419   0.00000  -0.01434  -0.01434   2.89387
   R14        2.06076   0.00358   0.00000   0.01012   0.01012   2.07088
   R15        2.06017   0.00349   0.00000   0.00985   0.00985   2.07002
   R16        2.74968   0.00798   0.00000   0.02091   0.02091   2.77059
   R17        2.06364   0.00796   0.00000   0.02262   0.02262   2.08626
   R18        2.06464   0.00080   0.00000   0.00227   0.00227   2.06691
   R19        1.91086   0.00382   0.00000   0.00823   0.00823   1.91910
   R20        1.90900   0.00521   0.00000   0.01119   0.01119   1.92019
    A1        2.06527  -0.00060   0.00000  -0.00225  -0.00228   2.06299
    A2        2.12452  -0.00593   0.00000  -0.02309  -0.02312   2.10140
    A3        2.09340   0.00653   0.00000   0.02534   0.02540   2.11879
    A4        2.10170  -0.00267   0.00000  -0.01085  -0.01085   2.09085
    A5        2.08728   0.00051   0.00000   0.00048   0.00048   2.08776
    A6        2.09421   0.00216   0.00000   0.01038   0.01038   2.10458
    A7        2.09201  -0.00049   0.00000  -0.00106  -0.00110   2.09091
    A8        2.09469  -0.00087   0.00000  -0.00618  -0.00616   2.08853
    A9        2.09647   0.00136   0.00000   0.00725   0.00727   2.10374
   A10        2.09413  -0.00084   0.00000  -0.00361  -0.00365   2.09048
   A11        2.09623   0.00038   0.00000   0.00155   0.00156   2.09779
   A12        2.09281   0.00047   0.00000   0.00209   0.00210   2.09491
   A13        2.10446   0.00407   0.00000   0.01697   0.01698   2.12145
   A14        2.08602   0.00072   0.00000   0.00813   0.00812   2.09415
   A15        2.09258  -0.00479   0.00000  -0.02505  -0.02506   2.06753
   A16        2.08066  -0.00659   0.00000  -0.02685  -0.02686   2.05379
   A17        2.12359   0.00143   0.00000   0.00610   0.00598   2.12958
   A18        2.07893   0.00516   0.00000   0.02068   0.02056   2.09949
   A19        1.98678  -0.00180   0.00000  -0.01632  -0.01687   1.96991
   A20        1.91830  -0.00027   0.00000  -0.01926  -0.02031   1.89799
   A21        1.89133   0.00275   0.00000   0.03178   0.03189   1.92321
   A22        1.92822  -0.00132   0.00000  -0.02774  -0.02853   1.89969
   A23        1.91162  -0.00125   0.00000  -0.00203  -0.00181   1.90980
   A24        1.81978   0.00232   0.00000   0.03985   0.04002   1.85980
   A25        1.93080  -0.00211   0.00000  -0.00885  -0.00989   1.92091
   A26        1.91941  -0.00483   0.00000  -0.02326  -0.02439   1.89502
   A27        1.92275   0.00049   0.00000  -0.02830  -0.02971   1.89303
   A28        1.90746   0.00917   0.00000   0.10305   0.10341   2.01087
   A29        1.92093  -0.00266   0.00000  -0.04132  -0.04207   1.87886
   A30        1.86122   0.00009   0.00000   0.00005   0.00005   1.86128
   A31        1.93138   0.00050   0.00000   0.00106   0.00102   1.93240
   A32        1.93767  -0.00388   0.00000  -0.02531  -0.02535   1.91232
   A33        1.86008   0.00132   0.00000   0.00420   0.00412   1.86419
    D1        3.13864  -0.00010   0.00000  -0.00433  -0.00430   3.13434
    D2        0.00012  -0.00016   0.00000  -0.00633  -0.00631  -0.00620
    D3       -0.00287  -0.00010   0.00000  -0.00428  -0.00427  -0.00714
    D4       -3.14139  -0.00016   0.00000  -0.00628  -0.00629   3.13551
    D5       -3.13440   0.00015   0.00000   0.00844   0.00829  -3.12611
    D6        0.00384  -0.00031   0.00000  -0.01587  -0.01568  -0.01185
    D7        0.00710   0.00015   0.00000   0.00838   0.00826   0.01536
    D8       -3.13784  -0.00032   0.00000  -0.01593  -0.01571   3.12963
    D9       -0.00238  -0.00003   0.00000  -0.00119  -0.00123  -0.00360
   D10       -3.13779  -0.00012   0.00000  -0.00395  -0.00396   3.14144
   D11        3.13614   0.00004   0.00000   0.00080   0.00079   3.13693
   D12        0.00073  -0.00005   0.00000  -0.00196  -0.00195  -0.00122
   D13        0.00331   0.00005   0.00000   0.00231   0.00229   0.00559
   D14       -3.13144  -0.00008   0.00000  -0.00243  -0.00242  -3.13386
   D15        3.13871   0.00013   0.00000   0.00502   0.00500  -3.13947
   D16        0.00396   0.00000   0.00000   0.00028   0.00029   0.00425
   D17        0.00102   0.00003   0.00000   0.00204   0.00208   0.00310
   D18       -3.12400  -0.00004   0.00000  -0.00175  -0.00173  -3.12573
   D19        3.13578   0.00016   0.00000   0.00677   0.00678  -3.14062
   D20        0.01076   0.00009   0.00000   0.00298   0.00297   0.01373
   D21       -0.00621  -0.00011   0.00000  -0.00727  -0.00714  -0.01334
   D22        3.13865   0.00035   0.00000   0.01643   0.01643  -3.12810
   D23        3.11875   0.00002   0.00000  -0.00315  -0.00308   3.11568
   D24       -0.01957   0.00047   0.00000   0.02055   0.02049   0.00092
   D25       -1.44332  -0.00079   0.00000  -0.03255  -0.03219  -1.47551
   D26        2.66645   0.00250   0.00000   0.03139   0.03138   2.69783
   D27        0.68807  -0.00158   0.00000  -0.02287  -0.02276   0.66531
   D28        1.69492  -0.00127   0.00000  -0.05692  -0.05686   1.63806
   D29       -0.47849   0.00201   0.00000   0.00702   0.00671  -0.47179
   D30       -2.45687  -0.00207   0.00000  -0.04724  -0.04743  -2.50431
   D31       -1.28862   0.00548   0.00000   0.12813   0.12750  -1.16112
   D32        2.88583  -0.00144   0.00000   0.02033   0.02048   2.90630
   D33        0.83922   0.00105   0.00000   0.05116   0.05095   0.89017
   D34        0.87946   0.00273   0.00000   0.06842   0.06829   0.94775
   D35       -1.22927  -0.00419   0.00000  -0.03937  -0.03873  -1.26800
   D36        3.00730  -0.00169   0.00000  -0.00854  -0.00825   2.99905
   D37        2.87441   0.00409   0.00000   0.09979   0.09936   2.97377
   D38        0.76567  -0.00284   0.00000  -0.00800  -0.00766   0.75801
   D39       -1.28094  -0.00034   0.00000   0.02283   0.02281  -1.25812
   D40        3.03543  -0.00038   0.00000  -0.04370  -0.04388   2.99155
   D41       -1.18597  -0.00088   0.00000  -0.05382  -0.05394  -1.23992
   D42       -1.13194  -0.00175   0.00000  -0.01106  -0.01036  -1.14230
   D43        0.92985  -0.00225   0.00000  -0.02117  -0.02043   0.90942
   D44        0.90651   0.00219   0.00000   0.02556   0.02496   0.93148
   D45        2.96830   0.00169   0.00000   0.01545   0.01490   2.98320
         Item               Value     Threshold  Converged?
 Maximum Force            0.012708     0.000450     NO 
 RMS     Force            0.003204     0.000300     NO 
 Maximum Displacement     0.318920     0.001800     NO 
 RMS     Displacement     0.065515     0.001200     NO 
 Predicted change in Energy=-3.191371D-03
 GradGradGradGradGradGradGradGradGradGradGradGradGradGradGradGradGradGrad

                          Input orientation:                          
 ---------------------------------------------------------------------
 Center     Atomic      Atomic             Coordinates (Angstroms)
 Number     Number       Type             X           Y           Z
 ---------------------------------------------------------------------
      1         17           0       -0.229349    2.629892    1.372068
      2          6           0       -0.952166    1.257917    0.558439
      3          6           0       -2.223025    1.415141    0.002343
      4          6           0       -2.825351    0.348572   -0.659721
      5          6           0       -2.153965   -0.868411   -0.767005
      6          6           0       -0.886084   -1.011721   -0.204641
      7          6           0       -0.263809    0.040068    0.474015
      8          6           0        1.119405   -0.141253    1.058007
      9          6           0        2.230526    0.320384    0.110694
     10          7           0        2.276673   -0.546697   -1.070655
     11          1           0       -2.732166    2.369097    0.089550
     12          1           0       -3.813323    0.473119   -1.091052
     13          1           0       -2.614622   -1.702091   -1.288093
     14          1           0       -0.354698   -1.952026   -0.298788
     15          1           0        1.268358   -1.202344    1.287818
     16          1           0        1.202659    0.398509    2.007558
     17          1           0        3.173262    0.388592    0.681145
     18          1           0        1.996629    1.333032   -0.230115
     19          1           0        2.910635   -0.169511   -1.768616
     20          1           0        2.637513   -1.459768   -0.808753
 ---------------------------------------------------------------------
                    Distance matrix (angstroms):
                    1          2          3          4          5
     1  Cl   0.000000
     2  C    1.751220   0.000000
     3  C    2.706753   1.396082   0.000000
     4  C    4.008966   2.412394   1.392370   0.000000
     5  C    4.529669   2.778920   2.410659   1.394029   0.000000
     6  C    4.022270   2.395394   2.778473   2.412104   1.394386
     7  C    2.741328   1.401471   2.439637   2.818160   2.436833
     8  C    3.097905   2.549245   3.835183   4.330313   3.817641
     9  C    3.602204   3.347981   4.587412   5.114315   4.626808
    10  N    4.726284   4.041780   5.024681   5.196250   4.452668
    11  H    2.824350   2.150110   1.084832   2.156991   3.398450
    12  H    4.854224   3.394547   2.147548   1.085195   2.158282
    13  H    5.615341   3.864594   3.396426   2.155104   1.085707
    14  H    4.878673   3.375729   3.862530   3.395165   2.151931
    15  H    4.115369   3.393465   4.549003   4.791315   4.005759
    16  H    2.726457   2.735288   4.097529   4.831329   4.535440
    17  H    4.132621   4.217812   5.534843   6.146777   5.661850
    18  H    3.033779   3.053335   4.226850   4.940163   4.728851
    19  H    5.249766   4.730113   5.657020   5.865116   5.209785
    20  H    5.449789   4.705404   5.705069   5.756317   4.828013
                    6          7          8          9         10
     6  C    0.000000
     7  C    1.397877   0.000000
     8  C    2.524674   1.512351   0.000000
     9  C    3.403997   2.536195   1.531372   0.000000
    10  N    3.311987   3.030569   2.456594   1.466133   0.000000
    11  H    3.863223   3.415402   4.698336   5.368983   5.910701
    12  H    3.399882   3.903334   5.415507   6.164060   6.174827
    13  H    2.153676   3.415620   4.677965   5.433458   5.030604
    14  H    1.084163   2.138673   2.700513   3.466253   3.081370
    15  H    2.627811   2.133869   1.095863   2.151764   2.647446
    16  H    3.353420   2.151921   1.095410   2.158867   3.394454
    17  H    4.384493   3.460900   2.154318   1.104000   2.178862
    18  H    3.715986   2.697617   2.145296   1.093762   2.078056
    19  H    4.191707   3.892353   3.346505   2.057754   1.015542
    20  H    3.602976   3.508942   2.743707   2.044496   1.016119
                   11         12         13         14         15
    11  H    0.000000
    12  H    2.481422   0.000000
    13  H    4.299568   2.491435   0.000000
    14  H    4.947248   4.297801   2.479606   0.000000
    15  H    5.495018   5.855739   4.686427   2.390325   0.000000
    16  H    4.800502   5.896357   5.463101   3.642748   1.756438
    17  H    6.256713   7.208342   6.461304   4.345718   2.554954
    18  H    4.851506   5.936009   5.620936   4.040429   3.043458
    19  H    6.460534   6.788496   5.753970   4.000019   3.620167
    20  H    6.655870   6.740107   5.279528   3.075014   2.517234
                   16         17         18         19         20
    16  H    0.000000
    17  H    2.375446   0.000000
    18  H    2.551647   1.762619   0.000000
    19  H    4.183218   2.526218   2.336670   0.000000
    20  H    3.666553   2.433774   2.923232   1.631164   0.000000
 Stoichiometry    C8H10ClN
 Framework group  C1[X(C8H10ClN)]
 Deg. of freedom    54
 Full point group                 C1      NOp   1
 Largest Abelian subgroup         C1      NOp   1
 Largest concise Abelian subgroup C1      NOp   1
                         Standard orientation:                         
 ---------------------------------------------------------------------
 Center     Atomic      Atomic             Coordinates (Angstroms)
 Number     Number       Type             X           Y           Z
 ---------------------------------------------------------------------
      1         17           0       -0.430334    2.313153   -0.032827
      2          6           0       -0.838369    0.611398    0.032798
      3          6           0       -2.113045    0.222091   -0.382758
      4          6           0       -2.469696   -1.123490   -0.352660
      5          6           0       -1.550364   -2.074192    0.088147
      6          6           0       -0.281614   -1.670562    0.502474
      7          6           0        0.097717   -0.325180    0.491803
      8          6           0        1.487298    0.079117    0.930908
      9          6           0        2.471926    0.189203   -0.236777
     10          7           0        2.705087   -1.133630   -0.824396
     11          1           0       -2.816951    0.972102   -0.727518
     12          1           0       -3.461139   -1.423691   -0.676030
     13          1           0       -1.819232   -3.125903    0.107464
     14          1           0        0.441049   -2.408523    0.831992
     15          1           0        1.862801   -0.665837    1.641511
     16          1           0        1.451457    1.032952    1.468344
     17          1           0        3.377399    0.713813    0.114962
     18          1           0        2.024013    0.820931   -1.009181
     19          1           0        3.242209   -1.055854   -1.682753
     20          1           0        3.255334   -1.698496   -0.183574
 ---------------------------------------------------------------------
 Rotational constants (GHZ):           1.3388193           1.0525383           0.6506032
 Standard basis: 6-31G(d,p) (6D, 7F)
 There are   204 symmetry adapted cartesian basis functions of A   symmetry.
 There are   204 symmetry adapted basis functions of A   symmetry.
   204 basis functions,   374 primitive gaussians,   204 cartesian basis functions
    41 alpha electrons       41 beta electrons
       nuclear repulsion energy       584.4449339150 Hartrees.
 NAtoms=   20 NActive=   20 NUniq=   20 SFac= 1.00D+00 NAtFMM=   60 NAOKFM=F Big=F
 Integral buffers will be    131072 words long.
 Raffenetti 2 integral format.
 Two-electron integral symmetry is turned on.
 Nuclear repulsion after empirical dispersion term =      584.4058112066 Hartrees.
 One-electron integrals computed using PRISM.
 NBasis=   204 RedAO= T EigKep=  4.38D-04  NBF=   204
 NBsUse=   204 1.00D-06 EigRej= -1.00D+00 NBFU=   204
 Initial guess from the checkpoint file:  "N3_conf-7.chk"
 B after Tr=    -0.000000   -0.000000    0.000000
         Rot=    0.999964    0.006371   -0.005180    0.001956 Ang=   0.97 deg.
 ExpMin= 1.43D-01 ExpMax= 2.52D+04 ExpMxC= 3.78D+03 IAcc=3 IRadAn=         5 AccDes= 0.00D+00
 Harris functional with IExCor=  402 and IRadAn=       5 diagonalized for initial guess.
 HarFok:  IExCor=  402 AccDes= 0.00D+00 IRadAn=         5 IDoV= 1 UseB2=F ITyADJ=14
 ICtDFT=  3500011 ScaDFX=  1.000000  1.000000  1.000000  1.000000
 FoFCou: FMM=F IPFlag=           0 FMFlag=      100000 FMFlg1=           0
         NFxFlg=           0 DoJE=T BraDBF=F KetDBF=T FulRan=T
         wScrn=  0.000000 ICntrl=       500 IOpCl=  0 I1Cent=   200000004 NGrid=           0
         NMat0=    1 NMatS0=      1 NMatT0=    0 NMatD0=    1 NMtDS0=    0 NMtDT0=    0
 Petite list used in FoFCou.
 Requested convergence on RMS density matrix=1.00D-08 within 128 cycles.
 Requested convergence on MAX density matrix=1.00D-06.
 Requested convergence on             energy=1.00D-06.
 No special actions if energy rises.
 Integral accuracy reduced to 1.0D-05 until final iterations.
 Initial convergence to 1.0D-05 achieved.  Increase integral accuracy.
 SCF Done:  E(RB3LYP) =  -825.871623036     A.U. after   12 cycles
            NFock= 12  Conv=0.41D-08     -V/T= 2.0061
 Calling FoFJK, ICntrl=      2127 FMM=F ISym2X=0 I1Cent= 0 IOpClX= 0 NMat=1 NMatS=1 NMatT=0.
 ***** Axes restored to original set *****
 -------------------------------------------------------------------
 Center     Atomic                   Forces (Hartrees/Bohr)
 Number     Number              X              Y              Z
 -------------------------------------------------------------------
      1       17           0.001997365    0.004649462    0.002561035
      2        6          -0.005768743   -0.007251571   -0.004961225
      3        6           0.000000319    0.002687287    0.000820134
      4        6           0.000720514   -0.000412751    0.000038299
      5        6           0.001368314   -0.000832472    0.000238577
      6        6          -0.004107314    0.000773418   -0.001875767
      7        6           0.005838448    0.000780083    0.003559943
      8        6          -0.004279116   -0.001103441    0.002191651
      9        6          -0.000140191    0.001705032   -0.003239846
     10        7          -0.000273567    0.000832821    0.002297307
     11        1           0.000498824   -0.000161725    0.000256793
     12        1          -0.000096313    0.000156747    0.000057484
     13        1           0.000251094    0.000061442    0.000133425
     14        1           0.000314916   -0.000258722    0.000319610
     15        1           0.000396353   -0.000739424    0.000232771
     16        1           0.000253036    0.000157319   -0.001431787
     17        1           0.000533358   -0.001429363   -0.001124639
     18        1           0.000741337    0.001160876    0.000031789
     19        1           0.000577179    0.000297842    0.000215439
     20        1           0.001174186   -0.001072860   -0.000320992
 -------------------------------------------------------------------
 Cartesian Forces:  Max     0.007251571 RMS     0.002153397

 GradGradGradGradGradGradGradGradGradGradGradGradGradGradGradGradGradGrad
 Berny optimization.
 Using GEDIIS/GDIIS optimizer.
 FormGI is forming the generalized inverse of G from B-inverse, IUseBI=4.
 Internal  Forces:  Max     0.005656759 RMS     0.001027080
 Search for a local minimum.
 Step number   2 out of a maximum of  108
 All quantities printed in internal units (Hartrees-Bohrs-Radians)
 Mixed Optimization -- RFO/linear search
 Update second derivatives using D2CorX and points    1    2
 DE= -2.93D-03 DEPred=-3.19D-03 R= 9.17D-01
 TightC=F SS=  1.41D+00  RLast= 2.81D-01 DXNew= 5.0454D-01 8.4185D-01
 Trust test= 9.17D-01 RLast= 2.81D-01 DXMaxT set to 5.05D-01
 ITU=  1  0
 Use linear search instead of GDIIS.
     Eigenvalues ---    0.00255   0.00389   0.00962   0.01371   0.02055
     Eigenvalues ---    0.02081   0.02122   0.02136   0.02151   0.02160
     Eigenvalues ---    0.02160   0.02163   0.03962   0.04393   0.04814
     Eigenvalues ---    0.05350   0.05652   0.09202   0.09267   0.12785
     Eigenvalues ---    0.12920   0.15799   0.15999   0.16000   0.16000
     Eigenvalues ---    0.16000   0.16204   0.21535   0.21915   0.22069
     Eigenvalues ---    0.22398   0.22620   0.24992   0.25162   0.28736
     Eigenvalues ---    0.29466   0.31103   0.34484   0.34644   0.34725
     Eigenvalues ---    0.35022   0.35934   0.35945   0.35962   0.36088
     Eigenvalues ---    0.38265   0.41804   0.42022   0.45342   0.45647
     Eigenvalues ---    0.45848   0.46155   0.46523   0.46635
 RFO step:  Lambda=-4.85144776D-04 EMin= 2.55385986D-03
 Quartic linear search produced a step of -0.02229.
 Iteration  1 RMS(Cart)=  0.01117351 RMS(Int)=  0.00007150
 Iteration  2 RMS(Cart)=  0.00008730 RMS(Int)=  0.00001207
 Iteration  3 RMS(Cart)=  0.00000001 RMS(Int)=  0.00001207
 Variable       Old X    -DE/DX   Delta X   Delta X   Delta X     New X
                                 (Linear)    (Quad)   (Total)
    R1        3.30933   0.00566  -0.00086   0.02087   0.02001   3.32934
    R2        2.63821  -0.00140  -0.00001  -0.00285  -0.00286   2.63535
    R3        2.64840   0.00057   0.00018   0.00049   0.00068   2.64908
    R4        2.63120   0.00008   0.00010  -0.00027  -0.00017   2.63102
    R5        2.05004  -0.00036  -0.00021  -0.00005  -0.00025   2.04978
    R6        2.63433   0.00037   0.00000   0.00069   0.00069   2.63502
    R7        2.05072   0.00008  -0.00020   0.00114   0.00093   2.05165
    R8        2.63501  -0.00154   0.00003  -0.00341  -0.00339   2.63162
    R9        2.05169  -0.00022  -0.00022   0.00038   0.00016   2.05185
   R10        2.64160   0.00154   0.00008   0.00295   0.00303   2.64464
   R11        2.04877   0.00035  -0.00016   0.00167   0.00151   2.05028
   R12        2.85793  -0.00135   0.00068  -0.00750  -0.00682   2.85111
   R13        2.89387   0.00367   0.00032   0.01111   0.01143   2.90530
   R14        2.07088   0.00082  -0.00023   0.00331   0.00308   2.07396
   R15        2.07002  -0.00114  -0.00022  -0.00223  -0.00245   2.06757
   R16        2.77059  -0.00175  -0.00047  -0.00248  -0.00295   2.76764
   R17        2.08626  -0.00021  -0.00050   0.00164   0.00114   2.08740
   R18        2.06691   0.00091  -0.00005   0.00279   0.00274   2.06965
   R19        1.91910   0.00032  -0.00018   0.00151   0.00132   1.92042
   R20        1.92019   0.00130  -0.00025   0.00387   0.00362   1.92381
    A1        2.06299  -0.00194   0.00005  -0.00792  -0.00788   2.05512
    A2        2.10140  -0.00059   0.00052  -0.00473  -0.00422   2.09717
    A3        2.11879   0.00253  -0.00057   0.01266   0.01210   2.13089
    A4        2.09085  -0.00115   0.00024  -0.00606  -0.00582   2.08503
    A5        2.08776   0.00011  -0.00001  -0.00033  -0.00034   2.08742
    A6        2.10458   0.00105  -0.00023   0.00639   0.00616   2.11074
    A7        2.09091   0.00013   0.00002   0.00032   0.00033   2.09124
    A8        2.08853  -0.00024   0.00014  -0.00188  -0.00173   2.08680
    A9        2.10374   0.00011  -0.00016   0.00157   0.00141   2.10515
   A10        2.09048   0.00011   0.00008  -0.00015  -0.00008   2.09040
   A11        2.09779   0.00014  -0.00003   0.00126   0.00123   2.09902
   A12        2.09491  -0.00025  -0.00005  -0.00110  -0.00115   2.09377
   A13        2.12145   0.00104  -0.00038   0.00621   0.00583   2.12728
   A14        2.09415  -0.00021  -0.00018   0.00047   0.00028   2.09443
   A15        2.06753  -0.00083   0.00056  -0.00666  -0.00610   2.06142
   A16        2.05379  -0.00265   0.00060  -0.01292  -0.01232   2.04148
   A17        2.12958   0.00166  -0.00013   0.00698   0.00683   2.13641
   A18        2.09949   0.00099  -0.00046   0.00581   0.00535   2.10484
   A19        1.96991   0.00089   0.00038   0.00192   0.00230   1.97221
   A20        1.89799   0.00000   0.00045   0.00253   0.00301   1.90099
   A21        1.92321  -0.00013  -0.00071   0.00074   0.00001   1.92323
   A22        1.89969  -0.00028   0.00064  -0.00230  -0.00165   1.89803
   A23        1.90980  -0.00086   0.00004  -0.00924  -0.00920   1.90060
   A24        1.85980   0.00036  -0.00089   0.00672   0.00581   1.86561
   A25        1.92091   0.00127   0.00022   0.00465   0.00484   1.92575
   A26        1.89502   0.00029   0.00054  -0.00359  -0.00304   1.89198
   A27        1.89303   0.00008   0.00066   0.00695   0.00759   1.90062
   A28        2.01087  -0.00198  -0.00231  -0.01263  -0.01494   1.99593
   A29        1.87886   0.00025   0.00094   0.00538   0.00627   1.88513
   A30        1.86128   0.00013  -0.00000   0.00032   0.00035   1.86163
   A31        1.93240  -0.00108  -0.00002  -0.00872  -0.00876   1.92364
   A32        1.91232   0.00084   0.00057   0.00030   0.00085   1.91317
   A33        1.86419  -0.00033  -0.00009  -0.00625  -0.00638   1.85782
    D1        3.13434  -0.00004   0.00010  -0.00225  -0.00214   3.13220
    D2       -0.00620  -0.00005   0.00014  -0.00289  -0.00274  -0.00894
    D3       -0.00714   0.00000   0.00010  -0.00026  -0.00015  -0.00729
    D4        3.13551  -0.00001   0.00014  -0.00090  -0.00075   3.13475
    D5       -3.12611  -0.00006  -0.00018  -0.00085  -0.00103  -3.12714
    D6       -0.01185  -0.00008   0.00035  -0.00651  -0.00615  -0.01800
    D7        0.01536  -0.00010  -0.00018  -0.00288  -0.00307   0.01230
    D8        3.12963  -0.00012   0.00035  -0.00854  -0.00819   3.12144
    D9       -0.00360   0.00005   0.00003   0.00221   0.00225  -0.00135
   D10        3.14144  -0.00002   0.00009  -0.00115  -0.00106   3.14037
   D11        3.13693   0.00006  -0.00002   0.00286   0.00285   3.13978
   D12       -0.00122  -0.00001   0.00004  -0.00051  -0.00046  -0.00168
   D13        0.00559  -0.00003  -0.00005  -0.00112  -0.00118   0.00441
   D14       -3.13386  -0.00006   0.00005  -0.00282  -0.00279  -3.13665
   D15       -3.13947   0.00004  -0.00011   0.00227   0.00216  -3.13731
   D16        0.00425   0.00001  -0.00001   0.00056   0.00055   0.00481
   D17        0.00310  -0.00005  -0.00005  -0.00203  -0.00209   0.00101
   D18       -3.12573  -0.00006   0.00004  -0.00308  -0.00306  -3.12879
   D19       -3.14062  -0.00002  -0.00015  -0.00032  -0.00049  -3.14111
   D20        0.01373  -0.00004  -0.00007  -0.00138  -0.00145   0.01228
   D21       -0.01334   0.00013   0.00016   0.00407   0.00423  -0.00911
   D22       -3.12810   0.00014  -0.00037   0.00960   0.00922  -3.11888
   D23        3.11568   0.00015   0.00007   0.00516   0.00522   3.12090
   D24        0.00092   0.00016  -0.00046   0.01069   0.01021   0.01113
   D25       -1.47551   0.00024   0.00072  -0.01076  -0.01003  -1.48554
   D26        2.69783   0.00002  -0.00070  -0.01085  -0.01153   2.68630
   D27        0.66531  -0.00034   0.00051  -0.02083  -0.02031   0.64501
   D28        1.63806   0.00016   0.00127  -0.01685  -0.01560   1.62246
   D29       -0.47179  -0.00006  -0.00015  -0.01694  -0.01710  -0.48889
   D30       -2.50431  -0.00042   0.00106  -0.02692  -0.02588  -2.53019
   D31       -1.16112  -0.00098  -0.00284   0.00505   0.00221  -1.15892
   D32        2.90630   0.00044  -0.00046   0.02042   0.01996   2.92627
   D33        0.89017   0.00009  -0.00114   0.01825   0.01713   0.90731
   D34        0.94775  -0.00060  -0.00152   0.00790   0.00636   0.95411
   D35       -1.26800   0.00083   0.00086   0.02327   0.02411  -1.24389
   D36        2.99905   0.00047   0.00018   0.02109   0.02128   3.02033
   D37        2.97377  -0.00080  -0.00221   0.00954   0.00732   2.98108
   D38        0.75801   0.00062   0.00017   0.02491   0.02507   0.78308
   D39       -1.25812   0.00027  -0.00051   0.02273   0.02224  -1.23588
   D40        2.99155   0.00047   0.00098  -0.00028   0.00070   2.99225
   D41       -1.23992  -0.00007   0.00120  -0.01298  -0.01176  -1.25167
   D42       -1.14230   0.00040   0.00023  -0.01073  -0.01050  -1.15281
   D43        0.90942  -0.00013   0.00046  -0.02343  -0.02296   0.88646
   D44        0.93148  -0.00048  -0.00056  -0.01434  -0.01491   0.91657
   D45        2.98320  -0.00101  -0.00033  -0.02704  -0.02737   2.95583
         Item               Value     Threshold  Converged?
 Maximum Force            0.005657     0.000450     NO 
 RMS     Force            0.001027     0.000300     NO 
 Maximum Displacement     0.040043     0.001800     NO 
 RMS     Displacement     0.011172     0.001200     NO 
 Predicted change in Energy=-2.462904D-04
 GradGradGradGradGradGradGradGradGradGradGradGradGradGradGradGradGradGrad

                          Input orientation:                          
 ---------------------------------------------------------------------
 Center     Atomic      Atomic             Coordinates (Angstroms)
 Number     Number       Type             X           Y           Z
 ---------------------------------------------------------------------
      1         17           0       -0.246853    2.633651    1.388250
      2          6           0       -0.964165    1.251756    0.563750
      3          6           0       -2.231836    1.414806    0.005854
      4          6           0       -2.827550    0.349357   -0.663758
      5          6           0       -2.152927   -0.866213   -0.771475
      6          6           0       -0.889281   -1.008412   -0.203764
      7          6           0       -0.264547    0.039775    0.481482
      8          6           0        1.117534   -0.136944    1.060204
      9          6           0        2.232014    0.316665    0.103213
     10          7           0        2.278094   -0.554017   -1.073547
     11          1           0       -2.739528    2.368822    0.098977
     12          1           0       -3.814882    0.474126   -1.097725
     13          1           0       -2.608774   -1.700458   -1.296053
     14          1           0       -0.355978   -1.948782   -0.295583
     15          1           0        1.269440   -1.196755    1.301482
     16          1           0        1.208063    0.418814    1.998296
     17          1           0        3.178901    0.367402    0.669763
     18          1           0        2.014736    1.334730   -0.237118
     19          1           0        2.915321   -0.173088   -1.767510
     20          1           0        2.649317   -1.464740   -0.810540
 ---------------------------------------------------------------------
                    Distance matrix (angstroms):
                    1          2          3          4          5
     1  Cl   0.000000
     2  C    1.761809   0.000000
     3  C    2.708645   1.394569   0.000000
     4  C    4.011076   2.406928   1.392278   0.000000
     5  C    4.532833   2.771601   2.411123   1.394392   0.000000
     6  C    4.026394   2.388105   2.778197   2.410813   1.392594
     7  C    2.747860   1.401832   2.446867   2.824253   2.440634
     8  C    3.105699   2.551162   3.838992   4.332692   3.818743
     9  C    3.628294   3.361852   4.597972   5.117470   4.625147
    10  N    4.753633   4.056329   5.037940   5.201117   4.452264
    11  H    2.818827   2.148432   1.084698   2.160498   3.401064
    12  H    4.855353   3.389955   2.146812   1.085688   2.159871
    13  H    5.618600   3.857354   3.397340   2.156248   1.085793
    14  H    4.883226   3.369242   3.863086   3.394947   2.151152
    15  H    4.120520   3.395357   4.556077   4.799788   4.014848
    16  H    2.719272   2.733184   4.098138   4.835032   4.540835
    17  H    4.169880   4.237726   5.551027   6.152728   5.659272
    18  H    3.073077   3.085794   4.254271   4.959911   4.743321
    19  H    5.275978   4.745036   5.670930   5.871268   5.211491
    20  H    5.478986   4.724964   5.725726   5.771358   4.839556
                    6          7          8          9         10
     6  C    0.000000
     7  C    1.399482   0.000000
     8  C    2.526733   1.508740   0.000000
     9  C    3.404782   2.540190   1.537418   0.000000
    10  N    3.315910   3.039034   2.464496   1.464574   0.000000
    11  H    3.862742   3.419986   4.698909   5.378437   5.924047
    12  H    3.399445   3.909915   5.418375   6.167008   6.179160
    13  H    2.151437   3.418106   4.677809   5.427703   5.024472
    14  H    1.084960   2.136949   2.700398   3.462512   3.080411
    15  H    2.638431   2.134133   1.097493   2.157044   2.659184
    16  H    3.359300   2.147784   1.094112   2.156443   3.395230
    17  H    4.382467   3.464119   2.157786   1.104603   2.167855
    18  H    3.731586   2.718165   2.157276   1.095213   2.082387
    19  H    4.197387   3.900619   3.351016   2.050945   1.016243
    20  H    3.619128   3.524697   2.758456   2.045114   1.018036
                   11         12         13         14         15
    11  H    0.000000
    12  H    2.485630   0.000000
    13  H    4.303749   2.494564   0.000000
    14  H    4.947595   4.298597   2.477438   0.000000
    15  H    5.498289   5.865012   4.694833   2.399614   0.000000
    16  H    4.795145   5.900710   5.469214   3.648783   1.760506
    17  H    6.273697   7.214458   6.452725   4.334970   2.547881
    18  H    4.877021   5.955311   5.631213   4.050327   3.054697
    19  H    6.474750   6.794345   5.750718   4.002631   3.629812
    20  H    6.675558   6.754816   5.285717   3.087276   2.537028
                   16         17         18         19         20
    16  H    0.000000
    17  H    2.377361   0.000000
    18  H    2.546900   1.764493   0.000000
    19  H    4.176885   2.510359   2.329521   0.000000
    20  H    3.676214   2.414229   2.927207   1.629392   0.000000
 Stoichiometry    C8H10ClN
 Framework group  C1[X(C8H10ClN)]
 Deg. of freedom    54
 Full point group                 C1      NOp   1
 Largest Abelian subgroup         C1      NOp   1
 Largest concise Abelian subgroup C1      NOp   1
                         Standard orientation:                         
 ---------------------------------------------------------------------
 Center     Atomic      Atomic             Coordinates (Angstroms)
 Number     Number       Type             X           Y           Z
 ---------------------------------------------------------------------
      1         17           0       -0.474612    2.314118   -0.034367
      2          6           0       -0.852030    0.594599    0.034769
      3          6           0       -2.119168    0.190566   -0.384684
      4          6           0       -2.451436   -1.161172   -0.355706
      5          6           0       -1.516945   -2.095509    0.089343
      6          6           0       -0.258549   -1.669840    0.507151
      7          6           0        0.105786   -0.318652    0.497042
      8          6           0        1.487276    0.107493    0.928528
      9          6           0        2.476577    0.213816   -0.243494
     10          7           0        2.728807   -1.109411   -0.818323
     11          1           0       -2.831451    0.932621   -0.729034
     12          1           0       -3.437851   -1.477423   -0.680806
     13          1           0       -1.766791   -3.151951    0.110624
     14          1           0        0.475555   -2.394754    0.842905
     15          1           0        1.874628   -0.621091    1.652139
     16          1           0        1.441617    1.072384    1.442319
     17          1           0        3.382623    0.736647    0.111297
     18          1           0        2.035845    0.843526   -1.023693
     19          1           0        3.267917   -1.022993   -1.675436
     20          1           0        3.295594   -1.658905   -0.175513
 ---------------------------------------------------------------------
 Rotational constants (GHZ):           1.3343752           1.0483013           0.6479431
 Standard basis: 6-31G(d,p) (6D, 7F)
 There are   204 symmetry adapted cartesian basis functions of A   symmetry.
 There are   204 symmetry adapted basis functions of A   symmetry.
   204 basis functions,   374 primitive gaussians,   204 cartesian basis functions
    41 alpha electrons       41 beta electrons
       nuclear repulsion energy       583.6282939737 Hartrees.
 NAtoms=   20 NActive=   20 NUniq=   20 SFac= 1.00D+00 NAtFMM=   60 NAOKFM=F Big=F
 Integral buffers will be    131072 words long.
 Raffenetti 2 integral format.
 Two-electron integral symmetry is turned on.
 Nuclear repulsion after empirical dispersion term =      583.5892600852 Hartrees.
 One-electron integrals computed using PRISM.
 NBasis=   204 RedAO= T EigKep=  4.36D-04  NBF=   204
 NBsUse=   204 1.00D-06 EigRej= -1.00D+00 NBFU=   204
 Initial guess from the checkpoint file:  "N3_conf-7.chk"
 B after Tr=     0.000000    0.000000   -0.000000
         Rot=    0.999972    0.001295    0.000219   -0.007320 Ang=   0.85 deg.
 ExpMin= 1.43D-01 ExpMax= 2.52D+04 ExpMxC= 3.78D+03 IAcc=3 IRadAn=         5 AccDes= 0.00D+00
 Harris functional with IExCor=  402 and IRadAn=       5 diagonalized for initial guess.
 HarFok:  IExCor=  402 AccDes= 0.00D+00 IRadAn=         5 IDoV= 1 UseB2=F ITyADJ=14
 ICtDFT=  3500011 ScaDFX=  1.000000  1.000000  1.000000  1.000000
 FoFCou: FMM=F IPFlag=           0 FMFlag=      100000 FMFlg1=           0
         NFxFlg=           0 DoJE=T BraDBF=F KetDBF=T FulRan=T
         wScrn=  0.000000 ICntrl=       500 IOpCl=  0 I1Cent=   200000004 NGrid=           0
         NMat0=    1 NMatS0=      1 NMatT0=    0 NMatD0=    1 NMtDS0=    0 NMtDT0=    0
 Petite list used in FoFCou.
 Requested convergence on RMS density matrix=1.00D-08 within 128 cycles.
 Requested convergence on MAX density matrix=1.00D-06.
 Requested convergence on             energy=1.00D-06.
 No special actions if energy rises.
 Integral accuracy reduced to 1.0D-05 until final iterations.
 Initial convergence to 1.0D-05 achieved.  Increase integral accuracy.
 SCF Done:  E(RB3LYP) =  -825.871926525     A.U. after   10 cycles
            NFock= 10  Conv=0.67D-08     -V/T= 2.0061
 Calling FoFJK, ICntrl=      2127 FMM=F ISym2X=0 I1Cent= 0 IOpClX= 0 NMat=1 NMatS=1 NMatT=0.
 ***** Axes restored to original set *****
 -------------------------------------------------------------------
 Center     Atomic                   Forces (Hartrees/Bohr)
 Number     Number              X              Y              Z
 -------------------------------------------------------------------
      1       17           0.000805927    0.001764987    0.000949621
      2        6          -0.001665840   -0.002968045   -0.001765095
      3        6           0.000208436    0.001305968    0.000547783
      4        6          -0.000378761   -0.000210519   -0.000203759
      5        6           0.000251191   -0.000302780    0.000087942
      6        6          -0.000764749   -0.000495818   -0.000710830
      7        6           0.001431236    0.001475501    0.001060788
      8        6          -0.001109421   -0.000611000    0.000568051
      9        6           0.000183548    0.000484146   -0.000640946
     10        7           0.000129809   -0.000215015    0.000692799
     11        1           0.000315227   -0.000375350    0.000033037
     12        1           0.000202987   -0.000093069    0.000022663
     13        1           0.000197300    0.000233582    0.000144121
     14        1          -0.000087543   -0.000029549   -0.000008279
     15        1           0.000214673    0.000434196    0.000028932
     16        1           0.000096855   -0.000099395   -0.000442335
     17        1          -0.000366555   -0.000433918   -0.000361691
     18        1           0.000071156   -0.000106345    0.000288296
     19        1           0.000005307   -0.000027384   -0.000018341
     20        1           0.000259217    0.000269807   -0.000272758
 -------------------------------------------------------------------
 Cartesian Forces:  Max     0.002968045 RMS     0.000744717

 GradGradGradGradGradGradGradGradGradGradGradGradGradGradGradGradGradGrad
 Berny optimization.
 Using GEDIIS/GDIIS optimizer.
 FormGI is forming the generalized inverse of G from B-inverse, IUseBI=4.
 Internal  Forces:  Max     0.002156867 RMS     0.000330333
 Search for a local minimum.
 Step number   3 out of a maximum of  108
 All quantities printed in internal units (Hartrees-Bohrs-Radians)
 Mixed Optimization -- En-DIIS/RFO-DIIS
 Update second derivatives using D2CorX and points    1    2    3
 DE= -3.03D-04 DEPred=-2.46D-04 R= 1.23D+00
 TightC=F SS=  1.41D+00  RLast= 9.39D-02 DXNew= 8.4853D-01 2.8183D-01
[...]
   Eigenvalues:    21.1672    22.9067    27.8836
     14  H    Isotropic =    23.7431   Anisotropy =     9.3183
   XX=    24.8068   YX=     4.8034   ZX=     0.1912
   XY=     4.4608   YY=    25.7753   ZY=    -0.0076
   XZ=    -0.1922   YZ=    -0.6759   ZZ=    20.6473
   Eigenvalues:    20.4087    20.8654    29.9554
     15  H    Isotropic =    29.6270   Anisotropy =     7.0817
   XX=    28.8604   YX=    -0.7692   ZX=     1.8431
   XY=    -0.1946   YY=    28.5322   ZY=    -2.1900
   XZ=     3.2952   YZ=    -3.5448   ZZ=    31.4883
   Eigenvalues:    26.2849    28.2480    34.3481
     16  H    Isotropic =    28.5570   Anisotropy =     5.6152
   XX=    28.0404   YX=    -1.6484   ZX=     1.3434
   XY=    -2.7083   YY=    30.1464   ZY=     2.5434
   XZ=     2.5975   YZ=     3.5025   ZZ=    27.4843
   Eigenvalues:    23.6475    29.7231    32.3005
     17  H    Isotropic =    28.6284   Anisotropy =     8.6719
   XX=    31.8957   YX=     2.7795   ZX=    -0.1406
   XY=     3.5083   YY=    29.9109   ZY=     3.0121
   XZ=    -0.5940   YZ=     2.7348   ZZ=    24.0786
   Eigenvalues:    22.6202    28.8553    34.4096
     18  H    Isotropic =    29.2479   Anisotropy =     6.9611
   XX=    28.6850   YX=    -2.6182   ZX=    -0.7667
   XY=    -4.0188   YY=    31.2665   ZY=    -2.5610
   XZ=    -3.7614   YZ=    -3.5428   ZZ=    27.7921
   Eigenvalues:    23.3842    30.4708    33.8886
     19  H    Isotropic =    31.5042   Anisotropy =    15.8666
   XX=    28.4875   YX=    -1.6324   ZX=    -6.6588
   XY=    -2.5090   YY=    28.2008   ZY=     1.7255
   XZ=    -8.1065   YZ=    -0.3037   ZZ=    37.8244
   Eigenvalues:    23.9003    28.5304    42.0820
     20  H    Isotropic =    31.9723   Anisotropy =    13.5543
   XX=    31.9946   YX=    -6.7787   ZX=     3.1226
   XY=    -6.8533   YY=    33.2773   ZY=    -4.2831
   XZ=     2.2197   YZ=    -1.6106   ZZ=    30.6450
   Eigenvalues:    25.7898    29.1186    41.0085
 End of Minotr F.D. properties file   721 does not exist.
 End of Minotr F.D. properties file   722 does not exist.
 End of Minotr F.D. properties file   788 does not exist.

 **********************************************************************

            Population analysis using the SCF Density.

 **********************************************************************

 Orbital symmetries:
       Occupied  (A) (A) (A) (A) (A) (A) (A) (A) (A) (A) (A) (A)
                 (A) (A) (A) (A) (A) (A) (A) (A) (A) (A) (A) (A)
                 (A) (A) (A) (A) (A) (A) (A) (A) (A) (A) (A) (A)
                 (A) (A) (A) (A) (A)
       Virtual   (A) (A) (A) (A) (A) (A) (A) (A) (A) (A) (A) (A)
                 (A) (A) (A) (A) (A) (A) (A) (A) (A) (A) (A) (A)
                 (A) (A) (A) (A) (A) (A) (A) (A) (A) (A) (A) (A)
                 (A) (A) (A) (A) (A) (A) (A) (A) (A) (A) (A) (A)
                 (A) (A) (A) (A) (A) (A) (A) (A) (A) (A) (A) (A)
                 (A) (A) (A) (A) (A) (A) (A) (A) (A) (A) (A) (A)
                 (A) (A) (A) (A) (A) (A) (A) (A) (A) (A) (A) (A)
                 (A) (A) (A) (A) (A) (A) (A) (A) (A) (A) (A) (A)
                 (A) (A) (A) (A) (A) (A) (A) (A) (A) (A) (A) (A)
                 (A) (A) (A) (A) (A) (A) (A) (A) (A) (A) (A) (A)
                 (A) (A) (A) (A) (A) (A) (A) (A) (A) (A) (A) (A)
                 (A) (A) (A) (A) (A) (A) (A) (A) (A) (A) (A) (A)
                 (A) (A) (A) (A) (A) (A) (A) (A) (A) (A) (A) (A)
                 (A) (A) (A) (A) (A) (A) (A) (A) (A) (A) (A) (A)
                 (A) (A) (A) (A) (A) (A) (A) (A) (A) (A) (A) (A)
                 (A) (A) (A) (A) (A) (A) (A) (A) (A) (A) (A) (A)
                 (A) (A) (A) (A) (A) (A) (A) (A) (A) (A) (A) (A)
                 (A) (A) (A) (A) (A) (A) (A) (A) (A) (A) (A) (A)
                 (A) (A) (A) (A) (A) (A) (A) (A) (A) (A) (A) (A)
                 (A) (A) (A) (A) (A) (A) (A) (A) (A) (A) (A) (A)
                 (A) (A) (A) (A) (A) (A) (A) (A) (A) (A) (A) (A)
                 (A) (A) (A) (A) (A) (A) (A) (A) (A) (A) (A) (A)
                 (A) (A) (A) (A) (A) (A) (A) (A) (A) (A) (A) (A)
                 (A) (A) (A) (A) (A) (A) (A) (A) (A) (A) (A) (A)
                 (A) (A) (A) (A) (A) (A) (A) (A) (A) (A) (A) (A)
                 (A) (A) (A) (A) (A) (A) (A) (A) (A) (A) (A) (A)
                 (A) (A) (A) (A) (A) (A) (A) (A) (A) (A) (A) (A)
                 (A) (A) (A) (A) (A) (A) (A) (A) (A) (A) (A)
 The electronic state is 1-A.
 Alpha  occ. eigenvalues -- -102.64036 -14.72975 -10.60118 -10.56367 -10.55744
 Alpha  occ. eigenvalues --  -10.54968 -10.54680 -10.54448 -10.54339 -10.54090
 Alpha  occ. eigenvalues --   -9.80278  -7.52468  -7.51972  -7.51957  -0.99746
 Alpha  occ. eigenvalues --   -0.98441  -0.92885  -0.87911  -0.82791  -0.80288
 Alpha  occ. eigenvalues --   -0.71012  -0.68875  -0.65739  -0.58658  -0.56734
 Alpha  occ. eigenvalues --   -0.54828  -0.53387  -0.51652  -0.49353  -0.48753
 Alpha  occ. eigenvalues --   -0.47003  -0.45765  -0.43280  -0.41895  -0.40991
 Alpha  occ. eigenvalues --   -0.40480  -0.39352  -0.37050  -0.31442  -0.30519
 Alpha  occ. eigenvalues --   -0.29307
 Alpha virt. eigenvalues --    0.01715   0.01797   0.05887   0.06785   0.09405
 Alpha virt. eigenvalues --    0.10191   0.10707   0.12304   0.13132   0.14025
 Alpha virt. eigenvalues --    0.14181   0.14632   0.16136   0.17136   0.18566
 Alpha virt. eigenvalues --    0.19682   0.21578   0.22528   0.22875   0.24248
 Alpha virt. eigenvalues --    0.25123   0.25681   0.26914   0.28607   0.29081
 Alpha virt. eigenvalues --    0.29997   0.30429   0.30875   0.31903   0.33363
 Alpha virt. eigenvalues --    0.33767   0.35455   0.35716   0.37527   0.38357
 Alpha virt. eigenvalues --    0.38917   0.39359   0.39818   0.40427   0.41134
 Alpha virt. eigenvalues --    0.42536   0.42870   0.43784   0.44347   0.45446
 Alpha virt. eigenvalues --    0.46044   0.47072   0.47798   0.48245   0.48622
 Alpha virt. eigenvalues --    0.49827   0.50598   0.51387   0.52265   0.52882
 Alpha virt. eigenvalues --    0.53328   0.54241   0.54744   0.55764   0.56520
 Alpha virt. eigenvalues --    0.57150   0.59516   0.61177   0.62621   0.62744
 Alpha virt. eigenvalues --    0.65371   0.66251   0.69053   0.70162   0.71739
 Alpha virt. eigenvalues --    0.71928   0.72928   0.75604   0.77064   0.77890
 Alpha virt. eigenvalues --    0.79016   0.80753   0.81638   0.82378   0.83581
 Alpha virt. eigenvalues --    0.86575   0.87952   0.89519   0.91456   0.92361
 Alpha virt. eigenvalues --    0.93587   0.94833   0.96315   0.99317   1.01242
 Alpha virt. eigenvalues --    1.03055   1.06180   1.07616   1.09415   1.09757
 Alpha virt. eigenvalues --    1.11705   1.14131   1.15357   1.16010   1.19360
 Alpha virt. eigenvalues --    1.21522   1.22805   1.23096   1.24648   1.25629
 Alpha virt. eigenvalues --    1.26598   1.28859   1.29682   1.30684   1.31556
 Alpha virt. eigenvalues --    1.34267   1.35748   1.39074   1.39740   1.40974
 Alpha virt. eigenvalues --    1.41623   1.42702   1.46276   1.48216   1.49186
 Alpha virt. eigenvalues --    1.50607   1.52533   1.55396   1.57829   1.58922
 Alpha virt. eigenvalues --    1.60122   1.62607   1.63165   1.64178   1.65768
 Alpha virt. eigenvalues --    1.67267   1.68365   1.69508   1.72846   1.73396
 Alpha virt. eigenvalues --    1.73981   1.75598   1.76364   1.78373   1.79541
 Alpha virt. eigenvalues --    1.81761   1.85156   1.85343   1.87425   1.88180
 Alpha virt. eigenvalues --    1.89588   1.90772   1.91925   1.94585   1.95193
 Alpha virt. eigenvalues --    1.96412   1.96611   1.99211   2.00631   2.01476
 Alpha virt. eigenvalues --    2.03613   2.04136   2.05070   2.06418   2.08850
 Alpha virt. eigenvalues --    2.11521   2.13256   2.13517   2.14618   2.15190
 Alpha virt. eigenvalues --    2.17951   2.18323   2.21541   2.21730   2.24527
 Alpha virt. eigenvalues --    2.25684   2.26750   2.27111   2.29643   2.30152
 Alpha virt. eigenvalues --    2.31253   2.31664   2.33409   2.34426   2.39252
 Alpha virt. eigenvalues --    2.41490   2.43471   2.44998   2.47426   2.49934
 Alpha virt. eigenvalues --    2.51805   2.52450   2.54884   2.57175   2.58296
 Alpha virt. eigenvalues --    2.59360   2.60834   2.61530   2.62407   2.62851
 Alpha virt. eigenvalues --    2.65061   2.67564   2.68306   2.69448   2.70441
 Alpha virt. eigenvalues --    2.71241   2.72439   2.73916   2.75217   2.77499
 Alpha virt. eigenvalues --    2.79155   2.79635   2.80584   2.81502   2.83343
 Alpha virt. eigenvalues --    2.86393   2.88210   2.88675   2.90642   2.91376
 Alpha virt. eigenvalues --    2.93723   2.95132   2.96321   2.97041   3.00790
 Alpha virt. eigenvalues --    3.01263   3.02536   3.03754   3.06924   3.08109
 Alpha virt. eigenvalues --    3.11631   3.12534   3.13787   3.15422   3.17197
 Alpha virt. eigenvalues --    3.17878   3.18436   3.19242   3.20178   3.22316
 Alpha virt. eigenvalues --    3.23341   3.25394   3.26664   3.26987   3.28195
 Alpha virt. eigenvalues --    3.29316   3.32086   3.33585   3.34766   3.36835
 Alpha virt. eigenvalues --    3.37285   3.38548   3.40228   3.41015   3.45035
 Alpha virt. eigenvalues --    3.47166   3.48425   3.49916   3.51078   3.52645
 Alpha virt. eigenvalues --    3.53374   3.53882   3.55060   3.57448   3.61167
 Alpha virt. eigenvalues --    3.64091   3.67157   3.68168   3.73242   3.73898
 Alpha virt. eigenvalues --    3.76639   3.77537   3.81471   3.83703   3.84848
 Alpha virt. eigenvalues --    3.88180   3.89240   3.92150   3.94865   3.99255
 Alpha virt. eigenvalues --    4.01191   4.02818   4.06302   4.08622   4.10749
 Alpha virt. eigenvalues --    4.13570   4.15384   4.16606   4.17987   4.20491
 Alpha virt. eigenvalues --    4.20908   4.22317   4.26772   4.28158   4.30380
 Alpha virt. eigenvalues --    4.34106   4.35906   4.37046   4.40671   4.47974
 Alpha virt. eigenvalues --    4.51230   4.54814   4.61768   4.64157   4.66023
 Alpha virt. eigenvalues --    4.67502   4.70075   4.76254   4.77698   4.81210
 Alpha virt. eigenvalues --    4.84006   4.85501   4.90207   4.92254   5.03515
 Alpha virt. eigenvalues --    5.07402   5.08931   5.12018   5.14475   5.18486
 Alpha virt. eigenvalues --    5.25478   5.28864   5.36770   5.41904   5.51576
 Alpha virt. eigenvalues --    5.54465   5.74395  10.83528  10.92399  11.42429
 Alpha virt. eigenvalues --   22.08921  22.52397  22.62269  22.71576  22.77340
 Alpha virt. eigenvalues --   22.83087  22.93625  23.33738  26.01208  32.07188
          Condensed to atoms (all electrons):
               1          2          3          4          5          6
     1  Cl  16.894723   0.323606  -0.048365   0.011189  -0.002793   0.017679
     2  C    0.323606   5.249798   0.318682   0.066606  -0.130493   0.146211
     3  C   -0.048365   0.318682   5.088257   0.420747   0.028161  -0.168749
     4  C    0.011189   0.066606   0.420747   4.973595   0.451794   0.048534
     5  C   -0.002793  -0.130493   0.028161   0.451794   4.948088   0.421210
     6  C    0.017679   0.146211  -0.168749   0.048534   0.421210   5.140368
     7  C   -0.108018   0.157078   0.126682  -0.156310   0.064534   0.238841
     8  C    0.011876  -0.134053   0.023589  -0.007987   0.014521  -0.080588
     9  C   -0.013702   0.010816   0.001062   0.000279  -0.000952  -0.001072
    10  N    0.000337   0.014058  -0.001641   0.001041  -0.003976   0.018823
    11  H    0.001930  -0.051407   0.414436  -0.038928   0.007271  -0.004674
    12  H   -0.000356   0.005345  -0.034670   0.407927  -0.034018   0.004846
    13  H    0.000020  -0.001890   0.006576  -0.039440   0.414595  -0.038609
    14  H   -0.000178   0.012734  -0.001712   0.005619  -0.028320   0.407380
    15  H    0.001365   0.000782  -0.000346   0.000050   0.000560  -0.000503
    16  H    0.004080  -0.004296   0.000035   0.000211  -0.000735   0.007301
    17  H    0.000323   0.002876  -0.000246   0.000067  -0.000189   0.001858
    18  H    0.008554  -0.012141   0.001407  -0.000435   0.000620  -0.000308
    19  H    0.000029  -0.000413   0.000010  -0.000016   0.000122  -0.001067
    20  H   -0.000019  -0.001085   0.000087  -0.000042   0.000095   0.000862
               7          8          9         10         11         12
     1  Cl  -0.108018   0.011876  -0.013702   0.000337   0.001930  -0.000356
     2  C    0.157078  -0.134053   0.010816   0.014058  -0.051407   0.005345
     3  C    0.126682   0.023589   0.001062  -0.001641   0.414436  -0.034670
     4  C   -0.156310  -0.007987   0.000279   0.001041  -0.038928   0.407927
     5  C    0.064534   0.014521  -0.000952  -0.003976   0.007271  -0.034018
     6  C    0.238841  -0.080588  -0.001072   0.018823  -0.004674   0.004846
     7  C    5.479751   0.232877  -0.024593  -0.060118   0.019227   0.000498
     8  C    0.232877   5.440186   0.178434  -0.046893   0.000349   0.000071
     9  C   -0.024593   0.178434   5.080967   0.261119  -0.000021  -0.000014
    10  N   -0.060118  -0.046893   0.261119   6.715977  -0.000016  -0.000002
    11  H    0.019227   0.000349  -0.000021  -0.000016   0.501519  -0.003922
    12  H    0.000498   0.000071  -0.000014  -0.000002  -0.003922   0.514003
    13  H    0.009847  -0.000200   0.000006  -0.000220  -0.000176  -0.003799
    14  H   -0.061033   0.003604  -0.001608   0.013693   0.000033  -0.000334
    15  H   -0.075240   0.457609  -0.040049  -0.010471   0.000010   0.000002
    16  H   -0.048767   0.429624  -0.050912   0.005940  -0.000022  -0.000001
    17  H    0.009192  -0.095740   0.469660  -0.056925  -0.000004   0.000000
    18  H   -0.010693  -0.005537   0.402771  -0.035091   0.000060   0.000002
    19  H    0.003258   0.009800  -0.046928   0.372370   0.000001   0.000000
    20  H   -0.002470   0.005533  -0.048449   0.361199   0.000001   0.000000
              13         14         15         16         17         18
     1  Cl   0.000020  -0.000178   0.001365   0.004080   0.000323   0.008554
     2  C   -0.001890   0.012734   0.000782  -0.004296   0.002876  -0.012141
     3  C    0.006576  -0.001712  -0.000346   0.000035  -0.000246   0.001407
     4  C   -0.039440   0.005619   0.000050   0.000211   0.000067  -0.000435
     5  C    0.414595  -0.028320   0.000560  -0.000735  -0.000189   0.000620
     6  C   -0.038609   0.407380  -0.000503   0.007301   0.001858  -0.000308
     7  C    0.009847  -0.061033  -0.075240  -0.048767   0.009192  -0.010693
     8  C   -0.000200   0.003604   0.457609   0.429624  -0.095740  -0.005537
     9  C    0.000006  -0.001608  -0.040049  -0.050912   0.469660   0.402771
    10  N   -0.000220   0.013693  -0.010471   0.005940  -0.056925  -0.035091
    11  H   -0.000176   0.000033   0.000010  -0.000022  -0.000004   0.000060
    12  H   -0.003799  -0.000334   0.000002  -0.000001   0.000000   0.000002
    13  H    0.515522  -0.004735  -0.000033   0.000000  -0.000003   0.000006
    14  H   -0.004735   0.519733  -0.002368   0.000905   0.000584  -0.000311
    15  H   -0.000033  -0.002368   0.509586  -0.011896  -0.005611   0.005221
    16  H    0.000000   0.000905  -0.011896   0.499231   0.003543  -0.001627
    17  H   -0.000003   0.000584  -0.005611   0.003543   0.597261  -0.040750
    18  H    0.000006  -0.000311   0.005221  -0.001627  -0.040750   0.531064
    19  H    0.000004  -0.000333   0.000037  -0.000692  -0.002354  -0.007701
    20  H    0.000006  -0.000944   0.003886  -0.000092  -0.010302   0.008689
              19         20
     1  Cl   0.000029  -0.000019
     2  C   -0.000413  -0.001085
     3  C    0.000010   0.000087
     4  C   -0.000016  -0.000042
     5  C    0.000122   0.000095
     6  C   -0.001067   0.000862
     7  C    0.003258  -0.002470
     8  C    0.009800   0.005533
     9  C   -0.046928  -0.048449
    10  N    0.372370   0.361199
    11  H    0.000001   0.000001
    12  H    0.000000   0.000000
    13  H    0.000004   0.000006
    14  H   -0.000333  -0.000944
    15  H    0.000037   0.003886
    16  H   -0.000692  -0.000092
    17  H   -0.002354  -0.010302
    18  H   -0.007701   0.008689
    19  H    0.475196  -0.035390
    20  H   -0.035390   0.490248
 Mulliken charges:
               1
     1  Cl  -0.102280
     2  C    0.027186
     3  C   -0.174002
     4  C   -0.144500
     5  C   -0.150094
     6  C   -0.158342
     7  C    0.205459
     8  C   -0.437075
     9  C   -0.176812
    10  N   -0.549203
    11  H    0.154334
    12  H    0.144422
    13  H    0.142523
    14  H    0.137590
    15  H    0.167409
    16  H    0.168170
    17  H    0.126762
    18  H    0.156199
    19  H    0.234068
    20  H    0.228186
 Sum of Mulliken charges =  -0.00000
 Mulliken charges with hydrogens summed into heavy atoms:
               1
     1  Cl  -0.102280
     2  C    0.027186
     3  C   -0.019668
     4  C   -0.000078
     5  C   -0.007572
     6  C   -0.020752
     7  C    0.205459
     8  C   -0.101496
     9  C    0.106149
    10  N   -0.086948
 Electronic spatial extent (au):  <R**2>=           1780.5689
 Charge=              0.0000 electrons
 Dipole moment (field-independent basis, Debye):
    X=              1.4864    Y=             -1.2151    Z=              0.0816  Tot=              1.9216
 Quadrupole moment (field-independent basis, Debye-Ang):
   XX=            -55.3867   YY=            -66.8429   ZZ=            -68.1277
   XY=              0.2548   XZ=              1.7464   YZ=             -1.6058
 Traceless Quadrupole moment (field-independent basis, Debye-Ang):
   XX=              8.0657   YY=             -3.3904   ZZ=             -4.6753
   XY=              0.2548   XZ=              1.7464   YZ=             -1.6058
 Octapole moment (field-independent basis, Debye-Ang**2):
  XXX=             22.7811  YYY=             -4.3436  ZZZ=             -6.0265  XYY=              1.5758
  XXY=             -9.5666  XXZ=            -13.7841  XZZ=             12.4686  YZZ=              5.1238
  YYZ=              3.0995  XYZ=             -1.9792
 Hexadecapole moment (field-independent basis, Debye-Ang**3):
 XXXX=          -1136.6628 YYYY=           -870.7561 ZZZZ=           -193.4665 XXXY=            -45.7343
 XXXZ=             -3.8200 YYYX=              3.9233 YYYZ=             -8.9682 ZZZX=            -18.9033
 ZZZY=              4.2252 XXYY=           -339.5788 XXZZ=           -231.1379 YYZZ=           -192.4278
 XXYZ=              6.6784 YYXZ=              7.9436 ZZXY=            -13.0746
 N-N= 5.833196116307D+02 E-N=-3.109997985061D+03  KE= 8.233574650322D+02
 Unable to Open any file for archive entry.
 1\1\GINC-NOTCH303\SP\RM062X\def2TZVP\C8H10Cl1N1\U6032257\21-Feb-2022\0
 \\# M062X/def2tzvp int=(grid=ultrafine) nmr=giao guess=read geom=check
 \\N3.xyz\\0,1\Cl,0,-0.2508747814,2.6380630127,1.3938992884\C,0,-0.9679
 738303,1.2494616978,0.5659229762\C,0,-2.2338221268,1.416224204,0.00709
 35378\C,0,-2.8271797643,0.3510084883,-0.6659944957\C,0,-2.1500286998,-
 0.8634968389,-0.77428836\C,0,-0.8880924648,-1.0066913825,-0.2044978211
 \C,0,-0.264701378,0.0409560907,0.4860992365\C,0,1.1150406027,-0.136179
 8184,1.0661126961\C,0,2.2300611024,0.3085859224,0.1032250982\N,0,2.276
 8709954,-0.5686341052,-1.0681888426\H,0,-2.7399091783,2.3699687776,0.1
 019205167\H,0,-3.8130065547,0.4743726755,-1.1029974135\H,0,-2.60299753
 73,-1.6965943458,-1.3022413397\H,0,-0.3543608304,-1.946528906,-0.29774
 09902\H,0,1.2668514239,-1.1929949324,1.3166113976\H,0,1.209285472,0.42
 90414411,1.9974060822\H,0,3.1771525265,0.3575387114,0.6674906604\H,0,2
 .0148166138,1.3256521016,-0.2397570398\H,0,2.8773598221,-0.1676628319,
 -1.783154153\H,0,2.6926085874,-1.4615899622,-0.8127210346\\Version=ES6
 4L-G16RevC.01\State=1-A\HF=-825.7945401\RMSD=1.231e-09\Dipole=0.465382
 5,-0.5511405,-0.2262958\Quadrupole=5.3559375,-1.0532019,-4.3027356,-2.
 230112,1.0354257,-0.3812314\PG=C01 [X(C8H10Cl1N1)]\\@
 The archive entry for this job was punched.


 DESK:  A WASTEBASKET WITH DRAWERS.
 Job cpu time:       0 days  0 hours 26 minutes 58.3 seconds.
 Elapsed time:       0 days  0 hours  0 minutes 35.4 seconds.
 File lengths (MBytes):  RWF=     83 Int=      0 D2E=      0 Chk=     14 Scr=      1
 Normal termination of Gaussian 16 at Mon Feb 21 19:23:10 2022.
