 Entering Gaussian System, Link 0=/uufs/chpc.utah.edu/sys/installdir/gaussian16/C01/AVX2/g16/g16
 Input=N3_conf-8.com
 Output=N3_conf-8.log
 Initial command:
 /uufs/chpc.utah.edu/sys/installdir/gaussian16/C01/AVX2/g16/l1.exe "/scratch/local/u6032257/4038681/notchpeak.peaks/Gau-101679.inp" -scrdir="/scratch/local/u6032257/4038681/notchpeak.peaks/"
 Entering Link 1 = /uufs/chpc.utah.edu/sys/installdir/gaussian16/C01/AVX2/g16/l1.exe PID=    101681.
  
 Copyright (c) 1988-2019, Gaussian, Inc.  All Rights Reserved.
  
 This is part of the Gaussian(R) 16 program.  It is based on
 the Gaussian(R) 09 system (copyright 2009, Gaussian, Inc.),
 the Gaussian(R) 03 system (copyright 2003, Gaussian, Inc.),
 the Gaussian(R) 98 system (copyright 1998, Gaussian, Inc.),
 the Gaussian(R) 94 system (copyright 1995, Gaussian, Inc.),
 the Gaussian 92(TM) system (copyright 1992, Gaussian, Inc.),
 the Gaussian 90(TM) system (copyright 1990, Gaussian, Inc.),
 the Gaussian 88(TM) system (copyright 1988, Gaussian, Inc.),
 the Gaussian 86(TM) system (copyright 1986, Carnegie Mellon
 University), and the Gaussian 82(TM) system (copyright 1983,
 Carnegie Mellon University). Gaussian is a federally registered
 trademark of Gaussian, Inc.
  
 This software contains proprietary and confidential information,
 including trade secrets, belonging to Gaussian, Inc.
  
 This software is provided under written license and may be
 used, copied, transmitted, or stored only in accord with that
 written license.
  
 The following legend is applicable only to US Government
 contracts under FAR:
  
                    RESTRICTED RIGHTS LEGEND
  
 Use, reproduction and disclosure by the US Government is
 subject to restrictions as set forth in subparagraphs (a)
 and (c) of the Commercial Computer Software - Restricted
 Rights clause in FAR 52.227-19.
  
 Gaussian, Inc.
 340 Quinnipiac St., Bldg. 40, Wallingford CT 06492
  
  
 ---------------------------------------------------------------
 Warning -- This program may not be used in any manner that
 competes with the business of Gaussian, Inc. or will provide
 assistance to any competitor of Gaussian, Inc.  The licensee
 of this program is prohibited from giving any competitor of
 Gaussian, Inc. access to this program.  By using this program,
 the user acknowledges that Gaussian, Inc. is engaged in the
 business of creating and licensing software in the field of
 computational chemistry and represents and warrants to the
 licensee that it is not a competitor of Gaussian, Inc. and that
 it will not use this program in any manner prohibited above.
 ---------------------------------------------------------------
  

 Cite this work as:
 Gaussian 16, Revision C.01,
 M. J. Frisch, G. W. Trucks, H. B. Schlegel, G. E. Scuseria, 
 M. A. Robb, J. R. Cheeseman, G. Scalmani, V. Barone, 
 G. A. Petersson, H. Nakatsuji, X. Li, M. Caricato, A. V. Marenich, 
 J. Bloino, B. G. Janesko, R. Gomperts, B. Mennucci, H. P. Hratchian, 
 J. V. Ortiz, A. F. Izmaylov, J. L. Sonnenberg, D. Williams-Young, 
 F. Ding, F. Lipparini, F. Egidi, J. Goings, B. Peng, A. Petrone, 
 T. Henderson, D. Ranasinghe, V. G. Zakrzewski, J. Gao, N. Rega, 
 G. Zheng, W. Liang, M. Hada, M. Ehara, K. Toyota, R. Fukuda, 
 J. Hasegawa, M. Ishida, T. Nakajima, Y. Honda, O. Kitao, H. Nakai, 
 T. Vreven, K. Throssell, J. A. Montgomery, Jr., J. E. Peralta, 
 F. Ogliaro, M. J. Bearpark, J. J. Heyd, E. N. Brothers, K. N. Kudin, 
 V. N. Staroverov, T. A. Keith, R. Kobayashi, J. Normand, 
 K. Raghavachari, A. P. Rendell, J. C. Burant, S. S. Iyengar, 
 J. Tomasi, M. Cossi, J. M. Millam, M. Klene, C. Adamo, R. Cammi, 
 J. W. Ochterski, R. L. Martin, K. Morokuma, O. Farkas, 
 J. B. Foresman, and D. J. Fox, Gaussian, Inc., Wallingford CT, 2019.
 
 ******************************************
 Gaussian 16:  ES64L-G16RevC.01  3-Jul-2019
                21-Feb-2022 
 ******************************************
 %NProcShared=64
 Will use up to   64 processors via shared memory.
 %mem=16GB
 %chk=N3_conf-8.chk
 ----------------------------------------------------------------------
 # B3LYP/6-31G(d,p) empiricaldispersion=GD3BJ int=(grid=ultrafine) opt 
 freq=noraman
 ----------------------------------------------------------------------
 1/18=20,19=15,26=4,38=1/1,3;
 2/9=110,12=2,17=6,18=5,40=1/2;
 3/5=1,6=6,7=101,11=2,25=1,30=1,71=1,74=-5,75=-5,124=41/1,2,3;
 4//1;
 5/5=2,38=5/2;
 6/7=2,8=2,9=2,10=2,28=1/1;
 7//1,2,3,16;
 1/18=20,19=15,26=4/3(2);
 2/9=110/2;
 99//99;
 2/9=110/2;
 3/5=1,6=6,7=101,11=2,25=1,30=1,71=1,74=-5,75=-5,124=41/1,2,3;
 4/5=5,16=3,69=1/1;
 5/5=2,38=5/2;
 7//1,2,3,16;
 1/18=20,19=15,26=4/3(-5);
 2/9=110/2;
 6/7=2,8=2,9=2,10=2,19=2,28=1/1;
 99/9=1/99;
 ------
 N3.xyz
 ------
 Symbolic Z-matrix:
 Charge =  0 Multiplicity = 1
 Cl                    0.0144    2.6064    0.9997 
 C                    -0.8548    1.2316    0.4053 
 C                    -2.1228    1.4399   -0.14 
 C                    -2.868     0.3666   -0.6275 
 C                    -2.3449   -0.9241   -0.5711 
 C                    -1.0784   -1.1401   -0.0277 
 C                    -0.3222   -0.0693    0.4642 
 C                     1.0612   -0.3533    1.0524 
 C                     2.1996   -0.4557    0.0179 
 N                     2.3271    0.766    -0.7586 
 H                    -2.5255    2.4408   -0.1848 
 H                    -3.8473    0.5371   -1.0505 
 H                    -2.9181   -1.7572   -0.952 
 H                    -0.6802   -2.1438    0.0036 
 H                     1.0079   -1.2915    1.6053 
 H                     1.3045    0.387     1.8141 
 H                     2.0208   -1.2931   -0.6602 
 H                     3.1415   -0.6635    0.5298 
 H                     2.2838    1.5835   -0.163 
 H                     3.2048    0.8064   -1.2575 
 

 GradGradGradGradGradGradGradGradGradGradGradGradGradGradGradGradGradGrad
 Berny optimization.
 Initialization pass.
                           ----------------------------
                           !    Initial Parameters    !
                           ! (Angstroms and Degrees)  !
 --------------------------                            --------------------------
 ! Name  Definition              Value          Derivative Info.                !
 --------------------------------------------------------------------------------
 ! R1    R(1,2)                  1.7317         estimate D2E/DX2                !
 ! R2    R(2,3)                  1.3959         estimate D2E/DX2                !
 ! R3    R(2,7)                  1.4069         estimate D2E/DX2                !
 ! R4    R(3,4)                  1.3946         estimate D2E/DX2                !
 ! R5    R(3,11)                 1.0798         estimate D2E/DX2                !
 ! R6    R(4,5)                  1.3938         estimate D2E/DX2                !
 ! R7    R(4,12)                 1.0803         estimate D2E/DX2                !
 ! R8    R(5,6)                  1.395          estimate D2E/DX2                !
 ! R9    R(5,13)                 1.0806         estimate D2E/DX2                !
 ! R10   R(6,7)                  1.4001         estimate D2E/DX2                !
 ! R11   R(6,14)                 1.0803         estimate D2E/DX2                !
 ! R12   R(7,8)                  1.5298         estimate D2E/DX2                !
 ! R13   R(8,9)                  1.5416         estimate D2E/DX2                !
 ! R14   R(8,15)                 1.0903         estimate D2E/DX2                !
 ! R15   R(8,16)                 1.0897         estimate D2E/DX2                !
 ! R16   R(9,10)                 1.4532         estimate D2E/DX2                !
 ! R17   R(9,17)                 1.0923         estimate D2E/DX2                !
 ! R18   R(9,18)                 1.092          estimate D2E/DX2                !
 ! R19   R(10,19)                1.0124         estimate D2E/DX2                !
 ! R20   R(10,20)                1.0104         estimate D2E/DX2                !
 ! A1    A(1,2,3)              118.1351         estimate D2E/DX2                !
 ! A2    A(1,2,7)              121.9838         estimate D2E/DX2                !
 ! A3    A(3,2,7)              119.8806         estimate D2E/DX2                !
 ! A4    A(2,3,4)              120.4701         estimate D2E/DX2                !
 ! A5    A(2,3,11)             119.5571         estimate D2E/DX2                !
 ! A6    A(4,3,11)             119.9727         estimate D2E/DX2                !
 ! A7    A(3,4,5)              119.8667         estimate D2E/DX2                !
 ! A8    A(3,4,12)             119.9866         estimate D2E/DX2                !
 ! A9    A(5,4,12)             120.1465         estimate D2E/DX2                !
 ! A10   A(4,5,6)              119.9923         estimate D2E/DX2                !
 ! A11   A(4,5,13)             120.0386         estimate D2E/DX2                !
 ! A12   A(6,5,13)             119.9685         estimate D2E/DX2                !
 ! A13   A(5,6,7)              120.5825         estimate D2E/DX2                !
 ! A14   A(5,6,14)             119.3288         estimate D2E/DX2                !
 ! A15   A(7,6,14)             120.0869         estimate D2E/DX2                !
 ! A16   A(2,7,6)              119.2078         estimate D2E/DX2                !
 ! A17   A(2,7,8)              122.0095         estimate D2E/DX2                !
 ! A18   A(6,7,8)              118.7827         estimate D2E/DX2                !
 ! A19   A(7,8,9)              114.9658         estimate D2E/DX2                !
 ! A20   A(7,8,15)             108.09           estimate D2E/DX2                !
 ! A21   A(7,8,16)             110.1537         estimate D2E/DX2                !
 ! A22   A(9,8,15)             108.6165         estimate D2E/DX2                !
 ! A23   A(9,8,16)             110.4453         estimate D2E/DX2                !
 ! A24   A(15,8,16)            103.9477         estimate D2E/DX2                !
 ! A25   A(8,9,10)             111.5623         estimate D2E/DX2                !
 ! A26   A(8,9,17)             110.2821         estimate D2E/DX2                !
 ! A27   A(8,9,18)             109.5737         estimate D2E/DX2                !
 ! A28   A(10,9,17)            109.0971         estimate D2E/DX2                !
 ! A29   A(10,9,18)            109.5601         estimate D2E/DX2                !
 ! A30   A(17,9,18)            106.6389         estimate D2E/DX2                !
 ! A31   A(9,10,19)            111.1465         estimate D2E/DX2                !
 ! A32   A(9,10,20)            111.9423         estimate D2E/DX2                !
 ! A33   A(19,10,20)           107.179          estimate D2E/DX2                !
 ! D1    D(1,2,3,4)           -179.708          estimate D2E/DX2                !
 ! D2    D(1,2,3,11)             0.4129         estimate D2E/DX2                !
 ! D3    D(7,2,3,4)              0.0273         estimate D2E/DX2                !
 ! D4    D(7,2,3,11)          -179.8518         estimate D2E/DX2                !
 ! D5    D(1,2,7,6)            179.6881         estimate D2E/DX2                !
 ! D6    D(1,2,7,8)             -0.2261         estimate D2E/DX2                !
 ! D7    D(3,2,7,6)             -0.0367         estimate D2E/DX2                !
 ! D8    D(3,2,7,8)           -179.951          estimate D2E/DX2                !
 ! D9    D(2,3,4,5)             -0.0113         estimate D2E/DX2                !
 ! D10   D(2,3,4,12)          -179.823          estimate D2E/DX2                !
 ! D11   D(11,3,4,5)           179.8672         estimate D2E/DX2                !
 ! D12   D(11,3,4,12)            0.0556         estimate D2E/DX2                !
 ! D13   D(3,4,5,6)              0.0051         estimate D2E/DX2                !
 ! D14   D(3,4,5,13)          -179.7306         estimate D2E/DX2                !
 ! D15   D(12,4,5,6)           179.8164         estimate D2E/DX2                !
 ! D16   D(12,4,5,13)            0.0807         estimate D2E/DX2                !
 ! D17   D(4,5,6,7)             -0.0151         estimate D2E/DX2                !
 ! D18   D(4,5,6,14)          -179.5233         estimate D2E/DX2                !
 ! D19   D(13,5,6,7)           179.7208         estimate D2E/DX2                !
 ! D20   D(13,5,6,14)            0.2126         estimate D2E/DX2                !
 ! D21   D(5,6,7,2)              0.0308         estimate D2E/DX2                !
 ! D22   D(5,6,7,8)            179.9478         estimate D2E/DX2                !
 ! D23   D(14,6,7,2)           179.5353         estimate D2E/DX2                !
 ! D24   D(14,6,7,8)            -0.5477         estimate D2E/DX2                !
 ! D25   D(2,7,8,9)            -96.6586         estimate D2E/DX2                !
 ! D26   D(2,7,8,15)           141.8391         estimate D2E/DX2                !
 ! D27   D(2,7,8,16)            28.8849         estimate D2E/DX2                !
 ! D28   D(6,7,8,9)             83.4268         estimate D2E/DX2                !
 ! D29   D(6,7,8,15)           -38.0754         estimate D2E/DX2                !
 ! D30   D(6,7,8,16)          -151.0296         estimate D2E/DX2                !
 ! D31   D(7,8,9,10)            58.7575         estimate D2E/DX2                !
 ! D32   D(7,8,9,17)           -62.6472         estimate D2E/DX2                !
 ! D33   D(7,8,9,18)          -179.7373         estimate D2E/DX2                !
 ! D34   D(15,8,9,10)          179.9731         estimate D2E/DX2                !
 ! D35   D(15,8,9,17)           58.5684         estimate D2E/DX2                !
 ! D36   D(15,8,9,18)          -58.5216         estimate D2E/DX2                !
 ! D37   D(16,8,9,10)          -66.6346         estimate D2E/DX2                !
 ! D38   D(16,8,9,17)          171.9607         estimate D2E/DX2                !
 ! D39   D(16,8,9,18)           54.8706         estimate D2E/DX2                !
 ! D40   D(8,9,10,19)           45.0703         estimate D2E/DX2                !
 ! D41   D(8,9,10,20)          164.8878         estimate D2E/DX2                !
 ! D42   D(17,9,10,19)         167.1604         estimate D2E/DX2                !
 ! D43   D(17,9,10,20)         -73.0221         estimate D2E/DX2                !
 ! D44   D(18,9,10,19)         -76.4428         estimate D2E/DX2                !
 ! D45   D(18,9,10,20)          43.3747         estimate D2E/DX2                !
 --------------------------------------------------------------------------------
 Trust Radius=3.00D-01 FncErr=1.00D-07 GrdErr=1.00D-06 EigMax=2.50D+02 EigMin=1.00D-04
 Number of steps in this run=    108 maximum allowed number of steps=    120.
 GradGradGradGradGradGradGradGradGradGradGradGradGradGradGradGradGradGrad

                          Input orientation:                          
 ---------------------------------------------------------------------
 Center     Atomic      Atomic             Coordinates (Angstroms)
 Number     Number       Type             X           Y           Z
 ---------------------------------------------------------------------
      1         17           0        0.014400    2.606400    0.999700
      2          6           0       -0.854800    1.231600    0.405300
      3          6           0       -2.122800    1.439900   -0.140000
      4          6           0       -2.868000    0.366600   -0.627500
      5          6           0       -2.344900   -0.924100   -0.571100
      6          6           0       -1.078400   -1.140100   -0.027700
      7          6           0       -0.322200   -0.069300    0.464200
      8          6           0        1.061200   -0.353300    1.052400
      9          6           0        2.199600   -0.455700    0.017900
     10          7           0        2.327100    0.766000   -0.758600
     11          1           0       -2.525500    2.440800   -0.184800
     12          1           0       -3.847300    0.537100   -1.050500
     13          1           0       -2.918100   -1.757200   -0.952000
     14          1           0       -0.680200   -2.143800    0.003600
     15          1           0        1.007900   -1.291500    1.605300
     16          1           0        1.304500    0.387000    1.814100
     17          1           0        2.020800   -1.293100   -0.660200
     18          1           0        3.141500   -0.663500    0.529800
     19          1           0        2.283800    1.583500   -0.163000
     20          1           0        3.204800    0.806400   -1.257500
 ---------------------------------------------------------------------
                    Distance matrix (angstroms):
                    1          2          3          4          5
     1  Cl   0.000000
     2  C    1.731732   0.000000
     3  C    2.688357   1.395910   0.000000
     4  C    3.996588   2.422370   1.394615   0.000000
     5  C    4.527487   2.796569   2.413228   1.393815   0.000000
     6  C    4.035595   2.421249   2.785639   2.415072   1.394977
     7  C    2.749442   1.406937   2.425882   2.804089   2.427724
     8  C    3.139808   2.569378   3.843857   4.333467   3.816161
     9  C    3.887864   3.510900   4.722433   5.174291   4.606387
    10  N    3.439080   3.419932   4.542952   5.212079   4.971839
    11  H    2.807411   2.145139   1.079803   2.148394   3.391813
    12  H    4.837153   3.399521   2.148944   1.080291   2.149915
    13  H    5.608003   3.877163   3.393125   2.149032   1.080601
    14  H    4.902967   3.403700   3.865827   3.389228   2.142236
    15  H    4.067852   3.357929   4.506429   4.770460   4.014096
    16  H    2.693203   2.713051   4.083319   4.834417   4.552613
    17  H    4.689031   3.972213   4.990924   5.162949   4.382173
    18  H    4.548825   4.424626   5.708395   6.206008   5.601828
    19  H    2.747430   3.208989   4.408999   5.313911   5.280101
    20  H    4.302744   4.407499   5.480278   6.121211   5.853627
                    6          7          8          9         10
     6  C    0.000000
     7  C    1.400149   0.000000
     8  C    2.522609   1.529847   0.000000
     9  C    3.348995   2.589974   1.541632   0.000000
    10  N    3.970499   3.035088   2.476905   1.453189   0.000000
    11  H    3.865440   3.402401   4.711908   5.545933   5.165455
    12  H    3.394986   3.884375   5.413721   6.220300   6.185533
    13  H    2.149335   3.404897   4.671550   5.368935   5.823750
    14  H    1.080258   2.154963   2.708938   3.338133   4.253438
    15  H    2.653725   2.136597   1.090302   2.153729   3.400238
    16  H    3.376755   2.162543   1.089691   2.176622   2.794304
    17  H    3.166782   2.872562   2.176478   1.092258   2.084081
    18  H    4.283166   3.514910   2.167252   1.091970   2.089663
    19  H    4.329052   3.149026   2.592902   2.048939   1.012384
    20  H    4.862826   4.021297   3.357911   2.056689   1.010391
                   11         12         13         14         15
    11  H    0.000000
    12  H    2.473998   0.000000
    13  H    4.285550   2.477282   0.000000
    14  H    4.945623   4.281223   2.463905   0.000000
    15  H    5.442374   5.828380   4.708517   2.478213   0.000000
    16  H    4.783576   5.896567   5.484456   3.690785   1.717245
    17  H    5.902276   6.159266   4.969232   2.908560   2.481624
    18  H    6.500940   7.265130   6.333298   4.132017   2.470493
    19  H    4.885162   6.282754   6.232380   4.765062   3.608383
    20  H    6.054609   7.060275   6.644944   5.038579   4.174108
                   16         17         18         19         20
    16  H    0.000000
    17  H    3.075383   0.000000
    18  H    2.475388   1.751703   0.000000
    19  H    2.509893   2.931076   2.502924   0.000000
    20  H    3.636174   2.483249   2.314963   1.627899   0.000000
 Stoichiometry    C8H10ClN
 Framework group  C1[X(C8H10ClN)]
 Deg. of freedom    54
 Full point group                 C1      NOp   1
 Largest Abelian subgroup         C1      NOp   1
 Largest concise Abelian subgroup C1      NOp   1
                         Standard orientation:                         
 ---------------------------------------------------------------------
 Center     Atomic      Atomic             Coordinates (Angstroms)
 Number     Number       Type             X           Y           Z
 ---------------------------------------------------------------------
      1         17           0       -0.485096    2.114002   -0.258268
      2          6           0        0.549167    0.732351   -0.116009
      3          6           0        1.853346    0.930593    0.340478
      4          6           0        2.729521   -0.146936    0.467758
      5          6           0        2.302070   -1.431857    0.137630
      6          6           0        1.000179   -1.637835   -0.319114
      7          6           0        0.112781   -0.562775   -0.450211
      8          6           0       -1.305026   -0.835431   -0.956087
      9          6           0       -2.302456   -1.301751    0.122945
     10          7           0       -2.429045   -0.324726    1.191195
     11          1           0        2.182028    1.926452    0.597788
     12          1           0        3.736258    0.015006    0.824527
     13          1           0        2.977279   -2.269381    0.239332
     14          1           0        0.677756   -2.639212   -0.564562
     15          1           0       -1.246865   -1.600833   -1.730384
     16          1           0       -1.691527    0.038744   -1.479404
     17          1           0       -1.982375   -2.255900    0.547416
     18          1           0       -3.279842   -1.474271   -0.332414
     19          1           0       -2.517980    0.612911    0.819917
     20          1           0       -3.242283   -0.496614    1.765640
 ---------------------------------------------------------------------
 Rotational constants (GHZ):           1.4784733           1.0068634           0.6835529
 Standard basis: 6-31G(d,p) (6D, 7F)
 There are   204 symmetry adapted cartesian basis functions of A   symmetry.
 There are   204 symmetry adapted basis functions of A   symmetry.
   204 basis functions,   374 primitive gaussians,   204 cartesian basis functions
    41 alpha electrons       41 beta electrons
       nuclear repulsion energy       588.0800943276 Hartrees.
 NAtoms=   20 NActive=   20 NUniq=   20 SFac= 1.00D+00 NAtFMM=   60 NAOKFM=F Big=F
 Integral buffers will be    131072 words long.
 Raffenetti 2 integral format.
 Two-electron integral symmetry is turned on.
 Nuclear repulsion after empirical dispersion term =      588.0407193544 Hartrees.
 One-electron integrals computed using PRISM.
 NBasis=   204 RedAO= T EigKep=  4.49D-04  NBF=   204
 NBsUse=   204 1.00D-06 EigRej= -1.00D+00 NBFU=   204
 ExpMin= 1.43D-01 ExpMax= 2.52D+04 ExpMxC= 3.78D+03 IAcc=3 IRadAn=         5 AccDes= 0.00D+00
 Harris functional with IExCor=  402 and IRadAn=       5 diagonalized for initial guess.
 HarFok:  IExCor=  402 AccDes= 0.00D+00 IRadAn=         5 IDoV= 1 UseB2=F ITyADJ=14
 ICtDFT=  3500011 ScaDFX=  1.000000  1.000000  1.000000  1.000000
 FoFCou: FMM=F IPFlag=           0 FMFlag=      100000 FMFlg1=           0
         NFxFlg=           0 DoJE=T BraDBF=F KetDBF=T FulRan=T
         wScrn=  0.000000 ICntrl=       500 IOpCl=  0 I1Cent=   200000004 NGrid=           0
         NMat0=    1 NMatS0=      1 NMatT0=    0 NMatD0=    1 NMtDS0=    0 NMtDT0=    0
 Petite list used in FoFCou.
 Requested convergence on RMS density matrix=1.00D-08 within 128 cycles.
 Requested convergence on MAX density matrix=1.00D-06.
 Requested convergence on             energy=1.00D-06.
 No special actions if energy rises.
 Integral accuracy reduced to 1.0D-05 until final iterations.
 Initial convergence to 1.0D-05 achieved.  Increase integral accuracy.
 SCF Done:  E(RB3LYP) =  -825.867641466     A.U. after   14 cycles
            NFock= 14  Conv=0.46D-08     -V/T= 2.0060

 **********************************************************************

            Population analysis using the SCF Density.

 **********************************************************************

 Orbital symmetries:
       Occupied  (A) (A) (A) (A) (A) (A) (A) (A) (A) (A) (A) (A)
                 (A) (A) (A) (A) (A) (A) (A) (A) (A) (A) (A) (A)
                 (A) (A) (A) (A) (A) (A) (A) (A) (A) (A) (A) (A)
                 (A) (A) (A) (A) (A)
       Virtual   (A) (A) (A) (A) (A) (A) (A) (A) (A) (A) (A) (A)
                 (A) (A) (A) (A) (A) (A) (A) (A) (A) (A) (A) (A)
                 (A) (A) (A) (A) (A) (A) (A) (A) (A) (A) (A) (A)
                 (A) (A) (A) (A) (A) (A) (A) (A) (A) (A) (A) (A)
                 (A) (A) (A) (A) (A) (A) (A) (A) (A) (A) (A) (A)
                 (A) (A) (A) (A) (A) (A) (A) (A) (A) (A) (A) (A)
                 (A) (A) (A) (A) (A) (A) (A) (A) (A) (A) (A) (A)
                 (A) (A) (A) (A) (A) (A) (A) (A) (A) (A) (A) (A)
                 (A) (A) (A) (A) (A) (A) (A) (A) (A) (A) (A) (A)
                 (A) (A) (A) (A) (A) (A) (A) (A) (A) (A) (A) (A)
                 (A) (A) (A) (A) (A) (A) (A) (A) (A) (A) (A) (A)
                 (A) (A) (A) (A) (A) (A) (A) (A) (A) (A) (A) (A)
                 (A) (A) (A) (A) (A) (A) (A) (A) (A) (A) (A) (A)
                 (A) (A) (A) (A) (A) (A) (A)
 The electronic state is 1-A.
 Alpha  occ. eigenvalues -- -101.54811 -14.29899 -10.24512 -10.20674 -10.20556
 Alpha  occ. eigenvalues --  -10.19602 -10.19305 -10.19284 -10.19133 -10.18985
 Alpha  occ. eigenvalues --   -9.46471  -7.22848  -7.21902  -7.21875  -0.89295
 Alpha  occ. eigenvalues --   -0.87263  -0.83361  -0.77549  -0.73264  -0.70593
 Alpha  occ. eigenvalues --   -0.62573  -0.60279  -0.57686  -0.51041  -0.48838
 Alpha  occ. eigenvalues --   -0.46950  -0.46385  -0.44252  -0.42887  -0.42250
 Alpha  occ. eigenvalues --   -0.39622  -0.39063  -0.36913  -0.36241  -0.34493
 Alpha  occ. eigenvalues --   -0.34412  -0.32844  -0.30792  -0.24902  -0.23745
 Alpha  occ. eigenvalues --   -0.21945
 Alpha virt. eigenvalues --   -0.00652  -0.00498   0.04208   0.09130   0.11163
 Alpha virt. eigenvalues --    0.12779   0.13753   0.14653   0.15669   0.16749
 Alpha virt. eigenvalues --    0.17101   0.18262   0.19011   0.20086   0.23496
 Alpha virt. eigenvalues --    0.23896   0.27525   0.28588   0.30105   0.31379
 Alpha virt. eigenvalues --    0.33261   0.40488   0.41746   0.45825   0.46858
 Alpha virt. eigenvalues --    0.47643   0.52195   0.52513   0.53370   0.55262
 Alpha virt. eigenvalues --    0.55970   0.57314   0.58467   0.60230   0.60618
 Alpha virt. eigenvalues --    0.61022   0.61328   0.61875   0.63956   0.65899
 Alpha virt. eigenvalues --    0.66751   0.72162   0.73318   0.74758   0.76651
 Alpha virt. eigenvalues --    0.77774   0.79688   0.80659   0.81587   0.82332
 Alpha virt. eigenvalues --    0.83402   0.84641   0.85259   0.87884   0.88882
 Alpha virt. eigenvalues --    0.90741   0.91665   0.92196   0.93553   0.95881
 Alpha virt. eigenvalues --    0.96561   0.97024   0.97075   1.00855   1.04596
 Alpha virt. eigenvalues --    1.07705   1.09121   1.10981   1.11908   1.16421
 Alpha virt. eigenvalues --    1.19899   1.25096   1.26727   1.32115   1.34108
 Alpha virt. eigenvalues --    1.38154   1.40250   1.40865   1.41406   1.43634
 Alpha virt. eigenvalues --    1.47686   1.50820   1.51331   1.54297   1.63439
 Alpha virt. eigenvalues --    1.72254   1.77372   1.78540   1.79309   1.83070
 Alpha virt. eigenvalues --    1.85147   1.85905   1.87817   1.89189   1.92716
 Alpha virt. eigenvalues --    1.94107   1.97785   1.99010   1.99547   2.00519
 Alpha virt. eigenvalues --    2.01770   2.06855   2.08740   2.11675   2.13505
 Alpha virt. eigenvalues --    2.18406   2.20314   2.21614   2.25762   2.26567
 Alpha virt. eigenvalues --    2.29174   2.30529   2.33337   2.35651   2.38571
 Alpha virt. eigenvalues --    2.38768   2.40863   2.42718   2.44302   2.45947
 Alpha virt. eigenvalues --    2.47886   2.50269   2.51751   2.54756   2.56728
 Alpha virt. eigenvalues --    2.57305   2.61733   2.64167   2.67398   2.70157
 Alpha virt. eigenvalues --    2.72084   2.73556   2.76508   2.77685   2.82899
 Alpha virt. eigenvalues --    2.87861   2.88962   2.93386   2.98785   3.01612
 Alpha virt. eigenvalues --    3.05495   3.19618   3.24807   3.27907   3.31167
 Alpha virt. eigenvalues --    3.32475   3.33463   3.36286   3.43927   3.47097
 Alpha virt. eigenvalues --    3.49928   3.59133   3.83573   3.98188   4.10121
 Alpha virt. eigenvalues --    4.14195   4.17281   4.30483   4.36648   4.43004
 Alpha virt. eigenvalues --    4.49339   4.66176   4.80439
          Condensed to atoms (all electrons):
               1          2          3          4          5          6
     1  Cl  16.932510   0.229958  -0.076598   0.004772   0.000293   0.004381
     2  C    0.229958   5.089573   0.509813  -0.039036  -0.043174  -0.037508
     3  C   -0.076598   0.509813   4.862624   0.539631  -0.028525  -0.046444
     4  C    0.004772  -0.039036   0.539631   4.797343   0.547129  -0.038041
     5  C    0.000293  -0.043174  -0.028525   0.547129   4.823536   0.520626
     6  C    0.004381  -0.037508  -0.046444  -0.038041   0.520626   4.878708
     7  C   -0.072595   0.506972  -0.024791  -0.032949  -0.024473   0.542134
     8  C   -0.009000  -0.056466   0.006120   0.000259   0.006486  -0.050559
     9  C   -0.000182  -0.002528  -0.000127   0.000029  -0.000042  -0.003720
    10  N   -0.004126   0.003388  -0.000237   0.000024  -0.000031  -0.000685
    11  H   -0.001038  -0.040946   0.369257  -0.036563   0.004564   0.000878
    12  H   -0.000189   0.004917  -0.040760   0.370745  -0.041113   0.004649
    13  H    0.000014   0.001004   0.004731  -0.041311   0.365265  -0.037611
    14  H   -0.000152   0.005796   0.000471   0.004710  -0.043498   0.369133
    15  H    0.000466   0.004750  -0.000171   0.000004   0.000153  -0.007964
    16  H    0.005478  -0.010304   0.000213  -0.000004  -0.000219   0.003987
    17  H   -0.000129  -0.000339   0.000012  -0.000007  -0.000085   0.003686
    18  H    0.000052   0.000023   0.000000   0.000000   0.000002  -0.000023
    19  H    0.006140  -0.000532   0.000063  -0.000005   0.000003   0.000065
    20  H    0.000180  -0.000048   0.000003  -0.000000  -0.000000   0.000004
               7          8          9         10         11         12
     1  Cl  -0.072595  -0.009000  -0.000182  -0.004126  -0.001038  -0.000189
     2  C    0.506972  -0.056466  -0.002528   0.003388  -0.040946   0.004917
     3  C   -0.024791   0.006120  -0.000127  -0.000237   0.369257  -0.040760
     4  C   -0.032949   0.000259   0.000029   0.000024  -0.036563   0.370745
     5  C   -0.024473   0.006486  -0.000042  -0.000031   0.004564  -0.041113
     6  C    0.542134  -0.050559  -0.003720  -0.000685   0.000878   0.004649
     7  C    4.748127   0.345002  -0.041645   0.004481   0.003610   0.000754
     8  C    0.345002   5.061006   0.365166  -0.057430  -0.000163   0.000006
     9  C   -0.041645   0.365166   4.768752   0.318682   0.000000   0.000000
    10  N    0.004481  -0.057430   0.318682   6.770278  -0.000006   0.000000
    11  H    0.003610  -0.000163   0.000000  -0.000006   0.604742  -0.006494
    12  H    0.000754   0.000006   0.000000   0.000000  -0.006494   0.622953
    13  H    0.004164  -0.000182   0.000000  -0.000000  -0.000190  -0.006048
    14  H   -0.043582  -0.009788   0.000389   0.000014   0.000017  -0.000215
    15  H   -0.029830   0.366311  -0.031466   0.004160   0.000003  -0.000000
    16  H   -0.033817   0.376449  -0.034904  -0.004315   0.000002  -0.000000
    17  H   -0.009990  -0.027131   0.381552  -0.050465   0.000000  -0.000000
    18  H    0.006943  -0.037243   0.377142  -0.055703  -0.000000   0.000000
    19  H   -0.002765  -0.005333  -0.041539   0.337756   0.000001   0.000000
    20  H    0.000047   0.005749  -0.033502   0.340906   0.000000   0.000000
              13         14         15         16         17         18
     1  Cl   0.000014  -0.000152   0.000466   0.005478  -0.000129   0.000052
     2  C    0.001004   0.005796   0.004750  -0.010304  -0.000339   0.000023
     3  C    0.004731   0.000471  -0.000171   0.000213   0.000012   0.000000
     4  C   -0.041311   0.004710   0.000004  -0.000004  -0.000007   0.000000
     5  C    0.365265  -0.043498   0.000153  -0.000219  -0.000085   0.000002
     6  C   -0.037611   0.369133  -0.007964   0.003987   0.003686  -0.000023
     7  C    0.004164  -0.043582  -0.029830  -0.033817  -0.009990   0.006943
     8  C   -0.000182  -0.009788   0.366311   0.376449  -0.027131  -0.037243
     9  C    0.000000   0.000389  -0.031466  -0.034904   0.381552   0.377142
    10  N   -0.000000   0.000014   0.004160  -0.004315  -0.050465  -0.055703
    11  H   -0.000190   0.000017   0.000003   0.000002   0.000000  -0.000000
    12  H   -0.006048  -0.000215  -0.000000  -0.000000  -0.000000   0.000000
    13  H    0.628778  -0.005852  -0.000007   0.000003   0.000003  -0.000000
    14  H   -0.005852   0.630561   0.004107   0.000153   0.001060  -0.000085
    15  H   -0.000007   0.004107   0.625115  -0.036128  -0.004174  -0.000751
    16  H    0.000003   0.000153  -0.036128   0.614032   0.005994  -0.007640
    17  H    0.000003   0.001060  -0.004174   0.005994   0.649174  -0.056287
    18  H   -0.000000  -0.000085  -0.000751  -0.007640  -0.056287   0.706554
    19  H   -0.000000  -0.000000  -0.000028   0.004528   0.006852  -0.002870
    20  H   -0.000000   0.000002  -0.000238   0.000132  -0.000609  -0.006755
              19         20
     1  Cl   0.006140   0.000180
     2  C   -0.000532  -0.000048
     3  C    0.000063   0.000003
     4  C   -0.000005  -0.000000
     5  C    0.000003  -0.000000
     6  C    0.000065   0.000004
     7  C   -0.002765   0.000047
     8  C   -0.005333   0.005749
     9  C   -0.041539  -0.033502
    10  N    0.337756   0.340906
    11  H    0.000001   0.000000
    12  H    0.000000   0.000000
    13  H   -0.000000  -0.000000
    14  H   -0.000000   0.000002
    15  H   -0.000028  -0.000238
    16  H    0.004528   0.000132
    17  H    0.006852  -0.000609
    18  H   -0.002870  -0.006755
    19  H    0.487147  -0.032378
    20  H   -0.032378   0.492130
 Mulliken charges:
               1
     1  Cl  -0.020234
     2  C   -0.125313
     3  C   -0.075285
     4  C   -0.076729
     5  C   -0.086897
     6  C   -0.105698
     7  C    0.154202
     8  C   -0.279260
     9  C   -0.022058
    10  N   -0.606690
    11  H    0.102324
    12  H    0.090794
    13  H    0.087240
    14  H    0.086761
    15  H    0.105687
    16  H    0.116358
    17  H    0.100883
    18  H    0.076640
    19  H    0.242896
    20  H    0.234379
 Sum of Mulliken charges =  -0.00000
 Mulliken charges with hydrogens summed into heavy atoms:
               1
     1  Cl  -0.020234
     2  C   -0.125313
     3  C    0.027039
     4  C    0.014065
     5  C    0.000343
     6  C   -0.018937
     7  C    0.154202
     8  C   -0.057214
     9  C    0.155465
    10  N   -0.129415
 Electronic spatial extent (au):  <R**2>=           1725.2400
 Charge=             -0.0000 electrons
 Dipole moment (field-independent basis, Debye):
    X=             -0.3908    Y=             -1.2046    Z=             -0.4975  Tot=              1.3606
 Quadrupole moment (field-independent basis, Debye-Ang):
   XX=            -55.6715   YY=            -63.2955   ZZ=            -69.0370
   XY=              0.2722   XZ=              1.1801   YZ=              1.6222
 Traceless Quadrupole moment (field-independent basis, Debye-Ang):
   XX=              6.9965   YY=             -0.6275   ZZ=             -6.3690
   XY=              0.2722   XZ=              1.1801   YZ=              1.6222
 Octapole moment (field-independent basis, Debye-Ang**2):
  XXX=            -17.6272  YYY=             -0.9321  ZZZ=             -1.2063  XYY=             -0.2980
  XXY=              2.1287  XXZ=             16.3899  XZZ=             -8.7451  YZZ=              3.1808
  YYZ=              1.4043  XYZ=              1.3904
 Hexadecapole moment (field-independent basis, Debye-Ang**3):
 XXXX=          -1150.4235 YYYY=           -763.7899 ZZZZ=           -220.6530 XXXY=             -6.9235
 XXXZ=            -22.1780 YYYX=            -14.1884 YYYZ=              2.9234 ZZZX=            -11.3249
 ZZZY=             -1.6811 XXYY=           -321.6187 XXZZ=           -239.0667 YYZZ=           -169.8720
 XXYZ=             -4.6759 YYXZ=             -0.7534 ZZXY=              4.2015
 N-N= 5.880407193544D+02 E-N=-3.117137932669D+03  KE= 8.209434297699D+02
 Calling FoFJK, ICntrl=      2127 FMM=F ISym2X=0 I1Cent= 0 IOpClX= 0 NMat=1 NMatS=1 NMatT=0.
 ***** Axes restored to original set *****
 -------------------------------------------------------------------
 Center     Atomic                   Forces (Hartrees/Bohr)
 Number     Number              X              Y              Z
 -------------------------------------------------------------------
      1       17           0.006364771    0.009332892    0.004697054
      2        6          -0.012549078   -0.019998603   -0.009024350
      3        6          -0.001503890   -0.000023967   -0.000524464
      4        6           0.005606235   -0.001010737    0.002186851
      5        6           0.002428977    0.000951652    0.000479074
      6        6          -0.008049106    0.010790013   -0.002896099
      7        6           0.018861024    0.000440379    0.006707215
      8        6          -0.005757006   -0.002902327   -0.002660103
      9        6           0.002609307    0.007991095    0.002970896
     10        7          -0.011358583    0.006507528   -0.007917518
     11        1          -0.000724670    0.003409132    0.000233962
     12        1          -0.002982114    0.001476122   -0.000988282
     13        1          -0.001886419   -0.002819343   -0.000995147
     14        1           0.003444594   -0.002563406    0.001741433
     15        1           0.000251137   -0.005254877   -0.001040206
     16        1           0.001978152    0.005258290   -0.001435834
     17        1          -0.003025701   -0.002235428   -0.001938216
     18        1           0.002207939   -0.008283508    0.009749826
     19        1           0.000837005    0.000986729    0.002577955
     20        1           0.003247424   -0.002051636   -0.001924047
 -------------------------------------------------------------------
 Cartesian Forces:  Max     0.019998603 RMS     0.005946830

 GradGradGradGradGradGradGradGradGradGradGradGradGradGradGradGradGradGrad
 Berny optimization.
 FormGI is forming the generalized inverse of G from B-inverse, IUseBI=4.
 Internal  Forces:  Max     0.012216262 RMS     0.003187508
 Search for a local minimum.
 Step number   1 out of a maximum of  108
 All quantities printed in internal units (Hartrees-Bohrs-Radians)
 Mixed Optimization -- RFO/linear search
 Second derivative matrix not updated -- first step.
 ITU=  0
     Eigenvalues ---    0.00230   0.00371   0.00988   0.01370   0.02045
     Eigenvalues ---    0.02073   0.02120   0.02136   0.02151   0.02161
     Eigenvalues ---    0.02162   0.02166   0.03593   0.04101   0.04225
     Eigenvalues ---    0.05203   0.05400   0.09351   0.09746   0.12778
     Eigenvalues ---    0.13121   0.15999   0.16000   0.16000   0.16000
     Eigenvalues ---    0.16000   0.16000   0.21886   0.21916   0.22000
     Eigenvalues ---    0.22490   0.24479   0.25000   0.25000   0.28375
     Eigenvalues ---    0.29438   0.32327   0.34553   0.34586   0.34778
     Eigenvalues ---    0.34848   0.35922   0.35959   0.35963   0.36018
     Eigenvalues ---    0.37830   0.41660   0.41990   0.45279   0.45576
     Eigenvalues ---    0.45907   0.46046   0.46380   0.46563
 RFO step:  Lambda=-5.66200936D-03 EMin= 2.30000000D-03
 Linear search not attempted -- first point.
 Iteration  1 RMS(Cart)=  0.05542803 RMS(Int)=  0.00123590
 Iteration  2 RMS(Cart)=  0.00155993 RMS(Int)=  0.00027668
 Iteration  3 RMS(Cart)=  0.00000205 RMS(Int)=  0.00027668
 Iteration  4 RMS(Cart)=  0.00000000 RMS(Int)=  0.00027668
 Variable       Old X    -DE/DX   Delta X   Delta X   Delta X     New X
                                 (Linear)    (Quad)   (Total)
    R1        3.27250   0.01222   0.00000   0.03714   0.03714   3.30964
    R2        2.63789   0.00002   0.00000   0.00020   0.00021   2.63810
    R3        2.65873  -0.00355   0.00000  -0.00807  -0.00805   2.65068
    R4        2.63544  -0.00244   0.00000  -0.00482  -0.00484   2.63060
    R5        2.04053   0.00342   0.00000   0.00935   0.00935   2.04988
    R6        2.63393  -0.00042   0.00000  -0.00069  -0.00072   2.63321
    R7        2.04145   0.00332   0.00000   0.00910   0.00910   2.05055
    R8        2.63613  -0.00074   0.00000  -0.00174  -0.00175   2.63438
    R9        2.04204   0.00352   0.00000   0.00966   0.00966   2.05170
   R10        2.64590  -0.00182   0.00000  -0.00432  -0.00430   2.64159
   R11        2.04139   0.00370   0.00000   0.01013   0.01013   2.05152
   R12        2.89099  -0.00877   0.00000  -0.02924  -0.02924   2.86175
   R13        2.91326  -0.00660   0.00000  -0.02281  -0.02281   2.89045
   R14        2.06037   0.00398   0.00000   0.01127   0.01127   2.07164
   R15        2.05922   0.00301   0.00000   0.00850   0.00850   2.06772
   R16        2.74613   0.00782   0.00000   0.02036   0.02036   2.76649
   R17        2.06407   0.00341   0.00000   0.00972   0.00972   2.07379
   R18        2.06352   0.00805   0.00000   0.02290   0.02290   2.08643
   R19        1.91313   0.00228   0.00000   0.00493   0.00493   1.91806
   R20        1.90936   0.00369   0.00000   0.00794   0.00794   1.91730
    A1        2.06185  -0.00234   0.00000  -0.00911  -0.00916   2.05269
    A2        2.12902  -0.00407   0.00000  -0.01585  -0.01589   2.11313
    A3        2.09231   0.00641   0.00000   0.02491   0.02493   2.11724
    A4        2.10260  -0.00232   0.00000  -0.00926  -0.00926   2.09334
    A5        2.08666   0.00044   0.00000   0.00030   0.00030   2.08696
    A6        2.09392   0.00188   0.00000   0.00896   0.00896   2.10288
    A7        2.09207  -0.00064   0.00000  -0.00175  -0.00180   2.09027
    A8        2.09416  -0.00069   0.00000  -0.00522  -0.00521   2.08895
    A9        2.09695   0.00133   0.00000   0.00699   0.00700   2.10395
   A10        2.09426  -0.00114   0.00000  -0.00505  -0.00509   2.08917
   A11        2.09507   0.00068   0.00000   0.00324   0.00324   2.09831
   A12        2.09385   0.00045   0.00000   0.00185   0.00185   2.09569
   A13        2.10456   0.00479   0.00000   0.02002   0.02003   2.12459
   A14        2.08268   0.00040   0.00000   0.00688   0.00687   2.08955
   A15        2.09591  -0.00519   0.00000  -0.02686  -0.02687   2.06904
   A16        2.08057  -0.00709   0.00000  -0.02887  -0.02883   2.05174
   A17        2.12947   0.00544   0.00000   0.02183   0.02179   2.15126
   A18        2.07315   0.00166   0.00000   0.00705   0.00701   2.08016
   A19        2.00653  -0.00390   0.00000  -0.02662  -0.02695   1.97959
   A20        1.88653   0.00182   0.00000   0.01056   0.01029   1.89682
   A21        1.92254   0.00168   0.00000   0.00291   0.00232   1.92487
   A22        1.89572  -0.00046   0.00000  -0.00777  -0.00772   1.88800
   A23        1.92763  -0.00058   0.00000  -0.01433  -0.01455   1.91308
   A24        1.81423   0.00209   0.00000   0.04285   0.04278   1.85701
   A25        1.94713  -0.00156   0.00000  -0.00564  -0.00618   1.94095
   A26        1.92479  -0.00110   0.00000  -0.03798  -0.03895   1.88584
   A27        1.91242  -0.00540   0.00000  -0.03266  -0.03369   1.87874
   A28        1.90410  -0.00083   0.00000  -0.01966  -0.02046   1.88365
   A29        1.91219   0.00874   0.00000   0.09794   0.09814   2.01033
   A30        1.86120   0.00035   0.00000  -0.00066  -0.00192   1.85928
   A31        1.93987  -0.00174   0.00000  -0.01431  -0.01447   1.92540
   A32        1.95376  -0.00278   0.00000  -0.02054  -0.02071   1.93306
   A33        1.87063   0.00170   0.00000   0.00322   0.00289   1.87352
    D1       -3.13650   0.00018   0.00000   0.00639   0.00643  -3.13007
    D2        0.00721   0.00014   0.00000   0.00527   0.00528   0.01249
    D3        0.00048  -0.00014   0.00000  -0.00574  -0.00573  -0.00526
    D4       -3.13901  -0.00018   0.00000  -0.00686  -0.00688   3.13730
    D5        3.13615  -0.00030   0.00000  -0.01038  -0.01038   3.12577
    D6       -0.00395  -0.00050   0.00000  -0.02111  -0.02106  -0.02501
    D7       -0.00064   0.00003   0.00000   0.00221   0.00218   0.00154
    D8       -3.14074  -0.00018   0.00000  -0.00852  -0.00851   3.13394
    D9       -0.00020   0.00012   0.00000   0.00406   0.00403   0.00383
   D10       -3.13850  -0.00007   0.00000  -0.00251  -0.00254  -3.14105
   D11        3.13928   0.00015   0.00000   0.00517   0.00517  -3.13874
   D12        0.00097  -0.00004   0.00000  -0.00140  -0.00140  -0.00043
   D13        0.00009   0.00003   0.00000   0.00118   0.00111   0.00120
   D14       -3.13689  -0.00024   0.00000  -0.00848  -0.00856   3.13774
   D15        3.13839   0.00021   0.00000   0.00773   0.00771  -3.13708
   D16        0.00141  -0.00005   0.00000  -0.00193  -0.00195  -0.00054
   D17       -0.00026  -0.00014   0.00000  -0.00471  -0.00475  -0.00502
   D18       -3.13327  -0.00025   0.00000  -0.00924  -0.00930   3.14061
   D19        3.13672   0.00012   0.00000   0.00494   0.00490  -3.14156
   D20        0.00371   0.00002   0.00000   0.00041   0.00035   0.00406
   D21        0.00054   0.00011   0.00000   0.00299   0.00307   0.00361
   D22        3.14068   0.00031   0.00000   0.01339   0.01332  -3.12918
   D23        3.13348   0.00025   0.00000   0.00772   0.00774   3.14122
   D24       -0.00956   0.00045   0.00000   0.01812   0.01799   0.00843
   D25       -1.68701  -0.00003   0.00000  -0.02372  -0.02368  -1.71070
   D26        2.47556   0.00182   0.00000  -0.00378  -0.00357   2.47199
   D27        0.50414  -0.00248   0.00000  -0.06154  -0.06155   0.44259
   D28        1.45607  -0.00023   0.00000  -0.03438  -0.03451   1.42157
   D29       -0.66454   0.00162   0.00000  -0.01444  -0.01439  -0.67893
   D30       -2.63596  -0.00268   0.00000  -0.07220  -0.07237  -2.70834
   D31        1.02551  -0.00322   0.00000  -0.05071  -0.05024   0.97527
   D32       -1.09340  -0.00036   0.00000   0.00419   0.00441  -1.08899
   D33       -3.13701   0.00308   0.00000   0.04684   0.04636  -3.09064
   D34        3.14112  -0.00386   0.00000  -0.06087  -0.06037   3.08076
   D35        1.02221  -0.00100   0.00000  -0.00596  -0.00572   1.01649
   D36       -1.02140   0.00245   0.00000   0.03669   0.03624  -0.98516
   D37       -1.16299  -0.00193   0.00000  -0.02170  -0.02147  -1.18446
   D38        3.00128   0.00093   0.00000   0.03320   0.03318   3.03446
   D39        0.95767   0.00437   0.00000   0.07585   0.07514   1.03281
   D40        0.78663   0.00146   0.00000   0.07986   0.08009   0.86671
   D41        2.87784   0.00054   0.00000   0.06024   0.06065   2.93849
   D42        2.91750  -0.00152   0.00000   0.01487   0.01480   2.93230
   D43       -1.27448  -0.00243   0.00000  -0.00474  -0.00464  -1.27912
   D44       -1.33418   0.00335   0.00000   0.05803   0.05761  -1.27657
   D45        0.75703   0.00243   0.00000   0.03842   0.03817   0.79520
         Item               Value     Threshold  Converged?
 Maximum Force            0.012216     0.000450     NO 
 RMS     Force            0.003188     0.000300     NO 
 Maximum Displacement     0.219326     0.001800     NO 
 RMS     Displacement     0.055981     0.001200     NO 
 Predicted change in Energy=-3.006009D-03
 GradGradGradGradGradGradGradGradGradGradGradGradGradGradGradGradGradGrad

                          Input orientation:                          
 ---------------------------------------------------------------------
 Center     Atomic      Atomic             Coordinates (Angstroms)
 Number     Number       Type             X           Y           Z
 ---------------------------------------------------------------------
      1         17           0       -0.008476    2.610983    1.085868
      2          6           0       -0.854455    1.223766    0.432189
      3          6           0       -2.113040    1.440182   -0.131732
      4          6           0       -2.834079    0.369681   -0.653221
      5          6           0       -2.296740   -0.915088   -0.605339
      6          6           0       -1.041447   -1.117911   -0.033953
      7          6           0       -0.294049   -0.060663    0.492987
      8          6           0        1.070377   -0.344256    1.085646
      9          6           0        2.178161   -0.453428    0.036623
     10          7           0        2.242739    0.751212   -0.792753
     11          1           0       -2.521274    2.444774   -0.160452
     12          1           0       -3.811754    0.542621   -1.091052
     13          1           0       -2.854168   -1.755938   -1.006610
     14          1           0       -0.622872   -2.118860    0.004364
     15          1           0        1.024638   -1.292095    1.634556
     16          1           0        1.332984    0.424721    1.818424
     17          1           0        1.943833   -1.302225   -0.618297
     18          1           0        3.113481   -0.711906    0.563293
     19          1           0        2.260803    1.580886   -0.208348
     20          1           0        3.088738    0.757243   -1.352794
 ---------------------------------------------------------------------
                    Distance matrix (angstroms):
                    1          2          3          4          5
     1  Cl   0.000000
     2  C    1.751385   0.000000
     3  C    2.698614   1.396023   0.000000
     4  C    4.003985   2.413811   1.392055   0.000000
     5  C    4.530951   2.780530   2.409429   1.393433   0.000000
     6  C    4.028111   2.394933   2.775196   2.410384   1.394052
     7  C    2.751500   1.402679   2.439578   2.819705   2.438675
     8  C    3.146007   2.567231   3.847125   4.333375   3.810874
     9  C    3.908058   3.488010   4.693454   5.126006   4.544226
    10  N    3.472165   3.363985   4.459197   5.093045   4.839272
    11  H    2.809821   2.149505   1.084751   2.155616   3.396618
    12  H    4.845826   3.395562   2.147449   1.085105   2.157799
    13  H    5.616621   3.866217   3.395566   2.154889   1.085713
    14  H    4.890660   3.377841   3.860816   3.393330   2.150032
    15  H    4.074605   3.362474   4.519971   4.783839   4.023781
    16  H    2.667564   2.710167   4.087708   4.845252   4.565590
    17  H    4.693495   3.913383   4.920952   5.062107   4.258228
    18  H    4.589259   4.416846   5.694828   6.166295   5.538725
    19  H    2.808153   3.200415   4.376777   5.255735   5.211400
    20  H    4.356163   4.353456   5.386640   5.976568   5.688475
                    6          7          8          9         10
     6  C    0.000000
     7  C    1.397871   0.000000
     8  C    2.512339   1.514374   0.000000
     9  C    3.288220   2.544476   1.529561   0.000000
    10  N    3.854254   2.957627   2.470398   1.463965   0.000000
    11  H    3.859873   3.415367   4.715019   5.524772   5.095466
    12  H    3.398445   3.904789   5.418465   6.175990   6.065425
    13  H    2.153857   3.417157   4.666095   5.301812   5.684189
    14  H    1.085620   2.140806   2.680575   3.258910   4.133332
    15  H    2.661384   2.135074   1.096264   2.141815   3.398633
    16  H    3.383627   2.153977   1.094189   2.158770   2.784330
    17  H    3.047511   2.790080   2.141041   1.097400   2.082399
    18  H    4.217222   3.469916   2.140629   1.104090   2.176642
    19  H    4.268346   3.116701   2.607241   2.050677   1.014995
    20  H    4.723766   3.939432   3.351578   2.055566   1.014592
                   11         12         13         14         15
    11  H    0.000000
    12  H    2.479827   0.000000
    13  H    4.297998   2.491480   0.000000
    14  H    4.945488   4.295624   2.476381   0.000000
    15  H    5.455249   5.846863   4.715511   2.460763   0.000000
    16  H    4.780363   5.911622   5.501666   3.685918   1.753950
    17  H    5.846949   6.062486   4.835024   2.764521   2.433182
    18  H    6.499146   7.229770   6.258389   4.031408   2.418158
    19  H    4.859718   6.223593   6.159103   4.695631   3.630210
    20  H    5.978434   6.908788   6.461738   4.887729   4.169479
                   16         17         18         19         20
    16  H    0.000000
    17  H    3.048457   0.000000
    18  H    2.457121   1.764287   0.000000
    19  H    2.511050   2.929311   2.565032   0.000000
    20  H    3.640037   2.468138   2.414623   1.635121   0.000000
 Stoichiometry    C8H10ClN
 Framework group  C1[X(C8H10ClN)]
 Deg. of freedom    54
 Full point group                 C1      NOp   1
 Largest Abelian subgroup         C1      NOp   1
 Largest concise Abelian subgroup C1      NOp   1
                         Standard orientation:                         
 ---------------------------------------------------------------------
 Center     Atomic      Atomic             Coordinates (Angstroms)
 Number     Number       Type             X           Y           Z
 ---------------------------------------------------------------------
      1         17           0       -0.457053    2.148262   -0.250331
      2          6           0        0.551598    0.723153   -0.112362
      3          6           0        1.856635    0.896652    0.352029
      4          6           0        2.704706   -0.201196    0.467459
      5          6           0        2.247107   -1.468971    0.113895
      6          6           0        0.943510   -1.627097   -0.354094
      7          6           0        0.069476   -0.542972   -0.475671
      8          6           0       -1.339822   -0.783049   -0.975240
      9          6           0       -2.293292   -1.282514    0.111491
     10          7           0       -2.325048   -0.364137    1.251126
     11          1           0        2.201513    1.889201    0.621455
     12          1           0        3.718133   -0.061742    0.829357
     13          1           0        2.903327   -2.329870    0.197565
     14          1           0        0.586927   -2.614521   -0.630523
     15          1           0       -1.306419   -1.534617   -1.772626
     16          1           0       -1.742759    0.128595   -1.426680
     17          1           0       -1.923438   -2.251859    0.469075
     18          1           0       -3.270968   -1.475310   -0.363897
     19          1           0       -2.470554    0.588397    0.932189
     20          1           0       -3.090036   -0.593811    1.876779
 ---------------------------------------------------------------------
 Rotational constants (GHZ):           1.4481590           1.0300582           0.6940829
 Standard basis: 6-31G(d,p) (6D, 7F)
 There are   204 symmetry adapted cartesian basis functions of A   symmetry.
 There are   204 symmetry adapted basis functions of A   symmetry.
   204 basis functions,   374 primitive gaussians,   204 cartesian basis functions
    41 alpha electrons       41 beta electrons
       nuclear repulsion energy       589.0260908546 Hartrees.
 NAtoms=   20 NActive=   20 NUniq=   20 SFac= 1.00D+00 NAtFMM=   60 NAOKFM=F Big=F
 Integral buffers will be    131072 words long.
 Raffenetti 2 integral format.
 Two-electron integral symmetry is turned on.
 Nuclear repulsion after empirical dispersion term =      588.9865133070 Hartrees.
 One-electron integrals computed using PRISM.
 NBasis=   204 RedAO= T EigKep=  4.38D-04  NBF=   204
 NBsUse=   204 1.00D-06 EigRej= -1.00D+00 NBFU=   204
 Initial guess from the checkpoint file:  "N3_conf-8.chk"
 B after Tr=     0.000000    0.000000    0.000000
         Rot=    0.999927   -0.008725   -0.005847    0.005939 Ang=  -1.38 deg.
 ExpMin= 1.43D-01 ExpMax= 2.52D+04 ExpMxC= 3.78D+03 IAcc=3 IRadAn=         5 AccDes= 0.00D+00
 Harris functional with IExCor=  402 and IRadAn=       5 diagonalized for initial guess.
 HarFok:  IExCor=  402 AccDes= 0.00D+00 IRadAn=         5 IDoV= 1 UseB2=F ITyADJ=14
 ICtDFT=  3500011 ScaDFX=  1.000000  1.000000  1.000000  1.000000
 FoFCou: FMM=F IPFlag=           0 FMFlag=      100000 FMFlg1=           0
         NFxFlg=           0 DoJE=T BraDBF=F KetDBF=T FulRan=T
         wScrn=  0.000000 ICntrl=       500 IOpCl=  0 I1Cent=   200000004 NGrid=           0
         NMat0=    1 NMatS0=      1 NMatT0=    0 NMatD0=    1 NMtDS0=    0 NMtDT0=    0
 Petite list used in FoFCou.
 Requested convergence on RMS density matrix=1.00D-08 within 128 cycles.
 Requested convergence on MAX density matrix=1.00D-06.
 Requested convergence on             energy=1.00D-06.
 No special actions if energy rises.
 Integral accuracy reduced to 1.0D-05 until final iterations.
 Initial convergence to 1.0D-05 achieved.  Increase integral accuracy.
 SCF Done:  E(RB3LYP) =  -825.870606749     A.U. after   12 cycles
            NFock= 12  Conv=0.42D-08     -V/T= 2.0061
 Calling FoFJK, ICntrl=      2127 FMM=F ISym2X=0 I1Cent= 0 IOpClX= 0 NMat=1 NMatS=1 NMatT=0.
 ***** Axes restored to original set *****
 -------------------------------------------------------------------
 Center     Atomic                   Forces (Hartrees/Bohr)
 Number     Number              X              Y              Z
 -------------------------------------------------------------------
      1       17           0.002908424    0.004409897    0.001878704
      2        6          -0.006331472   -0.008068733   -0.003667140
      3        6           0.000393800    0.002411475    0.000415578
      4        6           0.000469208   -0.000380832    0.000094616
      5        6           0.001014346   -0.001293446    0.000131566
      6        6          -0.004015158    0.000975874   -0.002313801
      7        6           0.005672886    0.002365001    0.003442238
      8        6          -0.004193518    0.000081772    0.002714327
      9        6           0.000394733    0.000097539   -0.003359528
     10        7          -0.001649494   -0.001919995    0.001427604
     11        1           0.000554843   -0.000183396    0.000228042
     12        1          -0.000055858    0.000169012   -0.000009608
     13        1           0.000260823    0.000026738    0.000157672
     14        1           0.000419320   -0.000478645    0.000401575
     15        1           0.000300899    0.000210031   -0.000328504
     16        1          -0.000151253    0.000332283   -0.000553760
     17        1           0.001086963   -0.000334786   -0.000855678
     18        1           0.000712335    0.001225290   -0.000126311
     19        1           0.001597260    0.000791082    0.001012579
     20        1           0.000610914   -0.000436161   -0.000690171
 -------------------------------------------------------------------
 Cartesian Forces:  Max     0.008068733 RMS     0.002188151

 GradGradGradGradGradGradGradGradGradGradGradGradGradGradGradGradGradGrad
 Berny optimization.
 Using GEDIIS/GDIIS optimizer.
 FormGI is forming the generalized inverse of G from B-inverse, IUseBI=4.
 Internal  Forces:  Max     0.005598774 RMS     0.000999529
 Search for a local minimum.
 Step number   2 out of a maximum of  108
 All quantities printed in internal units (Hartrees-Bohrs-Radians)
 Mixed Optimization -- En-DIIS/RFO-DIIS
 Update second derivatives using D2CorX and points    1    2
 DE= -2.97D-03 DEPred=-3.01D-03 R= 9.86D-01
 TightC=F SS=  1.41D+00  RLast= 2.63D-01 DXNew= 5.0454D-01 7.8985D-01
 Trust test= 9.86D-01 RLast= 2.63D-01 DXMaxT set to 5.05D-01
 ITU=  1  0
 Use linear search instead of GDIIS.
     Eigenvalues ---    0.00229   0.00376   0.00952   0.01351   0.02047
     Eigenvalues ---    0.02078   0.02120   0.02135   0.02151   0.02161
     Eigenvalues ---    0.02162   0.02166   0.03847   0.04260   0.04523
     Eigenvalues ---    0.05298   0.05612   0.09347   0.09805   0.12873
     Eigenvalues ---    0.12981   0.15708   0.16000   0.16000   0.16000
     Eigenvalues ---    0.16000   0.16027   0.21263   0.21907   0.21991
     Eigenvalues ---    0.22389   0.22828   0.24986   0.24996   0.28758
     Eigenvalues ---    0.29532   0.31046   0.34535   0.34636   0.34821
     Eigenvalues ---    0.34958   0.35926   0.35940   0.35970   0.36112
     Eigenvalues ---    0.38878   0.41644   0.42010   0.45220   0.45519
     Eigenvalues ---    0.45844   0.46198   0.46552   0.46679
 RFO step:  Lambda=-7.27771132D-04 EMin= 2.29406846D-03
 Quartic linear search produced a step of  0.05219.
 Iteration  1 RMS(Cart)=  0.03309132 RMS(Int)=  0.00124167
 Iteration  2 RMS(Cart)=  0.00134470 RMS(Int)=  0.00003507
 Iteration  3 RMS(Cart)=  0.00000139 RMS(Int)=  0.00003505
 Iteration  4 RMS(Cart)=  0.00000000 RMS(Int)=  0.00003505
 Variable       Old X    -DE/DX   Delta X   Delta X   Delta X     New X
                                 (Linear)    (Quad)   (Total)
    R1        3.30964   0.00560   0.00194   0.02049   0.02242   3.33206
    R2        2.63810  -0.00130   0.00001  -0.00295  -0.00293   2.63517
    R3        2.65068  -0.00113  -0.00042  -0.00325  -0.00365   2.64703
    R4        2.63060   0.00033  -0.00025   0.00048   0.00022   2.63082
    R5        2.04988  -0.00038   0.00049  -0.00053  -0.00004   2.04984
    R6        2.63321   0.00050  -0.00004   0.00114   0.00109   2.63429
    R7        2.05055   0.00008   0.00047   0.00081   0.00128   2.05184
    R8        2.63438  -0.00137  -0.00009  -0.00317  -0.00327   2.63110
    R9        2.05170  -0.00021   0.00050  -0.00001   0.00049   2.05219
   R10        2.64159   0.00203  -0.00022   0.00436   0.00414   2.64574
   R11        2.05152   0.00062   0.00053   0.00244   0.00297   2.05449
   R12        2.86175  -0.00147  -0.00153  -0.00707  -0.00859   2.85316
   R13        2.89045   0.00381  -0.00119   0.01264   0.01145   2.90190
   R14        2.07164  -0.00036   0.00059  -0.00037   0.00022   2.07185
   R15        2.06772  -0.00017   0.00044   0.00001   0.00046   2.06818
   R16        2.76649  -0.00225   0.00106  -0.00496  -0.00390   2.76259
   R17        2.07379   0.00054   0.00051   0.00224   0.00275   2.07653
   R18        2.08643   0.00026   0.00120   0.00222   0.00341   2.08984
   R19        1.91806   0.00126   0.00026   0.00321   0.00346   1.92153
   R20        1.91730   0.00089   0.00041   0.00253   0.00294   1.92024
    A1        2.05269  -0.00105  -0.00048  -0.00483  -0.00536   2.04733
    A2        2.11313  -0.00143  -0.00083  -0.00682  -0.00770   2.10543
    A3        2.11724   0.00249   0.00130   0.01187   0.01318   2.13042
    A4        2.09334  -0.00095  -0.00048  -0.00510  -0.00557   2.08777
    A5        2.08696  -0.00003   0.00002  -0.00103  -0.00102   2.08594
    A6        2.10288   0.00098   0.00047   0.00613   0.00659   2.10947
    A7        2.09027   0.00001  -0.00009   0.00013   0.00002   2.09030
    A8        2.08895  -0.00017  -0.00027  -0.00150  -0.00176   2.08719
    A9        2.10395   0.00016   0.00037   0.00137   0.00174   2.10570
   A10        2.08917  -0.00028  -0.00027  -0.00147  -0.00176   2.08741
   A11        2.09831   0.00037   0.00017   0.00225   0.00242   2.10073
   A12        2.09569  -0.00008   0.00010  -0.00078  -0.00067   2.09502
   A13        2.12459   0.00110   0.00105   0.00648   0.00753   2.13211
   A14        2.08955  -0.00019   0.00036   0.00017   0.00052   2.09007
   A15        2.06904  -0.00091  -0.00140  -0.00664  -0.00804   2.06100
   A16        2.05174  -0.00236  -0.00150  -0.01190  -0.01339   2.03834
   A17        2.15126   0.00159   0.00114   0.00807   0.00916   2.16042
   A18        2.08016   0.00077   0.00037   0.00373   0.00405   2.08421
   A19        1.97959  -0.00028  -0.00141  -0.00395  -0.00539   1.97419
   A20        1.89682   0.00024   0.00054   0.00276   0.00328   1.90009
   A21        1.92487  -0.00000   0.00012  -0.00114  -0.00107   1.92380
   A22        1.88800  -0.00014  -0.00040  -0.00169  -0.00208   1.88592
   A23        1.91308   0.00001  -0.00076  -0.00209  -0.00288   1.91021
   A24        1.85701   0.00020   0.00223   0.00687   0.00910   1.86611
   A25        1.94095   0.00021  -0.00032   0.00043   0.00007   1.94102
   A26        1.88584   0.00057  -0.00203   0.00894   0.00685   1.89269
   A27        1.87874   0.00070  -0.00176   0.00148  -0.00034   1.87840
   A28        1.88365  -0.00005  -0.00107   0.00147   0.00035   1.88400
   A29        2.01033  -0.00133   0.00512  -0.01183  -0.00670   2.00363
   A30        1.85928  -0.00000  -0.00010   0.00083   0.00065   1.85993
   A31        1.92540  -0.00059  -0.00076  -0.00806  -0.00889   1.91651
   A32        1.93306  -0.00052  -0.00108  -0.00798  -0.00914   1.92392
   A33        1.87352   0.00000   0.00015  -0.00626  -0.00626   1.86726
    D1       -3.13007  -0.00025   0.00034  -0.01255  -0.01222   3.14089
    D2        0.01249  -0.00021   0.00028  -0.01042  -0.01016   0.00233
    D3       -0.00526   0.00007  -0.00030   0.00264   0.00236  -0.00290
    D4        3.13730   0.00011  -0.00036   0.00477   0.00442  -3.14146
    D5        3.12577   0.00026  -0.00054   0.01354   0.01297   3.13874
    D6       -0.02501   0.00009  -0.00110   0.00062  -0.00047  -0.02548
    D7        0.00154  -0.00009   0.00011  -0.00220  -0.00212  -0.00058
    D8        3.13394  -0.00025  -0.00044  -0.01512  -0.01556   3.11838
    D9        0.00383  -0.00002   0.00021  -0.00106  -0.00083   0.00300
   D10       -3.14105  -0.00001  -0.00013  -0.00046  -0.00059   3.14155
   D11       -3.13874  -0.00006   0.00027  -0.00321  -0.00293   3.14151
   D12       -0.00043  -0.00005  -0.00007  -0.00261  -0.00269  -0.00312
   D13        0.00120  -0.00003   0.00006  -0.00089  -0.00084   0.00036
   D14        3.13774  -0.00003  -0.00045  -0.00125  -0.00171   3.13602
   D15       -3.13708  -0.00004   0.00040  -0.00150  -0.00108  -3.13817
   D16       -0.00054  -0.00004  -0.00010  -0.00185  -0.00196  -0.00250
   D17       -0.00502   0.00001  -0.00025   0.00127   0.00100  -0.00401
   D18        3.14061  -0.00004  -0.00049  -0.00210  -0.00262   3.13799
   D19       -3.14156   0.00001   0.00026   0.00162   0.00187  -3.13970
   D20        0.00406  -0.00004   0.00002  -0.00176  -0.00176   0.00230
   D21        0.00361   0.00005   0.00016   0.00026   0.00045   0.00406
   D22       -3.12918   0.00020   0.00070   0.01261   0.01324  -3.11594
   D23        3.14122   0.00010   0.00040   0.00362   0.00404  -3.13793
   D24        0.00843   0.00026   0.00094   0.01596   0.01682   0.02525
   D25       -1.71070   0.00008  -0.00124   0.00644   0.00524  -1.70545
   D26        2.47199   0.00027  -0.00019   0.00919   0.00907   2.48106
   D27        0.44259  -0.00010  -0.00321  -0.00004  -0.00321   0.43938
   D28        1.42157  -0.00010  -0.00180  -0.00676  -0.00861   1.41296
   D29       -0.67893   0.00009  -0.00075  -0.00400  -0.00479  -0.68372
   D30       -2.70834  -0.00029  -0.00378  -0.01324  -0.01707  -2.72540
   D31        0.97527   0.00055  -0.00262   0.05426   0.05167   1.02694
   D32       -1.08899   0.00014   0.00023   0.04672   0.04696  -1.04203
   D33       -3.09064  -0.00049   0.00242   0.04054   0.04293  -3.04771
   D34        3.08076   0.00058  -0.00315   0.05405   0.05093   3.13169
   D35        1.01649   0.00017  -0.00030   0.04651   0.04622   1.06272
   D36       -0.98516  -0.00046   0.00189   0.04032   0.04219  -0.94296
   D37       -1.18446   0.00075  -0.00112   0.06016   0.05905  -1.12541
   D38        3.03446   0.00034   0.00173   0.05262   0.05434   3.08881
   D39        1.03281  -0.00030   0.00392   0.04644   0.05032   1.08313
   D40        0.86671   0.00072   0.00418   0.06373   0.06789   0.93460
   D41        2.93849   0.00002   0.00317   0.04582   0.04905   2.98754
   D42        2.93230   0.00150   0.00077   0.07576   0.07649   3.00879
   D43       -1.27912   0.00080  -0.00024   0.05786   0.05766  -1.22146
   D44       -1.27657   0.00063   0.00301   0.07044   0.07338  -1.20319
   D45        0.79520  -0.00007   0.00199   0.05253   0.05455   0.84975
         Item               Value     Threshold  Converged?
 Maximum Force            0.005599     0.000450     NO 
 RMS     Force            0.001000     0.000300     NO 
 Maximum Displacement     0.219824     0.001800     NO 
 RMS     Displacement     0.032933     0.001200     NO 
 Predicted change in Energy=-3.882831D-04
 GradGradGradGradGradGradGradGradGradGradGradGradGradGradGradGradGradGrad

                          Input orientation:                          
 ---------------------------------------------------------------------
 Center     Atomic      Atomic             Coordinates (Angstroms)
 Number     Number       Type             X           Y           Z
 ---------------------------------------------------------------------
      1         17           0       -0.016489    2.619812    1.072695
      2          6           0       -0.870420    1.215888    0.433278
      3          6           0       -2.123944    1.434749   -0.137097
      4          6           0       -2.840112    0.360387   -0.657661
      5          6           0       -2.300306   -0.923619   -0.601098
      6          6           0       -1.048661   -1.118605   -0.023241
      7          6           0       -0.299214   -0.061037    0.505963
      8          6           0        1.065948   -0.338153    1.088303
      9          6           0        2.165352   -0.447627    0.021786
     10          7           0        2.262750    0.780342   -0.765461
     11          1           0       -2.526947    2.441241   -0.171728
     12          1           0       -3.816116    0.531412   -1.101615
     13          1           0       -2.852785   -1.769403   -0.999538
     14          1           0       -0.626788   -2.119433    0.025216
     15          1           0        1.030924   -1.285704    1.638724
     16          1           0        1.334471    0.439640    1.809907
     17          1           0        1.906293   -1.268234   -0.661568
     18          1           0        3.099390   -0.746101    0.533152
     19          1           0        2.377129    1.578582   -0.146051
     20          1           0        3.082925    0.749564   -1.364566
 ---------------------------------------------------------------------
                    Distance matrix (angstroms):
                    1          2          3          4          5
     1  Cl   0.000000
     2  C    1.763252   0.000000
     3  C    2.703579   1.394472   0.000000
     4  C    4.008987   2.408675   1.392170   0.000000
     5  C    4.535781   2.773445   2.410042   1.394009   0.000000
     6  C    4.030163   2.385379   2.772871   2.408153   1.392320
     7  C    2.754646   1.400749   2.445515   2.826266   2.444177
     8  C    3.149837   2.567805   3.849701   4.335164   3.811628
     9  C    3.908200   3.486046   4.686859   5.115584   4.533945
    10  N    3.457947   3.382814   4.479529   5.121248   4.873600
    11  H    2.807645   2.147464   1.084728   2.159666   3.399707
    12  H    4.850382   3.391390   2.147035   1.085785   2.159933
    13  H    5.621738   3.859364   3.397294   2.157092   1.085973
    14  H    4.891842   3.369011   3.860057   3.393322   2.150094
    15  H    4.082955   3.365438   4.528532   4.792486   4.030509
    16  H    2.668656   2.712787   4.091663   4.849981   4.569795
    17  H    4.671367   3.883258   4.880984   5.018046   4.221125
    18  H    4.618352   4.429307   5.699873   6.157924   5.520394
    19  H    2.880783   3.318696   4.503380   5.381946   5.324141
    20  H    4.363993   4.367910   5.393296   5.977754   5.688726
                    6          7          8          9         10
     6  C    0.000000
     7  C    1.400063   0.000000
     8  C    2.513205   1.509827   0.000000
     9  C    3.283613   2.541252   1.535621   0.000000
    10  N    3.888744   2.981291   2.473825   1.461900   0.000000
    11  H    3.857444   3.418107   4.713979   5.513680   5.104145
    12  H    3.397684   3.912020   5.420925   6.164293   6.093240
    13  H    2.152106   3.421370   4.665192   5.288846   5.720550
    14  H    1.087190   2.139022   2.677399   3.254380   4.169328
    15  H    2.667344   2.133594   1.096377   2.145644   3.400890
    16  H    3.386425   2.149389   1.094432   2.162171   2.758677
    17  H    3.026814   2.772132   2.152505   1.098854   2.081951
    18  H    4.201744   3.467067   2.146974   1.105897   2.171725
    19  H    4.361873   3.205664   2.629962   2.044148   1.016828
    20  H    4.728552   3.949027   3.356768   2.048702   1.016150
                   11         12         13         14         15
    11  H    0.000000
    12  H    2.484773   0.000000
    13  H    4.303599   2.496432   0.000000
    14  H    4.944607   4.297504   2.475420   0.000000
    15  H    5.461346   5.857061   4.719914   2.458967   0.000000
    16  H    4.779522   5.917257   5.505086   3.685175   1.760187
    17  H    5.801187   6.014843   4.797314   2.759114   2.461285
    18  H    6.504741   7.220022   6.230945   4.003553   2.406660
    19  H    4.979437   6.353420   6.268129   4.767407   3.633432
    20  H    5.979573   6.907495   6.458412   4.891279   4.168067
                   16         17         18         19         20
    16  H    0.000000
    17  H    3.058105   0.000000
    18  H    2.480125   1.767331   0.000000
    19  H    2.492006   2.931179   2.527277   0.000000
    20  H    3.637365   2.439299   2.416324   1.634074   0.000000
 Stoichiometry    C8H10ClN
 Framework group  C1[X(C8H10ClN)]
 Deg. of freedom    54
 Full point group                 C1      NOp   1
 Largest Abelian subgroup         C1      NOp   1
 Largest concise Abelian subgroup C1      NOp   1
                         Standard orientation:                         
 ---------------------------------------------------------------------
 Center     Atomic      Atomic             Coordinates (Angstroms)
 Number     Number       Type             X           Y           Z
 ---------------------------------------------------------------------
      1         17           0       -0.472232    2.145090   -0.250156
      2          6           0        0.557124    0.719375   -0.120457
      3          6           0        1.854832    0.908355    0.353663
      4          6           0        2.708602   -0.184442    0.476174
      5          6           0        2.260696   -1.455840    0.120945
      6          6           0        0.962140   -1.619752   -0.353861
      7          6           0        0.075559   -0.544234   -0.485812
      8          6           0       -1.329868   -0.797570   -0.975888
      9          6           0       -2.270707   -1.304153    0.126985
     10          7           0       -2.354036   -0.349423    1.230931
     11          1           0        2.184762    1.905441    0.624959
     12          1           0        3.718945   -0.036671    0.845362
     13          1           0        2.920152   -2.314284    0.207723
     14          1           0        0.611345   -2.609701   -0.634800
     15          1           0       -1.297851   -1.553799   -1.769069
     16          1           0       -1.745522    0.112309   -1.419883
     17          1           0       -1.866266   -2.245782    0.523525
     18          1           0       -3.239042   -1.551484   -0.346472
     19          1           0       -2.605484    0.568913    0.874038
     20          1           0       -3.085117   -0.625944    1.880252
 ---------------------------------------------------------------------
 Rotational constants (GHZ):           1.4502628           1.0255824           0.6917475
 Standard basis: 6-31G(d,p) (6D, 7F)
 There are   204 symmetry adapted cartesian basis functions of A   symmetry.
 There are   204 symmetry adapted basis functions of A   symmetry.
   204 basis functions,   374 primitive gaussians,   204 cartesian basis functions
    41 alpha electrons       41 beta electrons
       nuclear repulsion energy       588.3906224504 Hartrees.
 NAtoms=   20 NActive=   20 NUniq=   20 SFac= 1.00D+00 NAtFMM=   60 NAOKFM=F Big=F
 Integral buffers will be    131072 words long.
 Raffenetti 2 integral format.
 Two-electron integral symmetry is turned on.
 Nuclear repulsion after empirical dispersion term =      588.3511302905 Hartrees.
 One-electron integrals computed using PRISM.
 NBasis=   204 RedAO= T EigKep=  4.36D-04  NBF=   204
 NBsUse=   204 1.00D-06 EigRej= -1.00D+00 NBFU=   204
 Initial guess from the checkpoint file:  "N3_conf-8.chk"
 B after Tr=    -0.000000   -0.000000   -0.000000
         Rot=    0.999991    0.001690    0.001425   -0.003495 Ang=   0.47 deg.
 ExpMin= 1.43D-01 ExpMax= 2.52D+04 ExpMxC= 3.78D+03 IAcc=3 IRadAn=         5 AccDes= 0.00D+00
 Harris functional with IExCor=  402 and IRadAn=       5 diagonalized for initial guess.
 HarFok:  IExCor=  402 AccDes= 0.00D+00 IRadAn=         5 IDoV= 1 UseB2=F ITyADJ=14
 ICtDFT=  3500011 ScaDFX=  1.000000  1.000000  1.000000  1.000000
 FoFCou: FMM=F IPFlag=           0 FMFlag=      100000 FMFlg1=           0
         NFxFlg=           0 DoJE=T BraDBF=F KetDBF=T FulRan=T
         wScrn=  0.000000 ICntrl=       500 IOpCl=  0 I1Cent=   200000004 NGrid=           0
         NMat0=    1 NMatS0=      1 NMatT0=    0 NMatD0=    1 NMtDS0=    0 NMtDT0=    0
 Petite list used in FoFCou.
 Requested convergence on RMS density matrix=1.00D-08 within 128 cycles.
 Requested convergence on MAX density matrix=1.00D-06.
 Requested convergence on             energy=1.00D-06.
 No special actions if energy rises.
 Integral accuracy reduced to 1.0D-05 until final iterations.
 Initial convergence to 1.0D-05 achieved.  Increase integral accuracy.
 SCF Done:  E(RB3LYP) =  -825.871059033     A.U. after   11 cycles
            NFock= 11  Conv=0.52D-08     -V/T= 2.0061
 Calling FoFJK, ICntrl=      2127 FMM=F ISym2X=0 I1Cent= 0 IOpClX= 0 NMat=1 NMatS=1 NMatT=0.
 ***** Axes restored to original set *****
 -------------------------------------------------------------------
 Center     Atomic                   Forces (Hartrees/Bohr)
 Number     Number              X              Y              Z
 -------------------------------------------------------------------
      1       17           0.000553658    0.001138028    0.000740593
      2        6          -0.000885755   -0.001775338   -0.001229869
      3        6           0.000162652    0.001123365    0.000290196
      4        6          -0.000582426    0.000119754   -0.000193495
      5        6           0.000233882   -0.000526270    0.000108686
      6        6          -0.000713115   -0.001209534   -0.000423232
      7        6           0.000674679    0.001561982    0.000375040
      8        6          -0.001262233   -0.000164671    0.000390458
      9        6           0.000533515   -0.001197771   -0.000726217
     10        7          -0.000585932   -0.000263102    0.001348785
     11        1           0.000290132   -0.000512631    0.000088558
     12        1           0.000298085   -0.000138382    0.000093127
     13        1           0.000296136    0.000343308    0.000140703
     14        1          -0.000250555    0.000096853   -0.000069530
     15        1           0.000224743    0.000571272   -0.000079906
     16        1           0.000111085   -0.000476902   -0.000199620
     17        1           0.000739010    0.000444411    0.000304135
     18        1          -0.000312140    0.000848510   -0.000247914
     19        1           0.000816817    0.000154216   -0.000208014
     20        1          -0.000342240   -0.000137098   -0.000502483
 -------------------------------------------------------------------
 Cartesian Forces:  Max     0.001775338 RMS     0.000650872

 GradGradGradGradGradGradGradGradGradGradGradGradGradGradGradGradGradGrad
 Berny optimization.
 Using GEDIIS/GDIIS optimizer.
 FormGI is forming the generalized inverse of G from B-inverse, IUseBI=4.
 Internal  Forces:  Max     0.001442550 RMS     0.000325604
 Search for a local minimum.
 Step number   3 out of a maximum of  108
 All quantities printed in internal units (Hartrees-Bohrs-Radians)
 Mixed Optimization -- En-DIIS/RFO-DIIS
 Swapping is turned off.
 Update second derivatives using D2CorX and points    1    2    3
 DE= -4.52D-04 DEPred=-3.88D-04 R= 1.16D+00
[...]
   XX=    28.1084   YX=    -3.9298   ZX=     1.3104
   XY=    -3.1540   YY=    22.4772   ZY=    -0.1961
   XZ=     0.9500   YZ=     0.0270   ZZ=    21.0160
   Eigenvalues:    20.4129    21.2463    29.9423
     15  H    Isotropic =    29.2945   Anisotropy =     8.4951
   XX=    27.7284   YX=     0.0159   ZX=     0.1428
   XY=    -0.7751   YY=    28.5288   ZY=     3.8240
   XZ=     1.1578   YZ=     5.4046   ZZ=    31.6264
   Eigenvalues:    25.0341    27.8916    34.9580
     16  H    Isotropic =    28.5676   Anisotropy =     4.4481
   XX=    27.2006   YX=    -0.1387   ZX=     2.2729
   XY=     1.3436   YY=    31.1187   ZY=    -0.7608
   XZ=     3.4327   YZ=    -1.7654   ZZ=    27.3834
   Eigenvalues:    24.1881    29.9816    31.5329
     17  H    Isotropic =    29.2452   Anisotropy =     7.7860
   XX=    26.8575   YX=    -0.3785   ZX=    -0.4848
   XY=    -0.7596   YY=    34.3787   ZY=    -0.3278
   XZ=    -3.0766   YZ=    -0.5991   ZZ=    26.4994
   Eigenvalues:    24.8337    28.4661    34.4359
     18  H    Isotropic =    28.4612   Anisotropy =     9.1210
   XX=    32.0047   YX=     3.1102   ZX=     1.3349
   XY=     3.8307   YY=    26.5961   ZY=     3.2735
   XZ=     1.1908   YZ=     2.8236   ZZ=    26.7829
   Eigenvalues:    23.2698    27.5720    34.5419
     19  H    Isotropic =    31.5543   Anisotropy =    11.1842
   XX=    28.6772   YX=    -3.6585   ZX=    -1.9484
   XY=    -2.9220   YY=    37.8841   ZY=    -2.9483
   XZ=    -3.3431   YZ=    -0.5312   ZZ=    28.1017
   Eigenvalues:    24.7784    30.8742    39.0104
     20  H    Isotropic =    31.6977   Anisotropy =    16.5623
   XX=    29.5769   YX=     2.5937   ZX=    -7.2388
   XY=     2.1063   YY=    29.1848   ZY=    -1.1247
   XZ=    -9.5518   YZ=    -3.3157   ZZ=    36.3314
   Eigenvalues:    23.8024    28.5514    42.7392
 End of Minotr F.D. properties file   721 does not exist.
 End of Minotr F.D. properties file   722 does not exist.
 End of Minotr F.D. properties file   788 does not exist.

 **********************************************************************

            Population analysis using the SCF Density.

 **********************************************************************

 Orbital symmetries:
       Occupied  (A) (A) (A) (A) (A) (A) (A) (A) (A) (A) (A) (A)
                 (A) (A) (A) (A) (A) (A) (A) (A) (A) (A) (A) (A)
                 (A) (A) (A) (A) (A) (A) (A) (A) (A) (A) (A) (A)
                 (A) (A) (A) (A) (A)
       Virtual   (A) (A) (A) (A) (A) (A) (A) (A) (A) (A) (A) (A)
                 (A) (A) (A) (A) (A) (A) (A) (A) (A) (A) (A) (A)
                 (A) (A) (A) (A) (A) (A) (A) (A) (A) (A) (A) (A)
                 (A) (A) (A) (A) (A) (A) (A) (A) (A) (A) (A) (A)
                 (A) (A) (A) (A) (A) (A) (A) (A) (A) (A) (A) (A)
                 (A) (A) (A) (A) (A) (A) (A) (A) (A) (A) (A) (A)
                 (A) (A) (A) (A) (A) (A) (A) (A) (A) (A) (A) (A)
                 (A) (A) (A) (A) (A) (A) (A) (A) (A) (A) (A) (A)
                 (A) (A) (A) (A) (A) (A) (A) (A) (A) (A) (A) (A)
                 (A) (A) (A) (A) (A) (A) (A) (A) (A) (A) (A) (A)
                 (A) (A) (A) (A) (A) (A) (A) (A) (A) (A) (A) (A)
                 (A) (A) (A) (A) (A) (A) (A) (A) (A) (A) (A) (A)
                 (A) (A) (A) (A) (A) (A) (A) (A) (A) (A) (A) (A)
                 (A) (A) (A) (A) (A) (A) (A) (A) (A) (A) (A) (A)
                 (A) (A) (A) (A) (A) (A) (A) (A) (A) (A) (A) (A)
                 (A) (A) (A) (A) (A) (A) (A) (A) (A) (A) (A) (A)
                 (A) (A) (A) (A) (A) (A) (A) (A) (A) (A) (A) (A)
                 (A) (A) (A) (A) (A) (A) (A) (A) (A) (A) (A) (A)
                 (A) (A) (A) (A) (A) (A) (A) (A) (A) (A) (A) (A)
                 (A) (A) (A) (A) (A) (A) (A) (A) (A) (A) (A) (A)
                 (A) (A) (A) (A) (A) (A) (A) (A) (A) (A) (A) (A)
                 (A) (A) (A) (A) (A) (A) (A) (A) (A) (A) (A) (A)
                 (A) (A) (A) (A) (A) (A) (A) (A) (A) (A) (A) (A)
                 (A) (A) (A) (A) (A) (A) (A) (A) (A) (A) (A) (A)
                 (A) (A) (A) (A) (A) (A) (A) (A) (A) (A) (A) (A)
                 (A) (A) (A) (A) (A) (A) (A) (A) (A) (A) (A) (A)
                 (A) (A) (A) (A) (A) (A) (A) (A) (A) (A) (A) (A)
                 (A) (A) (A) (A) (A) (A) (A) (A) (A) (A) (A)
 The electronic state is 1-A.
 Alpha  occ. eigenvalues -- -102.63913 -14.72470 -10.60131 -10.56424 -10.55937
 Alpha  occ. eigenvalues --  -10.55004 -10.54757 -10.54735 -10.54562 -10.54225
 Alpha  occ. eigenvalues --   -9.80158  -7.52348  -7.51850  -7.51839  -0.99718
 Alpha  occ. eigenvalues --   -0.98162  -0.92963  -0.88016  -0.82858  -0.80309
 Alpha  occ. eigenvalues --   -0.71371  -0.68635  -0.65921  -0.58695  -0.56745
 Alpha  occ. eigenvalues --   -0.54188  -0.54084  -0.51655  -0.49392  -0.48733
 Alpha  occ. eigenvalues --   -0.46850  -0.45968  -0.43397  -0.42273  -0.41042
 Alpha  occ. eigenvalues --   -0.40262  -0.39488  -0.36852  -0.30969  -0.30585
 Alpha  occ. eigenvalues --   -0.29353
 Alpha virt. eigenvalues --    0.01421   0.01765   0.06458   0.06715   0.08872
 Alpha virt. eigenvalues --    0.10317   0.10683   0.12253   0.13087   0.13565
 Alpha virt. eigenvalues --    0.14391   0.14890   0.16791   0.17437   0.18410
 Alpha virt. eigenvalues --    0.19299   0.21343   0.22663   0.23184   0.24091
 Alpha virt. eigenvalues --    0.24570   0.25621   0.26326   0.28937   0.28970
 Alpha virt. eigenvalues --    0.29776   0.30345   0.31391   0.32058   0.32616
 Alpha virt. eigenvalues --    0.34843   0.35577   0.35753   0.36610   0.36965
 Alpha virt. eigenvalues --    0.38406   0.39230   0.40508   0.40934   0.41530
 Alpha virt. eigenvalues --    0.42182   0.42502   0.43455   0.44542   0.45320
 Alpha virt. eigenvalues --    0.46359   0.46829   0.47380   0.47868   0.48675
 Alpha virt. eigenvalues --    0.49820   0.50213   0.51189   0.52081   0.52680
 Alpha virt. eigenvalues --    0.53603   0.54514   0.55531   0.55981   0.57210
 Alpha virt. eigenvalues --    0.58045   0.58867   0.60526   0.62777   0.63810
 Alpha virt. eigenvalues --    0.65706   0.66041   0.69233   0.70341   0.71539
 Alpha virt. eigenvalues --    0.73149   0.74519   0.75587   0.76630   0.77025
 Alpha virt. eigenvalues --    0.78706   0.81240   0.82053   0.83289   0.86138
 Alpha virt. eigenvalues --    0.87227   0.88402   0.90110   0.91563   0.92004
 Alpha virt. eigenvalues --    0.92588   0.94765   0.96913   0.97094   1.02523
 Alpha virt. eigenvalues --    1.03617   1.05783   1.07234   1.08888   1.09176
 Alpha virt. eigenvalues --    1.11477   1.13912   1.16541   1.16876   1.17356
 Alpha virt. eigenvalues --    1.19083   1.22857   1.23788   1.25050   1.25687
 Alpha virt. eigenvalues --    1.27012   1.28079   1.30272   1.31342   1.32033
 Alpha virt. eigenvalues --    1.34873   1.36700   1.38808   1.40814   1.41684
 Alpha virt. eigenvalues --    1.41946   1.43126   1.45976   1.48543   1.49271
 Alpha virt. eigenvalues --    1.50665   1.52534   1.55749   1.57607   1.59009
 Alpha virt. eigenvalues --    1.59973   1.61912   1.62736   1.64504   1.65277
 Alpha virt. eigenvalues --    1.67560   1.68762   1.69088   1.72618   1.73560
 Alpha virt. eigenvalues --    1.73968   1.75136   1.76076   1.77436   1.79880
 Alpha virt. eigenvalues --    1.83264   1.84149   1.85958   1.86206   1.88185
 Alpha virt. eigenvalues --    1.89578   1.90402   1.91143   1.93813   1.95627
 Alpha virt. eigenvalues --    1.96323   1.97417   1.98354   2.00957   2.01716
 Alpha virt. eigenvalues --    2.03954   2.04855   2.06110   2.07301   2.09300
 Alpha virt. eigenvalues --    2.10453   2.12257   2.14287   2.14862   2.16815
 Alpha virt. eigenvalues --    2.17333   2.18561   2.21336   2.23552   2.24855
 Alpha virt. eigenvalues --    2.25874   2.26746   2.27338   2.28653   2.30406
 Alpha virt. eigenvalues --    2.32106   2.33498   2.34259   2.35967   2.38158
 Alpha virt. eigenvalues --    2.41262   2.45227   2.46430   2.48158   2.49372
 Alpha virt. eigenvalues --    2.51885   2.53264   2.54417   2.56086   2.58351
 Alpha virt. eigenvalues --    2.60442   2.61257   2.61561   2.62880   2.65048
 Alpha virt. eigenvalues --    2.65714   2.67702   2.68278   2.69230   2.70456
 Alpha virt. eigenvalues --    2.71395   2.72538   2.74364   2.74911   2.77718
 Alpha virt. eigenvalues --    2.78363   2.79221   2.80292   2.82182   2.83614
 Alpha virt. eigenvalues --    2.85650   2.88069   2.88476   2.90081   2.91324
 Alpha virt. eigenvalues --    2.92709   2.93417   2.96991   2.98451   2.99558
 Alpha virt. eigenvalues --    3.00975   3.03322   3.05026   3.06647   3.08837
 Alpha virt. eigenvalues --    3.10439   3.12017   3.14616   3.15216   3.16425
 Alpha virt. eigenvalues --    3.17590   3.18762   3.20233   3.21044   3.22623
 Alpha virt. eigenvalues --    3.24265   3.25940   3.26887   3.27736   3.28561
 Alpha virt. eigenvalues --    3.30916   3.32001   3.33096   3.34226   3.35444
 Alpha virt. eigenvalues --    3.37041   3.38944   3.40624   3.42032   3.42947
 Alpha virt. eigenvalues --    3.45592   3.48180   3.48686   3.49925   3.51608
 Alpha virt. eigenvalues --    3.51945   3.54346   3.55171   3.56582   3.59930
 Alpha virt. eigenvalues --    3.64528   3.67241   3.69055   3.72028   3.73320
 Alpha virt. eigenvalues --    3.76030   3.78907   3.80824   3.83620   3.85569
 Alpha virt. eigenvalues --    3.88730   3.90605   3.92841   3.94316   3.97266
 Alpha virt. eigenvalues --    4.03063   4.04156   4.07184   4.08336   4.10515
 Alpha virt. eigenvalues --    4.13506   4.15253   4.16927   4.19105   4.20478
 Alpha virt. eigenvalues --    4.20907   4.24017   4.25444   4.28795   4.30189
 Alpha virt. eigenvalues --    4.33422   4.34987   4.38011   4.40643   4.47373
 Alpha virt. eigenvalues --    4.51911   4.54976   4.61058   4.63405   4.64932
 Alpha virt. eigenvalues --    4.69160   4.71768   4.74142   4.78187   4.82982
 Alpha virt. eigenvalues --    4.84501   4.86866   4.89926   4.93108   5.02932
 Alpha virt. eigenvalues --    5.08135   5.10282   5.12025   5.13697   5.19382
 Alpha virt. eigenvalues --    5.25841   5.29022   5.36124   5.42610   5.49961
 Alpha virt. eigenvalues --    5.56136   5.75499  10.84222  10.93870  11.42826
 Alpha virt. eigenvalues --   22.08464  22.52315  22.61677  22.71791  22.77404
 Alpha virt. eigenvalues --   22.83490  22.92857  23.33262  26.03297  32.07999
          Condensed to atoms (all electrons):
               1          2          3          4          5          6
     1  Cl  16.906438   0.312799  -0.051034   0.011452  -0.002265   0.016664
     2  C    0.312799   5.153350   0.318056   0.056223  -0.101446   0.075490
     3  C   -0.051034   0.318056   5.131943   0.414972   0.015300  -0.140386
     4  C    0.011452   0.056223   0.414972   4.963826   0.469138   0.019134
     5  C   -0.002265  -0.101446   0.015300   0.469138   4.931794   0.456515
     6  C    0.016664   0.075490  -0.140386   0.019134   0.456515   5.120436
     7  C   -0.097591   0.269057   0.065559  -0.118558   0.014142   0.350945
     8  C    0.013118  -0.088144   0.022726  -0.005627   0.009805  -0.081625
     9  C   -0.007565  -0.002456   0.001725  -0.000863   0.003194  -0.012508
    10  N   -0.008526   0.015175   0.009532  -0.001794   0.000511   0.003403
    11  H    0.000879  -0.049961   0.415055  -0.038932   0.006275  -0.003129
    12  H   -0.000374   0.005709  -0.035057   0.408548  -0.034997   0.005134
    13  H    0.000021  -0.000652   0.005118  -0.035707   0.411566  -0.036045
    14  H   -0.000193   0.007436   0.000180   0.003329  -0.026004   0.398923
    15  H    0.001499   0.004327  -0.000317   0.000119  -0.000481  -0.005231
    16  H    0.003054  -0.006004  -0.000461   0.000260  -0.000324   0.002949
    17  H   -0.000138   0.003983  -0.000300   0.000049   0.000183  -0.006880
    18  H   -0.000065   0.000198   0.000214  -0.000049   0.000035   0.000789
    19  H    0.005906  -0.001013  -0.000034  -0.000001   0.000107  -0.001058
    20  H    0.000489  -0.001101  -0.000230   0.000033  -0.000022  -0.000044
               7          8          9         10         11         12
     1  Cl  -0.097591   0.013118  -0.007565  -0.008526   0.000879  -0.000374
     2  C    0.269057  -0.088144  -0.002456   0.015175  -0.049961   0.005709
     3  C    0.065559   0.022726   0.001725   0.009532   0.415055  -0.035057
     4  C   -0.118558  -0.005627  -0.000863  -0.001794  -0.038932   0.408548
     5  C    0.014142   0.009805   0.003194   0.000511   0.006275  -0.034997
     6  C    0.350945  -0.081625  -0.012508   0.003403  -0.003129   0.005134
     7  C    5.308070   0.180203  -0.020155  -0.030333   0.016735   0.000505
     8  C    0.180203   5.422393   0.226993  -0.044511   0.000120   0.000071
     9  C   -0.020155   0.226993   5.024952   0.255858  -0.000003  -0.000013
    10  N   -0.030333  -0.044511   0.255858   6.724392   0.000147  -0.000010
    11  H    0.016735   0.000120  -0.000003   0.000147   0.502821  -0.003905
    12  H    0.000505   0.000071  -0.000013  -0.000010  -0.003905   0.513823
    13  H    0.007072  -0.000147   0.000072  -0.000006  -0.000208  -0.003753
    14  H   -0.042869   0.005482  -0.003361   0.000242   0.000062  -0.000317
    15  H   -0.042960   0.434148  -0.059047   0.006865   0.000009   0.000001
    16  H   -0.071631   0.456823  -0.043238  -0.006567  -0.000032   0.000001
    17  H   -0.009608  -0.013476   0.402679  -0.041924  -0.000002  -0.000001
    18  H    0.013191  -0.080015   0.457208  -0.053537   0.000001  -0.000000
    19  H   -0.007975   0.008308  -0.050298   0.361600  -0.000014   0.000000
    20  H    0.003380   0.006995  -0.039551   0.362870  -0.000002   0.000000
              13         14         15         16         17         18
     1  Cl   0.000021  -0.000193   0.001499   0.003054  -0.000138  -0.000065
     2  C   -0.000652   0.007436   0.004327  -0.006004   0.003983   0.000198
     3  C    0.005118   0.000180  -0.000317  -0.000461  -0.000300   0.000214
     4  C   -0.035707   0.003329   0.000119   0.000260   0.000049  -0.000049
     5  C    0.411566  -0.026004  -0.000481  -0.000324   0.000183   0.000035
     6  C   -0.036045   0.398923  -0.005231   0.002949  -0.006880   0.000789
     7  C    0.007072  -0.042869  -0.042960  -0.071631  -0.009608   0.013191
     8  C   -0.000147   0.005482   0.434148   0.456823  -0.013476  -0.080015
     9  C    0.000072  -0.003361  -0.059047  -0.043238   0.402679   0.457208
    10  N   -0.000006   0.000242   0.006865  -0.006567  -0.041924  -0.053537
    11  H   -0.000208   0.000062   0.000009  -0.000032  -0.000002   0.000001
    12  H   -0.003753  -0.000317   0.000001   0.000001  -0.000001  -0.000000
    13  H    0.512721  -0.003670  -0.000049   0.000009   0.000026  -0.000001
    14  H   -0.003670   0.509228  -0.000098   0.000147   0.000914   0.000021
    15  H   -0.000049  -0.000098   0.514994  -0.012248  -0.002423   0.002640
    16  H    0.000009   0.000147  -0.012248   0.492914   0.006556  -0.009653
    17  H    0.000026   0.000914  -0.002423   0.006556   0.568259  -0.046581
    18  H   -0.000001   0.000021   0.002640  -0.009653  -0.046581   0.603746
    19  H    0.000000  -0.000019  -0.000030   0.003314   0.009390  -0.007587
    20  H    0.000000  -0.000005  -0.000659   0.000283  -0.005668  -0.005676
              19         20
     1  Cl   0.005906   0.000489
     2  C   -0.001013  -0.001101
     3  C   -0.000034  -0.000230
     4  C   -0.000001   0.000033
     5  C    0.000107  -0.000022
     6  C   -0.001058  -0.000044
     7  C   -0.007975   0.003380
     8  C    0.008308   0.006995
     9  C   -0.050298  -0.039551
    10  N    0.361600   0.362870
    11  H   -0.000014  -0.000002
    12  H    0.000000   0.000000
    13  H    0.000000   0.000000
    14  H   -0.000019  -0.000005
    15  H   -0.000030  -0.000659
    16  H    0.003314   0.000283
    17  H    0.009390  -0.005668
    18  H   -0.007587  -0.005676
    19  H    0.477127  -0.032403
    20  H   -0.032403   0.483743
 Mulliken charges:
               1
     1  Cl  -0.104568
     2  C    0.028976
     3  C   -0.172559
     4  C   -0.145551
     5  C   -0.153026
     6  C   -0.163478
     7  C    0.212819
     8  C   -0.473641
     9  C   -0.133624
    10  N   -0.553388
    11  H    0.154083
    12  H    0.144636
    13  H    0.143631
    14  H    0.150571
    15  H    0.158940
    16  H    0.183849
    17  H    0.134963
    18  H    0.125121
    19  H    0.234677
    20  H    0.227566
 Sum of Mulliken charges =  -0.00000
 Mulliken charges with hydrogens summed into heavy atoms:
               1
     1  Cl  -0.104568
     2  C    0.028976
     3  C   -0.018476
     4  C   -0.000915
     5  C   -0.009395
     6  C   -0.012907
     7  C    0.212819
     8  C   -0.130851
     9  C    0.126461
    10  N   -0.091144
 Electronic spatial extent (au):  <R**2>=           1712.4646
 Charge=             -0.0000 electrons
 Dipole moment (field-independent basis, Debye):
    X=             -0.6977    Y=             -1.6386    Z=             -0.1331  Tot=              1.7859
 Quadrupole moment (field-independent basis, Debye-Ang):
   XX=            -56.5972   YY=            -64.2926   ZZ=            -69.5355
   XY=              0.9931   XZ=              0.9388   YZ=              1.3874
 Traceless Quadrupole moment (field-independent basis, Debye-Ang):
   XX=              6.8779   YY=             -0.8175   ZZ=             -6.0604
   XY=              0.9931   XZ=              0.9388   YZ=              1.3874
 Octapole moment (field-independent basis, Debye-Ang**2):
  XXX=            -14.7602  YYY=             -1.7437  ZZZ=              1.9703  XYY=             -0.6047
  XXY=              1.5037  XXZ=             17.7830  XZZ=            -12.7176  YZZ=              1.7796
  YYZ=              1.6459  XYZ=              2.7561
 Hexadecapole moment (field-independent basis, Debye-Ang**3):
 XXXX=          -1157.9271 YYYY=           -784.9159 ZZZZ=           -236.9710 XXXY=             -8.9171
 XXXZ=             -9.9230 YYYX=            -13.2450 YYYZ=              4.5984 ZZZX=            -19.2568
 ZZZY=             -5.6186 XXYY=           -320.1772 XXZZ=           -236.9422 YYZZ=           -175.5793
 XXYZ=             -5.9568 YYXZ=             -0.9861 ZZXY=              9.9864
 N-N= 5.884714735857D+02 E-N=-3.120292711353D+03  KE= 8.233558329640D+02
 Unable to Open any file for archive entry.
 1\1\GINC-NOTCH285\SP\RM062X\def2TZVP\C8H10Cl1N1\U6032257\21-Feb-2022\0
 \\# M062X/def2tzvp int=(grid=ultrafine) nmr=giao guess=read geom=check
 \\N3.xyz\\0,1\Cl,0,-0.0218917763,2.6117422299,1.1010178555\C,0,-0.8698
 412731,1.2100428222,0.4385597188\C,0,-2.1181361117,1.4354824967,-0.139
 3407704\C,0,-2.8329217374,0.3637484724,-0.6682746396\C,0,-2.2964723191
 ,-0.9221384071,-0.6096649413\C,0,-1.0501435933,-1.1231474674,-0.023467
 1366\C,0,-0.3011802003,-0.0667722328,0.5129670506\C,0,1.0596291151,-0.
 3446281338,1.1020863611\C,0,2.1675186315,-0.4346626263,0.0392248346\N,
 0,2.2365796831,0.7912937878,-0.7515898336\H,0,-2.5175568716,2.44243057
 73,-0.1720765513\H,0,-3.8046585128,0.5364596925,-1.1196289682\H,0,-2.8
 481155519,-1.7648074098,-1.0141180287\H,0,-0.6332879863,-2.1256383443,
 0.0256493761\H,0,1.029518217,-1.2957771794,1.6451659278\H,0,1.32120144
 54,0.4271752613,1.8314523535\H,0,1.9339463704,-1.260172075,-0.64440249
 99\H,0,3.1071878527,-0.7050573198,0.5535826745\H,0,2.4727900801,1.5807
 144444,-0.1559971244\H,0,2.9692345383,0.7174114113,-1.4517456587\\Vers
 ion=ES64L-G16RevC.01\State=1-A\HF=-825.7938707\RMSD=1.309e-09\Dipole=0
 .3381599,-0.6094553,-0.0887972\Quadrupole=4.9118029,-0.4688235,-4.4429
 795,-0.5021625,1.7834227,0.1750599\PG=C01 [X(C8H10Cl1N1)]\\@
 The archive entry for this job was punched.


 BE CAREFUL NOT TO BECOME TOO GOOD OF A SONGBIRD OR 
 THEY'LL THROW YOU INTO A CAGE.

                                    -- SNOOPY TO WOODSTOCK
 Job cpu time:       0 days  0 hours 25 minutes 30.7 seconds.
 Elapsed time:       0 days  0 hours  0 minutes 27.8 seconds.
 File lengths (MBytes):  RWF=     83 Int=      0 D2E=      0 Chk=     14 Scr=      1
 Normal termination of Gaussian 16 at Mon Feb 21 19:22:49 2022.
