 Entering Gaussian System, Link 0=/uufs/chpc.utah.edu/sys/installdir/gaussian16/C01/AVX2/g16/g16
 Input=N3_conf-1.com
 Output=N3_conf-1.log
 Initial command:
 /uufs/chpc.utah.edu/sys/installdir/gaussian16/C01/AVX2/g16/l1.exe "/scratch/local/u6032257/4038674/notchpeak.peaks/Gau-119816.inp" -scrdir="/scratch/local/u6032257/4038674/notchpeak.peaks/"
 Entering Link 1 = /uufs/chpc.utah.edu/sys/installdir/gaussian16/C01/AVX2/g16/l1.exe PID=    119818.
  
 Copyright (c) 1988-2019, Gaussian, Inc.  All Rights Reserved.
  
 This is part of the Gaussian(R) 16 program.  It is based on
 the Gaussian(R) 09 system (copyright 2009, Gaussian, Inc.),
 the Gaussian(R) 03 system (copyright 2003, Gaussian, Inc.),
 the Gaussian(R) 98 system (copyright 1998, Gaussian, Inc.),
 the Gaussian(R) 94 system (copyright 1995, Gaussian, Inc.),
 the Gaussian 92(TM) system (copyright 1992, Gaussian, Inc.),
 the Gaussian 90(TM) system (copyright 1990, Gaussian, Inc.),
 the Gaussian 88(TM) system (copyright 1988, Gaussian, Inc.),
 the Gaussian 86(TM) system (copyright 1986, Carnegie Mellon
 University), and the Gaussian 82(TM) system (copyright 1983,
 Carnegie Mellon University). Gaussian is a federally registered
 trademark of Gaussian, Inc.
  
 This software contains proprietary and confidential information,
 including trade secrets, belonging to Gaussian, Inc.
  
 This software is provided under written license and may be
 used, copied, transmitted, or stored only in accord with that
 written license.
  
 The following legend is applicable only to US Government
 contracts under FAR:
  
                    RESTRICTED RIGHTS LEGEND
  
 Use, reproduction and disclosure by the US Government is
 subject to restrictions as set forth in subparagraphs (a)
 and (c) of the Commercial Computer Software - Restricted
 Rights clause in FAR 52.227-19.
  
 Gaussian, Inc.
 340 Quinnipiac St., Bldg. 40, Wallingford CT 06492
  
  
 ---------------------------------------------------------------
 Warning -- This program may not be used in any manner that
 competes with the business of Gaussian, Inc. or will provide
 assistance to any competitor of Gaussian, Inc.  The licensee
 of this program is prohibited from giving any competitor of
 Gaussian, Inc. access to this program.  By using this program,
 the user acknowledges that Gaussian, Inc. is engaged in the
 business of creating and licensing software in the field of
 computational chemistry and represents and warrants to the
 licensee that it is not a competitor of Gaussian, Inc. and that
 it will not use this program in any manner prohibited above.
 ---------------------------------------------------------------
  

 Cite this work as:
 Gaussian 16, Revision C.01,
 M. J. Frisch, G. W. Trucks, H. B. Schlegel, G. E. Scuseria, 
 M. A. Robb, J. R. Cheeseman, G. Scalmani, V. Barone, 
 G. A. Petersson, H. Nakatsuji, X. Li, M. Caricato, A. V. Marenich, 
 J. Bloino, B. G. Janesko, R. Gomperts, B. Mennucci, H. P. Hratchian, 
 J. V. Ortiz, A. F. Izmaylov, J. L. Sonnenberg, D. Williams-Young, 
 F. Ding, F. Lipparini, F. Egidi, J. Goings, B. Peng, A. Petrone, 
 T. Henderson, D. Ranasinghe, V. G. Zakrzewski, J. Gao, N. Rega, 
 G. Zheng, W. Liang, M. Hada, M. Ehara, K. Toyota, R. Fukuda, 
 J. Hasegawa, M. Ishida, T. Nakajima, Y. Honda, O. Kitao, H. Nakai, 
 T. Vreven, K. Throssell, J. A. Montgomery, Jr., J. E. Peralta, 
 F. Ogliaro, M. J. Bearpark, J. J. Heyd, E. N. Brothers, K. N. Kudin, 
 V. N. Staroverov, T. A. Keith, R. Kobayashi, J. Normand, 
 K. Raghavachari, A. P. Rendell, J. C. Burant, S. S. Iyengar, 
 J. Tomasi, M. Cossi, J. M. Millam, M. Klene, C. Adamo, R. Cammi, 
 J. W. Ochterski, R. L. Martin, K. Morokuma, O. Farkas, 
 J. B. Foresman, and D. J. Fox, Gaussian, Inc., Wallingford CT, 2019.
 
 ******************************************
 Gaussian 16:  ES64L-G16RevC.01  3-Jul-2019
                21-Feb-2022 
 ******************************************
 %NProcShared=64
 Will use up to   64 processors via shared memory.
 %mem=16GB
 %chk=N3_conf-1.chk
 ----------------------------------------------------------------------
 # B3LYP/6-31G(d,p) empiricaldispersion=GD3BJ int=(grid=ultrafine) opt 
 freq=noraman
 ----------------------------------------------------------------------
 1/18=20,19=15,26=4,38=1/1,3;
 2/9=110,12=2,17=6,18=5,40=1/2;
 3/5=1,6=6,7=101,11=2,25=1,30=1,71=1,74=-5,75=-5,124=41/1,2,3;
 4//1;
 5/5=2,38=5/2;
 6/7=2,8=2,9=2,10=2,28=1/1;
 7//1,2,3,16;
 1/18=20,19=15,26=4/3(2);
 2/9=110/2;
 99//99;
 2/9=110/2;
 3/5=1,6=6,7=101,11=2,25=1,30=1,71=1,74=-5,75=-5,124=41/1,2,3;
 4/5=5,16=3,69=1/1;
 5/5=2,38=5/2;
 7//1,2,3,16;
 1/18=20,19=15,26=4/3(-5);
 2/9=110/2;
 6/7=2,8=2,9=2,10=2,19=2,28=1/1;
 99/9=1/99;
 ------
 N3.xyz
 ------
 Symbolic Z-matrix:
 Charge =  0 Multiplicity = 1
 Cl                   -0.1923    2.6249    1.3017 
 C                    -0.9359    1.2648    0.533 
 C                    -2.2073    1.4279   -0.0194 
 C                    -2.8453    0.3601   -0.6504 
 C                    -2.2106   -0.8785   -0.7314 
 C                    -0.9401   -1.0481   -0.1809 
 C                    -0.2924    0.0176    0.4552 
 C                     1.1019   -0.2053    1.0427 
 C                     2.247     0.319     0.1592 
 N                     2.2863   -0.4141   -1.0952 
 H                    -2.6977    2.3882    0.0447 
 H                    -3.8299    0.4936   -1.0749 
 H                    -2.7019   -1.708    -1.2201 
 H                    -0.4532   -2.0109   -0.2528 
 H                     1.2541   -1.267     1.2438 
 H                     1.1482    0.2685    2.0236 
 H                     3.2017    0.201     0.6764 
 H                     2.1223    1.3872   -0.0322 
 H                     1.3938   -0.3057   -1.5611 
 H                     2.9773   -0.0152   -1.7162 
 

 GradGradGradGradGradGradGradGradGradGradGradGradGradGradGradGradGradGrad
 Berny optimization.
 Initialization pass.
                           ----------------------------
                           !    Initial Parameters    !
                           ! (Angstroms and Degrees)  !
 --------------------------                            --------------------------
 ! Name  Definition              Value          Derivative Info.                !
 --------------------------------------------------------------------------------
 ! R1    R(1,2)                  1.7302         estimate D2E/DX2                !
 ! R2    R(2,3)                  1.3958         estimate D2E/DX2                !
 ! R3    R(2,7)                  1.4056         estimate D2E/DX2                !
 ! R4    R(3,4)                  1.3948         estimate D2E/DX2                !
 ! R5    R(3,11)                 1.0802         estimate D2E/DX2                !
 ! R6    R(4,5)                  1.3941         estimate D2E/DX2                !
 ! R7    R(4,12)                 1.0805         estimate D2E/DX2                !
 ! R8    R(5,6)                  1.395          estimate D2E/DX2                !
 ! R9    R(5,13)                 1.0809         estimate D2E/DX2                !
 ! R10   R(6,7)                  1.3999         estimate D2E/DX2                !
 ! R11   R(6,14)                 1.0813         estimate D2E/DX2                !
 ! R12   R(7,8)                  1.5294         estimate D2E/DX2                !
 ! R13   R(8,9)                  1.5384         estimate D2E/DX2                !
 ! R14   R(8,15)                 1.0912         estimate D2E/DX2                !
 ! R15   R(8,16)                 1.0903         estimate D2E/DX2                !
 ! R16   R(9,10)                 1.4534         estimate D2E/DX2                !
 ! R17   R(9,17)                 1.0922         estimate D2E/DX2                !
 ! R18   R(9,18)                 1.0924         estimate D2E/DX2                !
 ! R19   R(10,19)                1.0126         estimate D2E/DX2                !
 ! R20   R(10,20)                1.0111         estimate D2E/DX2                !
 ! A1    A(1,2,3)              118.3882         estimate D2E/DX2                !
 ! A2    A(1,2,7)              121.6911         estimate D2E/DX2                !
 ! A3    A(3,2,7)              119.9207         estimate D2E/DX2                !
 ! A4    A(2,3,4)              120.414          estimate D2E/DX2                !
 ! A5    A(2,3,11)             119.6            estimate D2E/DX2                !
 ! A6    A(4,3,11)             119.9859         estimate D2E/DX2                !
 ! A7    A(3,4,5)              119.8815         estimate D2E/DX2                !
 ! A8    A(3,4,12)             119.9983         estimate D2E/DX2                !
 ! A9    A(5,4,12)             120.1202         estimate D2E/DX2                !
 ! A10   A(4,5,6)              119.9824         estimate D2E/DX2                !
 ! A11   A(4,5,13)             120.077          estimate D2E/DX2                !
 ! A12   A(6,5,13)             119.9406         estimate D2E/DX2                !
 ! A13   A(5,6,7)              120.5394         estimate D2E/DX2                !
 ! A14   A(5,6,14)             119.48           estimate D2E/DX2                !
 ! A15   A(7,6,14)             119.9799         estimate D2E/DX2                !
 ! A16   A(2,7,6)              119.2619         estimate D2E/DX2                !
 ! A17   A(2,7,8)              121.6987         estimate D2E/DX2                !
 ! A18   A(6,7,8)              119.0388         estimate D2E/DX2                !
 ! A19   A(7,8,9)              114.0995         estimate D2E/DX2                !
 ! A20   A(7,8,15)             109.8618         estimate D2E/DX2                !
 ! A21   A(7,8,16)             108.7221         estimate D2E/DX2                !
 ! A22   A(9,8,15)             109.4872         estimate D2E/DX2                !
 ! A23   A(9,8,16)             109.6914         estimate D2E/DX2                !
 ! A24   A(15,8,16)            104.541          estimate D2E/DX2                !
 ! A25   A(8,9,10)             110.113          estimate D2E/DX2                !
 ! A26   A(8,9,17)             109.9905         estimate D2E/DX2                !
 ! A27   A(8,9,18)             110.4216         estimate D2E/DX2                !
 ! A28   A(10,9,17)            109.3031         estimate D2E/DX2                !
 ! A29   A(10,9,18)            110.1879         estimate D2E/DX2                !
 ! A30   A(17,9,18)            106.7629         estimate D2E/DX2                !
 ! A31   A(9,10,19)            108.6184         estimate D2E/DX2                !
 ! A32   A(9,10,20)            110.4612         estimate D2E/DX2                !
 ! A33   A(19,10,20)           106.1138         estimate D2E/DX2                !
 ! D1    D(1,2,3,4)            179.9245         estimate D2E/DX2                !
 ! D2    D(1,2,3,11)            -0.1287         estimate D2E/DX2                !
 ! D3    D(7,2,3,4)             -0.0421         estimate D2E/DX2                !
 ! D4    D(7,2,3,11)           179.9047         estimate D2E/DX2                !
 ! D5    D(1,2,7,6)           -179.8771         estimate D2E/DX2                !
 ! D6    D(1,2,7,8)             -0.149          estimate D2E/DX2                !
 ! D7    D(3,2,7,6)              0.0884         estimate D2E/DX2                !
 ! D8    D(3,2,7,8)            179.8165         estimate D2E/DX2                !
 ! D9    D(2,3,4,5)             -0.0267         estimate D2E/DX2                !
 ! D10   D(2,3,4,12)           179.9426         estimate D2E/DX2                !
 ! D11   D(11,3,4,5)          -179.9734         estimate D2E/DX2                !
 ! D12   D(11,3,4,12)           -0.0041         estimate D2E/DX2                !
 ! D13   D(3,4,5,6)              0.0484         estimate D2E/DX2                !
 ! D14   D(3,4,5,13)          -179.9699         estimate D2E/DX2                !
 ! D15   D(12,4,5,6)          -179.9208         estimate D2E/DX2                !
 ! D16   D(12,4,5,13)            0.0609         estimate D2E/DX2                !
 ! D17   D(4,5,6,7)             -0.0012         estimate D2E/DX2                !
 ! D18   D(4,5,6,14)          -179.6893         estimate D2E/DX2                !
 ! D19   D(13,5,6,7)          -179.9829         estimate D2E/DX2                !
 ! D20   D(13,5,6,14)            0.329          estimate D2E/DX2                !
 ! D21   D(5,6,7,2)             -0.0671         estimate D2E/DX2                !
 ! D22   D(5,6,7,8)           -179.8025         estimate D2E/DX2                !
 ! D23   D(14,6,7,2)           179.6195         estimate D2E/DX2                !
 ! D24   D(14,6,7,8)            -0.1159         estimate D2E/DX2                !
 ! D25   D(2,7,8,9)            -79.2851         estimate D2E/DX2                !
 ! D26   D(2,7,8,15)           157.3375         estimate D2E/DX2                !
 ! D27   D(2,7,8,16)            43.4905         estimate D2E/DX2                !
 ! D28   D(6,7,8,9)            100.4436         estimate D2E/DX2                !
 ! D29   D(6,7,8,15)           -22.9338         estimate D2E/DX2                !
 ! D30   D(6,7,8,16)          -136.7808         estimate D2E/DX2                !
 ! D31   D(7,8,9,10)           -64.1464         estimate D2E/DX2                !
 ! D32   D(7,8,9,17)           175.3346         estimate D2E/DX2                !
 ! D33   D(7,8,9,18)            57.7582         estimate D2E/DX2                !
 ! D34   D(15,8,9,10)           59.4335         estimate D2E/DX2                !
 ! D35   D(15,8,9,17)          -61.0855         estimate D2E/DX2                !
 ! D36   D(15,8,9,18)         -178.6619         estimate D2E/DX2                !
 ! D37   D(16,8,9,10)          173.6078         estimate D2E/DX2                !
 ! D38   D(16,8,9,17)           53.0889         estimate D2E/DX2                !
 ! D39   D(16,8,9,18)          -64.4875         estimate D2E/DX2                !
 ! D40   D(8,9,10,19)           58.4875         estimate D2E/DX2                !
 ! D41   D(8,9,10,20)          174.4827         estimate D2E/DX2                !
 ! D42   D(17,9,10,19)         179.4194         estimate D2E/DX2                !
 ! D43   D(17,9,10,20)         -64.5854         estimate D2E/DX2                !
 ! D44   D(18,9,10,19)         -63.5556         estimate D2E/DX2                !
 ! D45   D(18,9,10,20)          52.4395         estimate D2E/DX2                !
 --------------------------------------------------------------------------------
 Trust Radius=3.00D-01 FncErr=1.00D-07 GrdErr=1.00D-06 EigMax=2.50D+02 EigMin=1.00D-04
 Number of steps in this run=    108 maximum allowed number of steps=    120.
 GradGradGradGradGradGradGradGradGradGradGradGradGradGradGradGradGradGrad

                          Input orientation:                          
 ---------------------------------------------------------------------
 Center     Atomic      Atomic             Coordinates (Angstroms)
 Number     Number       Type             X           Y           Z
 ---------------------------------------------------------------------
      1         17           0       -0.192300    2.624900    1.301700
      2          6           0       -0.935900    1.264800    0.533000
      3          6           0       -2.207300    1.427900   -0.019400
      4          6           0       -2.845300    0.360100   -0.650400
      5          6           0       -2.210600   -0.878500   -0.731400
      6          6           0       -0.940100   -1.048100   -0.180900
      7          6           0       -0.292400    0.017600    0.455200
      8          6           0        1.101900   -0.205300    1.042700
      9          6           0        2.247000    0.319000    0.159200
     10          7           0        2.286300   -0.414100   -1.095200
     11          1           0       -2.697700    2.388200    0.044700
     12          1           0       -3.829900    0.493600   -1.074900
     13          1           0       -2.701900   -1.708000   -1.220100
     14          1           0       -0.453200   -2.010900   -0.252800
     15          1           0        1.254100   -1.267000    1.243800
     16          1           0        1.148200    0.268500    2.023600
     17          1           0        3.201700    0.201000    0.676400
     18          1           0        2.122300    1.387200   -0.032200
     19          1           0        1.393800   -0.305700   -1.561100
     20          1           0        2.977300   -0.015200   -1.716200
 ---------------------------------------------------------------------
                    Distance matrix (angstroms):
                    1          2          3          4          5
     1  Cl   0.000000
     2  C    1.730235   0.000000
     3  C    2.690416   1.395781   0.000000
     4  C    3.997302   2.421720   1.394777   0.000000
     5  C    4.525576   2.795944   2.413801   1.394107   0.000000
     6  C    4.030910   2.420574   2.786118   2.415211   1.394986
     7  C    2.743100   1.405579   2.425084   2.803026   2.427036
     8  C    3.122830   2.563907   3.840079   4.332049   3.817497
     9  C    3.545795   3.341424   4.593729   5.156419   4.700784
    10  N    4.596097   3.981496   4.974209   5.208700   4.535430
    11  H    2.813024   2.145787   1.080175   2.148986   3.392776
    12  H    4.839711   3.399313   2.149378   1.080490   2.150066
    13  H    5.606388   3.876810   3.394139   2.149921   1.080867
    14  H    4.896446   3.403041   3.867388   3.391441   2.144724
    15  H    4.152386   3.422185   4.565025   4.800055   4.007055
    16  H    2.805477   2.749177   4.096027   4.806944   4.493014
    17  H    4.217289   4.274572   5.589875   6.192893   5.695631
    18  H    2.944242   3.112398   4.329810   5.110201   4.939261
    19  H    4.393148   3.504173   4.283705   4.386643   3.742753
    20  H    5.111185   4.691528   5.642849   5.931227   5.350647
                    6          7          8          9         10
     6  C    0.000000
     7  C    1.399948   0.000000
     8  C    2.525326   1.529351   0.000000
     9  C    3.484571   2.574298   1.538414   0.000000
    10  N    3.412852   3.039704   2.452961   1.453444   0.000000
    11  H    3.866292   3.402017   4.707357   5.361414   5.830310
    12  H    3.395146   3.883515   5.412517   6.203402   6.183222
    13  H    2.149266   3.404411   4.674106   5.522935   5.154795
    14  H    1.081307   2.154515   2.712351   3.590161   3.280894
    15  H    2.625300   2.159572   1.091244   2.162777   2.695143
    16  H    3.309721   2.144332   1.090319   2.164694   3.389414
    17  H    4.410184   3.505895   2.169888   1.092187   2.086833
    18  H    3.915494   2.818535   2.175473   1.092353   2.097986
    19  H    2.811263   2.648256   2.622034   2.019315   1.012605
    20  H    4.332442   3.925174   3.341376   2.040136   1.011060
                   11         12         13         14         15
    11  H    0.000000
    12  H    2.474852   0.000000
    13  H    4.287026   2.478005   0.000000
    14  H    4.947562   4.283745   2.466591   0.000000
    15  H    5.514984   5.858595   4.681369   2.389157   0.000000
    16  H    4.816650   5.867951   5.408457   3.597519   1.725417
    17  H    6.323433   7.252314   6.487949   4.371980   2.504019
    18  H    4.923445   6.108554   5.853569   4.269537   3.070297
    19  H    5.155198   5.306818   4.342521   2.833860   2.968346
    20  H    6.409581   6.856246   5.946848   4.229975   3.646645
                   16         17         18         19         20
    16  H    0.000000
    17  H    2.456902   0.000000
    18  H    2.535089   1.753365   0.000000
    19  H    3.638695   2.920899   2.394610   0.000000
    20  H    4.172792   2.412806   2.352362   1.617380   0.000000
 Stoichiometry    C8H10ClN
 Framework group  C1[X(C8H10ClN)]
 Deg. of freedom    54
 Full point group                 C1      NOp   1
 Largest Abelian subgroup         C1      NOp   1
 Largest concise Abelian subgroup C1      NOp   1
                         Standard orientation:                         
 ---------------------------------------------------------------------
 Center     Atomic      Atomic             Coordinates (Angstroms)
 Number     Number       Type             X           Y           Z
 ---------------------------------------------------------------------
      1         17           0       -0.109259    2.309800   -0.020027
      2          6           0       -0.730237    0.695802    0.035741
      3          6           0       -2.037303    0.472228   -0.399920
      4          6           0       -2.579957   -0.812411   -0.374815
      5          6           0       -1.813499   -1.881246    0.087430
      6          6           0       -0.506682   -1.664319    0.524645
      7          6           0        0.046085   -0.378287    0.504047
      8          6           0        1.483604   -0.180323    0.987019
      9          6           0        2.517442   -0.068655   -0.146748
     10          7           0        2.578580   -1.315031   -0.891939
     11          1           0       -2.629805    1.301668   -0.757336
     12          1           0       -3.592833   -0.977692   -0.712786
     13          1           0       -2.230693   -2.878145    0.107801
     14          1           0        0.082251   -2.500002    0.876804
     15          1           0        1.764909   -0.994177    1.657333
     16          1           0        1.523524    0.713615    1.609977
     17          1           0        3.503399    0.153054    0.267504
     18          1           0        2.263160    0.757660   -0.814414
     19          1           0        1.657933   -1.515374   -1.262939
     20          1           0        3.188800   -1.218723   -1.692314
 ---------------------------------------------------------------------
 Rotational constants (GHZ):           1.3535581           1.0503738           0.6621745
 Standard basis: 6-31G(d,p) (6D, 7F)
 There are   204 symmetry adapted cartesian basis functions of A   symmetry.
 There are   204 symmetry adapted basis functions of A   symmetry.
   204 basis functions,   374 primitive gaussians,   204 cartesian basis functions
    41 alpha electrons       41 beta electrons
       nuclear repulsion energy       586.2163959715 Hartrees.
 NAtoms=   20 NActive=   20 NUniq=   20 SFac= 1.00D+00 NAtFMM=   60 NAOKFM=F Big=F
 Integral buffers will be    131072 words long.
 Raffenetti 2 integral format.
 Two-electron integral symmetry is turned on.
 Nuclear repulsion after empirical dispersion term =      586.1768670999 Hartrees.
 One-electron integrals computed using PRISM.
 NBasis=   204 RedAO= T EigKep=  4.48D-04  NBF=   204
 NBsUse=   204 1.00D-06 EigRej= -1.00D+00 NBFU=   204
 ExpMin= 1.43D-01 ExpMax= 2.52D+04 ExpMxC= 3.78D+03 IAcc=3 IRadAn=         5 AccDes= 0.00D+00
 Harris functional with IExCor=  402 and IRadAn=       5 diagonalized for initial guess.
 HarFok:  IExCor=  402 AccDes= 0.00D+00 IRadAn=         5 IDoV= 1 UseB2=F ITyADJ=14
 ICtDFT=  3500011 ScaDFX=  1.000000  1.000000  1.000000  1.000000
 FoFCou: FMM=F IPFlag=           0 FMFlag=      100000 FMFlg1=           0
         NFxFlg=           0 DoJE=T BraDBF=F KetDBF=T FulRan=T
         wScrn=  0.000000 ICntrl=       500 IOpCl=  0 I1Cent=   200000004 NGrid=           0
         NMat0=    1 NMatS0=      1 NMatT0=    0 NMatD0=    1 NMtDS0=    0 NMtDT0=    0
 Petite list used in FoFCou.
 Requested convergence on RMS density matrix=1.00D-08 within 128 cycles.
 Requested convergence on MAX density matrix=1.00D-06.
 Requested convergence on             energy=1.00D-06.
 No special actions if energy rises.
 Integral accuracy reduced to 1.0D-05 until final iterations.
 Initial convergence to 1.0D-05 achieved.  Increase integral accuracy.
 SCF Done:  E(RB3LYP) =  -825.871168821     A.U. after   14 cycles
            NFock= 14  Conv=0.46D-08     -V/T= 2.0060

 **********************************************************************

            Population analysis using the SCF Density.

 **********************************************************************

 Orbital symmetries:
       Occupied  (A) (A) (A) (A) (A) (A) (A) (A) (A) (A) (A) (A)
                 (A) (A) (A) (A) (A) (A) (A) (A) (A) (A) (A) (A)
                 (A) (A) (A) (A) (A) (A) (A) (A) (A) (A) (A) (A)
                 (A) (A) (A) (A) (A)
       Virtual   (A) (A) (A) (A) (A) (A) (A) (A) (A) (A) (A) (A)
                 (A) (A) (A) (A) (A) (A) (A) (A) (A) (A) (A) (A)
                 (A) (A) (A) (A) (A) (A) (A) (A) (A) (A) (A) (A)
                 (A) (A) (A) (A) (A) (A) (A) (A) (A) (A) (A) (A)
                 (A) (A) (A) (A) (A) (A) (A) (A) (A) (A) (A) (A)
                 (A) (A) (A) (A) (A) (A) (A) (A) (A) (A) (A) (A)
                 (A) (A) (A) (A) (A) (A) (A) (A) (A) (A) (A) (A)
                 (A) (A) (A) (A) (A) (A) (A) (A) (A) (A) (A) (A)
                 (A) (A) (A) (A) (A) (A) (A) (A) (A) (A) (A) (A)
                 (A) (A) (A) (A) (A) (A) (A) (A) (A) (A) (A) (A)
                 (A) (A) (A) (A) (A) (A) (A) (A) (A) (A) (A) (A)
                 (A) (A) (A) (A) (A) (A) (A) (A) (A) (A) (A) (A)
                 (A) (A) (A) (A) (A) (A) (A) (A) (A) (A) (A) (A)
                 (A) (A) (A) (A) (A) (A) (A)
 The electronic state is 1-A.
 Alpha  occ. eigenvalues -- -101.55077 -14.30260 -10.25016 -10.20915 -10.20371
 Alpha  occ. eigenvalues --  -10.20172 -10.19866 -10.19702 -10.19620 -10.18716
 Alpha  occ. eigenvalues --   -9.46732  -7.23116  -7.22169  -7.22125  -0.89741
 Alpha  occ. eigenvalues --   -0.87747  -0.83757  -0.77783  -0.73724  -0.70879
 Alpha  occ. eigenvalues --   -0.62346  -0.61015  -0.57679  -0.51217  -0.48968
 Alpha  occ. eigenvalues --   -0.48094  -0.46304  -0.44606  -0.43174  -0.42327
 Alpha  occ. eigenvalues --   -0.39997  -0.38553  -0.37087  -0.36412  -0.35047
 Alpha  occ. eigenvalues --   -0.33974  -0.33374  -0.31075  -0.25596  -0.24388
 Alpha  occ. eigenvalues --   -0.22496
 Alpha virt. eigenvalues --   -0.01289  -0.01004   0.03961   0.09596   0.10888
 Alpha virt. eigenvalues --    0.12362   0.13635   0.15243   0.16154   0.16243
 Alpha virt. eigenvalues --    0.17322   0.17926   0.18659   0.19432   0.23272
 Alpha virt. eigenvalues --    0.24716   0.25633   0.28563   0.29857   0.30695
 Alpha virt. eigenvalues --    0.32964   0.40408   0.41340   0.45324   0.46432
 Alpha virt. eigenvalues --    0.46678   0.51874   0.52572   0.53406   0.55442
 Alpha virt. eigenvalues --    0.56383   0.57386   0.58127   0.60031   0.60188
 Alpha virt. eigenvalues --    0.60361   0.61608   0.61789   0.62843   0.65445
 Alpha virt. eigenvalues --    0.67422   0.71338   0.73078   0.75228   0.75317
 Alpha virt. eigenvalues --    0.76628   0.79417   0.81230   0.81457   0.82317
 Alpha virt. eigenvalues --    0.83006   0.85259   0.86911   0.87770   0.88428
 Alpha virt. eigenvalues --    0.89462   0.90013   0.92383   0.93038   0.95774
 Alpha virt. eigenvalues --    0.95938   0.97603   0.98577   1.00840   1.05226
 Alpha virt. eigenvalues --    1.06264   1.10411   1.11679   1.12471   1.15441
 Alpha virt. eigenvalues --    1.20659   1.24438   1.25066   1.29114   1.33756
 Alpha virt. eigenvalues --    1.36918   1.40209   1.40517   1.41047   1.41747
 Alpha virt. eigenvalues --    1.47487   1.50881   1.52054   1.54347   1.64039
 Alpha virt. eigenvalues --    1.73462   1.74840   1.78116   1.81316   1.83210
 Alpha virt. eigenvalues --    1.84640   1.85876   1.87775   1.89015   1.92591
 Alpha virt. eigenvalues --    1.93892   1.97960   1.98782   1.99266   1.99945
 Alpha virt. eigenvalues --    2.02816   2.06660   2.08361   2.11620   2.13480
 Alpha virt. eigenvalues --    2.17531   2.18949   2.20712   2.24278   2.28323
 Alpha virt. eigenvalues --    2.29911   2.32823   2.34901   2.36702   2.37568
 Alpha virt. eigenvalues --    2.38325   2.40135   2.41641   2.42569   2.46384
 Alpha virt. eigenvalues --    2.47233   2.50639   2.51326   2.54723   2.56023
 Alpha virt. eigenvalues --    2.57110   2.62330   2.63586   2.65909   2.67329
 Alpha virt. eigenvalues --    2.72449   2.73646   2.76592   2.80857   2.81097
 Alpha virt. eigenvalues --    2.88426   2.90776   2.94158   2.98280   3.00441
 Alpha virt. eigenvalues --    3.05192   3.19167   3.24339   3.29323   3.30042
 Alpha virt. eigenvalues --    3.31686   3.33935   3.35820   3.41682   3.47070
 Alpha virt. eigenvalues --    3.54619   3.57108   3.83216   3.98482   4.07865
 Alpha virt. eigenvalues --    4.13697   4.17461   4.30413   4.36921   4.42283
 Alpha virt. eigenvalues --    4.50635   4.66922   4.80288
          Condensed to atoms (all electrons):
               1          2          3          4          5          6
     1  Cl  16.913341   0.238656  -0.078487   0.004637   0.000257   0.004501
     2  C    0.238656   5.114599   0.508728  -0.039720  -0.042331  -0.044494
     3  C   -0.078487   0.508728   4.872472   0.536843  -0.028665  -0.045970
     4  C    0.004637  -0.039720   0.536843   4.800187   0.546196  -0.038224
     5  C    0.000257  -0.042331  -0.028665   0.546196   4.837620   0.511787
     6  C    0.004501  -0.044494  -0.045970  -0.038224   0.511787   4.893278
     7  C   -0.076004   0.497882  -0.029360  -0.031616  -0.029298   0.540930
     8  C   -0.003367  -0.060074   0.005554   0.000334   0.006709  -0.047761
     9  C   -0.004009  -0.003600  -0.000124   0.000028  -0.000148  -0.003603
    10  N    0.000175  -0.000303   0.000016   0.000008  -0.000064  -0.000017
    11  H   -0.000446  -0.041043   0.369861  -0.036043   0.004559   0.000834
    12  H   -0.000183   0.004889  -0.040593   0.371575  -0.040940   0.004602
    13  H    0.000014   0.000981   0.004718  -0.041201   0.365918  -0.036921
    14  H   -0.000144   0.005926   0.000381   0.004610  -0.043706   0.371593
    15  H    0.000271   0.005554  -0.000149  -0.000007   0.000344  -0.007407
    16  H    0.005135  -0.010947   0.000096   0.000014  -0.000249   0.003657
    17  H    0.000028   0.000097   0.000004  -0.000000   0.000002  -0.000091
    18  H    0.003327   0.001733  -0.000105  -0.000008   0.000023   0.000476
    19  H   -0.000038   0.000546  -0.000095  -0.000065   0.000068   0.005016
    20  H    0.000000  -0.000014  -0.000001   0.000000   0.000002  -0.000062
               7          8          9         10         11         12
     1  Cl  -0.076004  -0.003367  -0.004009   0.000175  -0.000446  -0.000183
     2  C    0.497882  -0.060074  -0.003600  -0.000303  -0.041043   0.004889
     3  C   -0.029360   0.005554  -0.000124   0.000016   0.369861  -0.040593
     4  C   -0.031616   0.000334   0.000028   0.000008  -0.036043   0.371575
     5  C   -0.029298   0.006709  -0.000148  -0.000064   0.004559  -0.040940
     6  C    0.540930  -0.047761  -0.003603  -0.000017   0.000834   0.004602
     7  C    4.785391   0.370916  -0.032970  -0.008559   0.003468   0.000714
     8  C    0.370916   5.011516   0.356935  -0.056146  -0.000165   0.000006
     9  C   -0.032970   0.356935   4.802310   0.307662   0.000000   0.000000
    10  N   -0.008559  -0.056146   0.307662   6.779263   0.000000   0.000000
    11  H    0.003468  -0.000165   0.000000   0.000000   0.600813  -0.006438
    12  H    0.000714   0.000006   0.000000   0.000000  -0.006438   0.619429
    13  H    0.004154  -0.000180   0.000001  -0.000001  -0.000186  -0.006018
    14  H   -0.039343  -0.010558   0.000240   0.001157   0.000016  -0.000202
    15  H   -0.035990   0.369842  -0.033319   0.001518   0.000003  -0.000000
    16  H   -0.028198   0.367149  -0.031702   0.004134  -0.000000  -0.000000
    17  H    0.004717  -0.025175   0.379519  -0.043949  -0.000000   0.000000
    18  H   -0.011204  -0.041726   0.387332  -0.054792   0.000004   0.000000
    19  H    0.012118  -0.011401  -0.042711   0.336808  -0.000001  -0.000000
    20  H    0.000335   0.006209  -0.035145   0.339877   0.000000  -0.000000
              13         14         15         16         17         18
     1  Cl   0.000014  -0.000144   0.000271   0.005135   0.000028   0.003327
     2  C    0.000981   0.005926   0.005554  -0.010947   0.000097   0.001733
     3  C    0.004718   0.000381  -0.000149   0.000096   0.000004  -0.000105
     4  C   -0.041201   0.004610  -0.000007   0.000014  -0.000000  -0.000008
     5  C    0.365918  -0.043706   0.000344  -0.000249   0.000002   0.000023
     6  C   -0.036921   0.371593  -0.007407   0.003657  -0.000091   0.000476
     7  C    0.004154  -0.039343  -0.035990  -0.028198   0.004717  -0.011204
     8  C   -0.000180  -0.010558   0.369842   0.367149  -0.025175  -0.041726
     9  C    0.000001   0.000240  -0.033319  -0.031702   0.379519   0.387332
    10  N   -0.000001   0.001157   0.001518   0.004134  -0.043949  -0.054792
    11  H   -0.000186   0.000016   0.000003  -0.000000  -0.000000   0.000004
    12  H   -0.006018  -0.000202  -0.000000  -0.000000   0.000000   0.000000
    13  H    0.623578  -0.005610  -0.000009   0.000003  -0.000000  -0.000000
    14  H   -0.005610   0.606648   0.005710   0.000165  -0.000052   0.000067
    15  H   -0.000009   0.005710   0.616330  -0.034911  -0.005512   0.006460
    16  H    0.000003   0.000165  -0.034911   0.614071  -0.003307  -0.001139
    17  H   -0.000000  -0.000052  -0.005512  -0.003307   0.637443  -0.049632
    18  H   -0.000000   0.000067   0.006460  -0.001139  -0.049632   0.674734
    19  H   -0.000004  -0.000264  -0.000497   0.000101   0.007256  -0.004348
    20  H    0.000000  -0.000014  -0.000015  -0.000248  -0.002746  -0.004552
              19         20
     1  Cl  -0.000038   0.000000
     2  C    0.000546  -0.000014
     3  C   -0.000095  -0.000001
     4  C   -0.000065   0.000000
     5  C    0.000068   0.000002
     6  C    0.005016  -0.000062
     7  C    0.012118   0.000335
     8  C   -0.011401   0.006209
     9  C   -0.042711  -0.035145
    10  N    0.336808   0.339877
    11  H   -0.000001   0.000000
    12  H   -0.000000  -0.000000
    13  H   -0.000004   0.000000
    14  H   -0.000264  -0.000014
    15  H   -0.000497  -0.000015
    16  H    0.000101  -0.000248
    17  H    0.007256  -0.002746
    18  H   -0.004348  -0.004552
    19  H    0.493489  -0.033683
    20  H   -0.033683   0.494746
 Mulliken charges:
               1
     1  Cl  -0.007663
     2  C   -0.137065
     3  C   -0.075124
     4  C   -0.077549
     5  C   -0.088085
     6  C   -0.112122
     7  C    0.101916
     8  C   -0.238617
     9  C   -0.046695
    10  N   -0.606788
    11  H    0.104764
    12  H    0.093159
    13  H    0.090761
    14  H    0.103382
    15  H    0.111784
    16  H    0.116175
    17  H    0.101398
    18  H    0.093351
    19  H    0.237705
    20  H    0.235312
 Sum of Mulliken charges =  -0.00000
 Mulliken charges with hydrogens summed into heavy atoms:
               1
     1  Cl  -0.007663
     2  C   -0.137065
     3  C    0.029640
     4  C    0.015610
     5  C    0.002676
     6  C   -0.008740
     7  C    0.101916
     8  C   -0.010658
     9  C    0.148054
    10  N   -0.133770
 Electronic spatial extent (au):  <R**2>=           1751.0660
 Charge=             -0.0000 electrons
 Dipole moment (field-independent basis, Debye):
    X=             -0.7793    Y=             -0.5963    Z=             -0.7541  Tot=              1.2376
 Quadrupole moment (field-independent basis, Debye-Ang):
   XX=            -62.1082   YY=            -67.7473   ZZ=            -64.7165
   XY=              4.3340   XZ=              0.0948   YZ=             -0.0087
 Traceless Quadrupole moment (field-independent basis, Debye-Ang):
   XX=              2.7491   YY=             -2.8900   ZZ=              0.1409
   XY=              4.3340   XZ=              0.0948   YZ=             -0.0087
 Octapole moment (field-independent basis, Debye-Ang**2):
  XXX=             -6.4443  YYY=              2.5798  ZZZ=             -7.0902  XYY=            -11.2678
  XXY=             11.1432  XXZ=            -14.3592  XZZ=             13.5643  YZZ=             -0.3320
  YYZ=              0.2707  XYZ=              2.4816
 Hexadecapole moment (field-independent basis, Debye-Ang**3):
 XXXX=          -1181.3941 YYYY=           -840.3442 ZZZZ=           -195.5801 XXXY=             32.5509
 XXXZ=             -8.7005 YYYX=             33.1607 YYYZ=             -6.3110 ZZZX=            -19.6855
 ZZZY=             10.4991 XXYY=           -367.2077 XXZZ=           -221.9189 YYZZ=           -175.4689
 XXYZ=              8.1659 YYXZ=              0.8402 ZZXY=            -16.2291
 N-N= 5.861768670999D+02 E-N=-3.113208213514D+03  KE= 8.209750267025D+02
 Calling FoFJK, ICntrl=      2127 FMM=F ISym2X=0 I1Cent= 0 IOpClX= 0 NMat=1 NMatS=1 NMatT=0.
 ***** Axes restored to original set *****
 -------------------------------------------------------------------
 Center     Atomic                   Forces (Hartrees/Bohr)
 Number     Number              X              Y              Z
 -------------------------------------------------------------------
      1       17           0.005879782    0.008759495    0.006041948
      2        6          -0.011066105   -0.016903602   -0.011562858
      3        6          -0.001635838    0.000088242   -0.000670835
      4        6           0.005224028   -0.001498616    0.002017782
      5        6           0.001042274    0.001361189    0.000593142
      6        6          -0.008683750    0.007856779   -0.002607606
      7        6           0.019882750   -0.003533311    0.007833875
      8        6          -0.004989618    0.004115094    0.002955059
      9        6          -0.004684993    0.002794472   -0.003061355
     10        7           0.000729626   -0.012951675   -0.001931348
     11        1          -0.000848134    0.003118914    0.000649043
     12        1          -0.002924435    0.001376321   -0.000925380
     13        1          -0.001489204   -0.002560598   -0.001456453
     14        1           0.003317066   -0.001154996    0.001419437
     15        1          -0.000066740   -0.003026413   -0.005093428
     16        1           0.001383460    0.005040317    0.001431302
     17        1           0.001201223   -0.002440352    0.002196145
     18        1          -0.002469974    0.007416228    0.007071294
     19        1          -0.003620804    0.000381529   -0.002729803
     20        1           0.003819387    0.001760983   -0.002169962
 -------------------------------------------------------------------
 Cartesian Forces:  Max     0.019882750 RMS     0.005601885

 GradGradGradGradGradGradGradGradGradGradGradGradGradGradGradGradGradGrad
 Berny optimization.
 FormGI is forming the generalized inverse of G from B-inverse, IUseBI=4.
 Internal  Forces:  Max     0.012097271 RMS     0.003052417
 Search for a local minimum.
 Step number   1 out of a maximum of  108
 All quantities printed in internal units (Hartrees-Bohrs-Radians)
 Mixed Optimization -- RFO/linear search
 Second derivative matrix not updated -- first step.
 ITU=  0
     Eigenvalues ---    0.00258   0.00378   0.00985   0.01380   0.02057
     Eigenvalues ---    0.02082   0.02121   0.02136   0.02151   0.02159
     Eigenvalues ---    0.02160   0.02163   0.03732   0.04380   0.04610
     Eigenvalues ---    0.05232   0.05438   0.09139   0.09593   0.12627
     Eigenvalues ---    0.13012   0.16000   0.16000   0.16000   0.16000
     Eigenvalues ---    0.16000   0.16000   0.21887   0.21889   0.22000
     Eigenvalues ---    0.22490   0.24480   0.25000   0.25000   0.28660
     Eigenvalues ---    0.29483   0.32484   0.34542   0.34561   0.34669
     Eigenvalues ---    0.34776   0.35837   0.35890   0.35935   0.35973
     Eigenvalues ---    0.37797   0.41749   0.42005   0.45375   0.45539
     Eigenvalues ---    0.45795   0.46047   0.46390   0.46532
 RFO step:  Lambda=-5.02469950D-03 EMin= 2.57807757D-03
 Linear search not attempted -- first point.
 Iteration  1 RMS(Cart)=  0.05293236 RMS(Int)=  0.00091721
 Iteration  2 RMS(Cart)=  0.00136227 RMS(Int)=  0.00026432
 Iteration  3 RMS(Cart)=  0.00000064 RMS(Int)=  0.00026432
 Variable       Old X    -DE/DX   Delta X   Delta X   Delta X     New X
                                 (Linear)    (Quad)   (Total)
    R1        3.26967   0.01210   0.00000   0.03667   0.03667   3.30634
    R2        2.63764   0.00028   0.00000   0.00072   0.00073   2.63837
    R3        2.65616  -0.00177   0.00000  -0.00399  -0.00396   2.65220
    R4        2.63575  -0.00178   0.00000  -0.00359  -0.00362   2.63213
    R5        2.04123   0.00320   0.00000   0.00876   0.00876   2.05000
    R6        2.63448  -0.00051   0.00000  -0.00100  -0.00104   2.63345
    R7        2.04183   0.00320   0.00000   0.00878   0.00878   2.05061
    R8        2.63614   0.00043   0.00000   0.00078   0.00077   2.63691
    R9        2.04254   0.00330   0.00000   0.00907   0.00907   2.05161
   R10        2.64552  -0.00024   0.00000  -0.00073  -0.00070   2.64481
   R11        2.04337   0.00243   0.00000   0.00668   0.00668   2.05005
   R12        2.89005  -0.00889   0.00000  -0.02966  -0.02966   2.86039
   R13        2.90718  -0.00442   0.00000  -0.01514  -0.01514   2.89204
   R14        2.06215   0.00200   0.00000   0.00568   0.00568   2.06783
   R15        2.06040   0.00354   0.00000   0.01002   0.01002   2.07043
   R16        2.74661   0.01137   0.00000   0.02970   0.02970   2.77631
   R17        2.06393   0.00235   0.00000   0.00671   0.00671   2.07065
   R18        2.06425   0.00629   0.00000   0.01796   0.01796   2.08221
   R19        1.91355   0.00449   0.00000   0.00975   0.00975   1.92330
   R20        1.91063   0.00464   0.00000   0.01002   0.01002   1.92065
    A1        2.06626  -0.00131   0.00000  -0.00514  -0.00521   2.06105
    A2        2.12391  -0.00493   0.00000  -0.01932  -0.01939   2.10452
    A3        2.09301   0.00624   0.00000   0.02446   0.02448   2.11749
    A4        2.10162  -0.00211   0.00000  -0.00879  -0.00879   2.09284
    A5        2.08741   0.00023   0.00000  -0.00058  -0.00058   2.08683
    A6        2.09415   0.00188   0.00000   0.00937   0.00937   2.10352
    A7        2.09233  -0.00038   0.00000  -0.00119  -0.00124   2.09109
    A8        2.09437  -0.00087   0.00000  -0.00582  -0.00579   2.08857
    A9        2.09649   0.00125   0.00000   0.00700   0.00703   2.10352
   A10        2.09409  -0.00091   0.00000  -0.00423  -0.00427   2.08982
   A11        2.09574   0.00049   0.00000   0.00230   0.00232   2.09806
   A12        2.09336   0.00042   0.00000   0.00192   0.00194   2.09530
   A13        2.10381   0.00440   0.00000   0.01875   0.01878   2.12259
   A14        2.08532   0.00077   0.00000   0.00859   0.00857   2.09389
   A15        2.09404  -0.00516   0.00000  -0.02734  -0.02735   2.06669
   A16        2.08151  -0.00724   0.00000  -0.02903  -0.02901   2.05250
   A17        2.12404   0.00340   0.00000   0.01363   0.01353   2.13757
   A18        2.07762   0.00384   0.00000   0.01532   0.01522   2.09284
   A19        1.99141  -0.00226   0.00000  -0.02012  -0.02069   1.97073
   A20        1.91745  -0.00034   0.00000  -0.02062  -0.02168   1.89577
   A21        1.89756   0.00219   0.00000   0.02377   0.02388   1.92144
   A22        1.91091  -0.00099   0.00000  -0.02413  -0.02499   1.88592
   A23        1.91448  -0.00077   0.00000   0.00008   0.00031   1.91479
   A24        1.82458   0.00262   0.00000   0.04737   0.04758   1.87216
   A25        1.92184  -0.00094   0.00000  -0.00285  -0.00326   1.91858
   A26        1.91970  -0.00120   0.00000  -0.03453  -0.03523   1.88446
   A27        1.92722  -0.00440   0.00000  -0.02662  -0.02748   1.89974
   A28        1.90770  -0.00087   0.00000  -0.01775  -0.01829   1.88941
   A29        1.92314   0.00709   0.00000   0.08205   0.08221   2.00535
   A30        1.86336   0.00039   0.00000  -0.00034  -0.00126   1.86211
   A31        1.89575   0.00130   0.00000   0.00868   0.00868   1.90443
   A32        1.92791  -0.00107   0.00000  -0.00569  -0.00568   1.92223
   A33        1.85203   0.00005   0.00000   0.00194   0.00195   1.85398
    D1        3.14027   0.00025   0.00000   0.00900   0.00908  -3.13383
    D2       -0.00225   0.00022   0.00000   0.00820   0.00825   0.00600
    D3       -0.00074  -0.00018   0.00000  -0.00793  -0.00796  -0.00870
    D4        3.13993  -0.00021   0.00000  -0.00873  -0.00879   3.13114
    D5       -3.13945  -0.00028   0.00000  -0.00864  -0.00869   3.13504
    D6       -0.00260  -0.00066   0.00000  -0.02928  -0.02911  -0.03171
    D7        0.00154   0.00016   0.00000   0.00887   0.00877   0.01032
    D8        3.13839  -0.00021   0.00000  -0.01177  -0.01165   3.12674
    D9       -0.00047   0.00007   0.00000   0.00211   0.00207   0.00161
   D10        3.14059   0.00002   0.00000   0.00092   0.00088   3.14147
   D11       -3.14113   0.00010   0.00000   0.00292   0.00291  -3.13821
   D12       -0.00007   0.00005   0.00000   0.00173   0.00173   0.00165
   D13        0.00084   0.00006   0.00000   0.00265   0.00261   0.00345
   D14       -3.14107  -0.00003   0.00000  -0.00040  -0.00042  -3.14149
   D15       -3.14021   0.00010   0.00000   0.00385   0.00381  -3.13640
   D16        0.00106   0.00002   0.00000   0.00079   0.00078   0.00185
   D17       -0.00002  -0.00007   0.00000  -0.00159  -0.00159  -0.00161
   D18       -3.13617  -0.00006   0.00000  -0.00182  -0.00179  -3.13796
   D19       -3.14129   0.00002   0.00000   0.00146   0.00143  -3.13986
   D20        0.00574   0.00003   0.00000   0.00124   0.00124   0.00698
   D21       -0.00117  -0.00004   0.00000  -0.00415  -0.00399  -0.00516
   D22       -3.13815   0.00033   0.00000   0.01594   0.01588  -3.12226
   D23        3.13495  -0.00003   0.00000  -0.00381  -0.00369   3.13126
   D24       -0.00202   0.00034   0.00000   0.01628   0.01619   0.01416
   D25       -1.38379  -0.00097   0.00000  -0.05809  -0.05769  -1.44148
   D26        2.74606   0.00224   0.00000   0.00423   0.00415   2.75021
   D27        0.75905  -0.00188   0.00000  -0.05407  -0.05397   0.70508
   D28        1.75307  -0.00138   0.00000  -0.07881  -0.07869   1.67438
   D29       -0.40027   0.00183   0.00000  -0.01648  -0.01684  -0.41711
   D30       -2.38728  -0.00228   0.00000  -0.07478  -0.07496  -2.46224
   D31       -1.11957  -0.00132   0.00000  -0.00318  -0.00310  -1.12266
   D32        3.06017   0.00113   0.00000   0.04277   0.04266   3.10283
   D33        1.00807   0.00404   0.00000   0.08036   0.07973   1.08780
   D34        1.03731  -0.00416   0.00000  -0.06338  -0.06282   0.97449
   D35       -1.06614  -0.00172   0.00000  -0.01744  -0.01706  -1.08320
   D36       -3.11824   0.00120   0.00000   0.02015   0.02000  -3.09824
   D37        3.03003  -0.00200   0.00000  -0.02001  -0.01976   3.01027
   D38        0.92658   0.00045   0.00000   0.02593   0.02600   0.95257
   D39       -1.12552   0.00336   0.00000   0.06352   0.06306  -1.06246
   D40        1.02080   0.00061   0.00000   0.04488   0.04515   1.06595
   D41        3.04530   0.00082   0.00000   0.04907   0.04934   3.09464
   D42        3.13146  -0.00201   0.00000  -0.01091  -0.01088   3.12058
   D43       -1.12723  -0.00180   0.00000  -0.00671  -0.00669  -1.13392
   D44       -1.10925   0.00206   0.00000   0.02583   0.02554  -1.08371
   D45        0.91524   0.00228   0.00000   0.03003   0.02973   0.94497
         Item               Value     Threshold  Converged?
 Maximum Force            0.012097     0.000450     NO 
 RMS     Force            0.003052     0.000300     NO 
 Maximum Displacement     0.217763     0.001800     NO 
 RMS     Displacement     0.053160     0.001200     NO 
 Predicted change in Energy=-2.654459D-03
 GradGradGradGradGradGradGradGradGradGradGradGradGradGradGradGradGradGrad

                          Input orientation:                          
 ---------------------------------------------------------------------
 Center     Atomic      Atomic             Coordinates (Angstroms)
 Number     Number       Type             X           Y           Z
 ---------------------------------------------------------------------
      1         17           0       -0.239567    2.623618    1.390935
      2          6           0       -0.954137    1.260243    0.559164
      3          6           0       -2.221895    1.423672   -0.002411
      4          6           0       -2.830297    0.360336   -0.665155
      5          6           0       -2.170895   -0.863438   -0.763009
      6          6           0       -0.906713   -1.016083   -0.192338
      7          6           0       -0.273868    0.035138    0.480904
      8          6           0        1.108574   -0.165496    1.063786
      9          6           0        2.223220    0.321928    0.135289
     10          7           0        2.235822   -0.479815   -1.095761
     11          1           0       -2.726042    2.380386    0.083321
     12          1           0       -3.815752    0.491707   -1.100056
     13          1           0       -2.639035   -1.696556   -1.278206
     14          1           0       -0.388533   -1.966065   -0.269179
     15          1           0        1.260142   -1.234151    1.243735
     16          1           0        1.186021    0.341512    2.031947
     17          1           0        3.179662    0.176111    0.649680
     18          1           0        2.109016    1.406950   -0.018908
     19          1           0        1.344451   -0.369562   -1.574454
     20          1           0        2.945826   -0.130435   -1.733584
 ---------------------------------------------------------------------
                    Distance matrix (angstroms):
                    1          2          3          4          5
     1  Cl   0.000000
     2  C    1.749642   0.000000
     3  C    2.703869   1.396168   0.000000
     4  C    4.007722   2.414283   1.392862   0.000000
     5  C    4.530900   2.781845   2.410805   1.393560   0.000000
     6  C    4.024830   2.397637   2.778161   2.412107   1.395393
     7  C    2.744005   1.403486   2.440579   2.820378   2.439973
     8  C    3.115071   2.557763   3.841126   4.333640   3.818274
     9  C    3.597185   3.340015   4.581686   5.116661   4.638995
    10  N    4.684282   3.992796   4.968895   5.153333   4.435882
    11  H    2.819854   2.149603   1.084812   2.156777   3.398067
    12  H    4.851719   3.395953   2.147967   1.085135   2.157677
    13  H    5.616553   3.867489   3.396687   2.154813   1.085666
    14  H    4.882967   3.378628   3.862991   3.395755   2.153246
    15  H    4.141639   3.404948   4.554282   4.787268   3.992050
    16  H    2.766081   2.755618   4.113827   4.837925   4.531287
    17  H    4.269763   4.274557   5.581975   6.154863   5.630703
    18  H    2.997296   3.120673   4.330975   5.090172   4.901631
    19  H    4.501308   3.534416   4.290202   4.334524   3.641430
    20  H    5.243487   4.732906   5.667235   5.894574   5.259291
                    6          7          8          9         10
     6  C    0.000000
     7  C    1.399575   0.000000
     8  C    2.522444   1.513655   0.000000
     9  C    3.419662   2.537153   1.530400   0.000000
    10  N    3.313500   3.008254   2.456242   1.469160   0.000000
    11  H    3.862894   3.416346   4.706071   5.360517   5.847314
    12  H    3.399984   3.905487   5.418774   6.166367   6.129064
    13  H    2.154784   3.418662   4.676927   5.451034   5.027721
    14  H    1.084842   2.140231   2.694471   3.495677   3.127206
    15  H    2.608662   2.132181   1.094248   2.139522   2.644658
    16  H    3.342160   2.151947   1.095623   2.161823   3.399884
    17  H    4.339214   3.460525   2.139530   1.095739   2.089889
    18  H    3.872439   2.794605   2.155388   1.101858   2.176137
    19  H    2.719554   2.647118   2.656613   2.042942   1.017765
    20  H    4.242861   3.911240   3.346940   2.054137   1.016362
                   11         12         13         14         15
    11  H    0.000000
    12  H    2.480919   0.000000
    13  H    4.299161   2.490963   0.000000
    14  H    4.947711   4.298468   2.481034   0.000000
    15  H    5.504644   5.851208   4.666646   2.354302   0.000000
    16  H    4.822695   5.903366   5.453612   3.619297   1.763373
    17  H    6.329055   7.217825   6.409436   4.262070   2.454852
    18  H    4.933135   6.091751   5.810471   4.204476   3.047994
    19  H    5.184530   5.253050   4.209138   2.693659   2.949035
    20  H    6.463394   6.819630   5.818142   4.078232   3.595017
                   16         17         18         19         20
    16  H    0.000000
    17  H    2.431589   0.000000
    18  H    2.488591   1.763025   0.000000
    19  H    3.679246   2.934711   2.481991   0.000000
    20  H    4.183165   2.414249   2.450289   1.626931   0.000000
 Stoichiometry    C8H10ClN
 Framework group  C1[X(C8H10ClN)]
 Deg. of freedom    54
 Full point group                 C1      NOp   1
 Largest Abelian subgroup         C1      NOp   1
 Largest concise Abelian subgroup C1      NOp   1
                         Standard orientation:                         
 ---------------------------------------------------------------------
 Center     Atomic      Atomic             Coordinates (Angstroms)
 Number     Number       Type             X           Y           Z
 ---------------------------------------------------------------------
      1         17           0       -0.271891    2.328514   -0.037139
      2          6           0       -0.774922    0.653947    0.026340
      3          6           0       -2.066472    0.338896   -0.400187
      4          6           0       -2.509546   -0.980914   -0.357158
      5          6           0       -1.661427   -1.981416    0.113691
      6          6           0       -0.374932   -1.652974    0.542852
      7          6           0        0.094502   -0.334827    0.512345
      8          6           0        1.505795   -0.025572    0.963749
      9          6           0        2.501105    0.042741   -0.196775
     10          7           0        2.612857   -1.274009   -0.838734
     11          1           0       -2.718071    1.127310   -0.761627
     12          1           0       -3.514164   -1.221306   -0.689535
     13          1           0       -2.000046   -3.012286    0.149951
     14          1           0        0.289634   -2.429298    0.906933
     15          1           0        1.834919   -0.814550    1.646809
     16          1           0        1.524282    0.916778    1.522339
     17          1           0        3.481540    0.308707    0.213898
     18          1           0        2.206817    0.863679   -0.870235
     19          1           0        1.703343   -1.543157   -1.207771
     20          1           0        3.239273   -1.221844   -1.637404
 ---------------------------------------------------------------------
 Rotational constants (GHZ):           1.3337120           1.0675794           0.6608192
 Standard basis: 6-31G(d,p) (6D, 7F)
 There are   204 symmetry adapted cartesian basis functions of A   symmetry.
 There are   204 symmetry adapted basis functions of A   symmetry.
   204 basis functions,   374 primitive gaussians,   204 cartesian basis functions
    41 alpha electrons       41 beta electrons
       nuclear repulsion energy       586.0945642486 Hartrees.
 NAtoms=   20 NActive=   20 NUniq=   20 SFac= 1.00D+00 NAtFMM=   60 NAOKFM=F Big=F
 Integral buffers will be    131072 words long.
 Raffenetti 2 integral format.
 Two-electron integral symmetry is turned on.
 Nuclear repulsion after empirical dispersion term =      586.0549225081 Hartrees.
 One-electron integrals computed using PRISM.
 NBasis=   204 RedAO= T EigKep=  4.40D-04  NBF=   204
 NBsUse=   204 1.00D-06 EigRej= -1.00D+00 NBFU=   204
 Initial guess from the checkpoint file:  "N3_conf-1.chk"
 B after Tr=     0.000000   -0.000000    0.000000
         Rot=    0.999515    0.011192   -0.003033   -0.028911 Ang=   3.57 deg.
 ExpMin= 1.43D-01 ExpMax= 2.52D+04 ExpMxC= 3.78D+03 IAcc=3 IRadAn=         5 AccDes= 0.00D+00
 Harris functional with IExCor=  402 and IRadAn=       5 diagonalized for initial guess.
 HarFok:  IExCor=  402 AccDes= 0.00D+00 IRadAn=         5 IDoV= 1 UseB2=F ITyADJ=14
 ICtDFT=  3500011 ScaDFX=  1.000000  1.000000  1.000000  1.000000
 FoFCou: FMM=F IPFlag=           0 FMFlag=      100000 FMFlg1=           0
         NFxFlg=           0 DoJE=T BraDBF=F KetDBF=T FulRan=T
         wScrn=  0.000000 ICntrl=       500 IOpCl=  0 I1Cent=   200000004 NGrid=           0
         NMat0=    1 NMatS0=      1 NMatT0=    0 NMatD0=    1 NMtDS0=    0 NMtDT0=    0
 Petite list used in FoFCou.
 Requested convergence on RMS density matrix=1.00D-08 within 128 cycles.
 Requested convergence on MAX density matrix=1.00D-06.
 Requested convergence on             energy=1.00D-06.
 No special actions if energy rises.
 Integral accuracy reduced to 1.0D-05 until final iterations.
 Initial convergence to 1.0D-05 achieved.  Increase integral accuracy.
 SCF Done:  E(RB3LYP) =  -825.873789981     A.U. after   11 cycles
            NFock= 11  Conv=0.65D-08     -V/T= 2.0061
 Calling FoFJK, ICntrl=      2127 FMM=F ISym2X=0 I1Cent= 0 IOpClX= 0 NMat=1 NMatS=1 NMatT=0.
 ***** Axes restored to original set *****
 -------------------------------------------------------------------
 Center     Atomic                   Forces (Hartrees/Bohr)
 Number     Number              X              Y              Z
 -------------------------------------------------------------------
      1       17           0.002243747    0.004156827    0.002310223
      2        6          -0.006051418   -0.006993251   -0.004666607
      3        6           0.000316973    0.002446413    0.000861141
      4        6           0.000599027   -0.000573427   -0.000035846
      5        6           0.001041594   -0.000636486    0.000034980
      6        6          -0.003993821    0.000566987   -0.002266155
      7        6           0.005596554    0.001520404    0.003765629
      8        6          -0.003890003   -0.002280280    0.003062413
      9        6           0.001869381   -0.000276478   -0.001777345
     10        7          -0.000449783    0.000848444    0.002025093
     11        1           0.000522737   -0.000139473    0.000203738
     12        1          -0.000069013    0.000181465    0.000046093
     13        1           0.000302219    0.000015835    0.000173391
     14        1           0.000487865   -0.000349701    0.000437286
     15        1           0.000154022   -0.000123925   -0.000222568
     16        1           0.000257280    0.000622563   -0.001724582
     17        1           0.000737049   -0.000129422   -0.000710412
     18        1          -0.000315547   -0.000085826   -0.001350569
     19        1           0.000108702    0.000943716   -0.000387573
     20        1           0.000532433    0.000285613    0.000221672
 -------------------------------------------------------------------
 Cartesian Forces:  Max     0.006993251 RMS     0.002096308

 GradGradGradGradGradGradGradGradGradGradGradGradGradGradGradGradGradGrad
 Berny optimization.
 Using GEDIIS/GDIIS optimizer.
 FormGI is forming the generalized inverse of G from B-inverse, IUseBI=4.
 Internal  Forces:  Max     0.005253876 RMS     0.000972598
 Search for a local minimum.
 Step number   2 out of a maximum of  108
 All quantities printed in internal units (Hartrees-Bohrs-Radians)
 Mixed Optimization -- En-DIIS/RFO-DIIS
 Update second derivatives using D2CorX and points    1    2
 DE= -2.62D-03 DEPred=-2.65D-03 R= 9.87D-01
 TightC=F SS=  1.41D+00  RLast= 2.57D-01 DXNew= 5.0454D-01 7.7092D-01
 Trust test= 9.87D-01 RLast= 2.57D-01 DXMaxT set to 5.05D-01
 ITU=  1  0
 Use linear search instead of GDIIS.
     Eigenvalues ---    0.00257   0.00385   0.00969   0.01359   0.02056
     Eigenvalues ---    0.02092   0.02121   0.02135   0.02151   0.02159
     Eigenvalues ---    0.02160   0.02163   0.04004   0.04465   0.04644
     Eigenvalues ---    0.05239   0.05656   0.09185   0.09527   0.12683
     Eigenvalues ---    0.12872   0.15710   0.16000   0.16000   0.16000
     Eigenvalues ---    0.16000   0.16058   0.21269   0.21967   0.22034
     Eigenvalues ---    0.22380   0.22664   0.24991   0.25023   0.28721
     Eigenvalues ---    0.29627   0.31141   0.34544   0.34564   0.34667
     Eigenvalues ---    0.34968   0.35816   0.35907   0.35939   0.36044
     Eigenvalues ---    0.39668   0.41786   0.41997   0.45344   0.45508
     Eigenvalues ---    0.45741   0.46156   0.46528   0.46884
 RFO step:  Lambda=-5.45969415D-04 EMin= 2.57475977D-03
 Quartic linear search produced a step of  0.04611.
 Iteration  1 RMS(Cart)=  0.02109705 RMS(Int)=  0.00037673
 Iteration  2 RMS(Cart)=  0.00042411 RMS(Int)=  0.00002842
 Iteration  3 RMS(Cart)=  0.00000016 RMS(Int)=  0.00002842
 Variable       Old X    -DE/DX   Delta X   Delta X   Delta X     New X
                                 (Linear)    (Quad)   (Total)
    R1        3.30634   0.00525   0.00169   0.01881   0.02050   3.32685
    R2        2.63837  -0.00154   0.00003  -0.00344  -0.00340   2.63498
    R3        2.65220  -0.00001  -0.00018  -0.00020  -0.00036   2.65184
    R4        2.63213   0.00029  -0.00017   0.00043   0.00025   2.63238
    R5        2.05000  -0.00035   0.00040  -0.00055  -0.00015   2.04985
    R6        2.63345   0.00031  -0.00005   0.00062   0.00056   2.63400
    R7        2.05061   0.00007   0.00040   0.00065   0.00106   2.05167
    R8        2.63691  -0.00128   0.00004  -0.00285  -0.00282   2.63409
    R9        2.05161  -0.00022   0.00042  -0.00018   0.00024   2.05185
   R10        2.64481   0.00184  -0.00003   0.00420   0.00417   2.64899
   R11        2.05005   0.00051   0.00031   0.00183   0.00214   2.05219
   R12        2.86039  -0.00122  -0.00137  -0.00587  -0.00724   2.85315
   R13        2.89204   0.00352  -0.00070   0.01201   0.01131   2.90334
   R14        2.06783   0.00011   0.00026   0.00062   0.00088   2.06871
   R15        2.07043  -0.00122   0.00046  -0.00313  -0.00267   2.06776
   R16        2.77631  -0.00269   0.00137  -0.00586  -0.00449   2.77182
   R17        2.07065   0.00033   0.00031   0.00134   0.00165   2.07230
   R18        2.08221   0.00014   0.00083   0.00136   0.00219   2.08440
   R19        1.92330   0.00019   0.00045   0.00095   0.00140   1.92470
   R20        1.92065   0.00033   0.00046   0.00128   0.00175   1.92239
    A1        2.06105  -0.00124  -0.00024  -0.00542  -0.00570   2.05535
    A2        2.10452  -0.00126  -0.00089  -0.00624  -0.00718   2.09734
    A3        2.11749   0.00250   0.00113   0.01185   0.01299   2.13049
    A4        2.09284  -0.00103  -0.00041  -0.00534  -0.00574   2.08709
    A5        2.08683   0.00004  -0.00003  -0.00066  -0.00069   2.08614
    A6        2.10352   0.00098   0.00043   0.00601   0.00643   2.10995
    A7        2.09109   0.00008  -0.00006   0.00024   0.00016   2.09125
    A8        2.08857  -0.00023  -0.00027  -0.00171  -0.00196   2.08661
    A9        2.10352   0.00015   0.00032   0.00147   0.00180   2.10532
   A10        2.08982  -0.00000  -0.00020  -0.00028  -0.00049   2.08933
   A11        2.09806   0.00027   0.00011   0.00193   0.00204   2.10010
   A12        2.09530  -0.00027   0.00009  -0.00165  -0.00155   2.09375
   A13        2.12259   0.00094   0.00087   0.00547   0.00635   2.12894
   A14        2.09389   0.00001   0.00040   0.00131   0.00170   2.09560
   A15        2.06669  -0.00095  -0.00126  -0.00678  -0.00805   2.05865
   A16        2.05250  -0.00249  -0.00134  -0.01193  -0.01326   2.03924
   A17        2.13757   0.00160   0.00062   0.00725   0.00781   2.14538
   A18        2.09284   0.00089   0.00070   0.00436   0.00500   2.09784
   A19        1.97073   0.00008  -0.00095  -0.00245  -0.00346   1.96727
   A20        1.89577   0.00008  -0.00100   0.00306   0.00201   1.89778
   A21        1.92144   0.00020   0.00110  -0.00054   0.00050   1.92194
   A22        1.88592   0.00003  -0.00115   0.00102  -0.00016   1.88575
   A23        1.91479  -0.00085   0.00001  -0.01081  -0.01080   1.90399
   A24        1.87216   0.00050   0.00219   0.01067   0.01287   1.88504
   A25        1.91858   0.00131  -0.00015   0.00567   0.00551   1.92409
   A26        1.88446   0.00010  -0.00162   0.00442   0.00278   1.88724
   A27        1.89974   0.00035  -0.00127   0.00322   0.00192   1.90166
   A28        1.88941  -0.00062  -0.00084  -0.00508  -0.00597   1.88345
   A29        2.00535  -0.00148   0.00379  -0.01108  -0.00729   1.99806
   A30        1.86211   0.00036  -0.00006   0.00355   0.00342   1.86553
   A31        1.90443  -0.00043   0.00040  -0.00464  -0.00426   1.90017
   A32        1.92223  -0.00084  -0.00026  -0.00801  -0.00830   1.91393
   A33        1.85398   0.00017   0.00009  -0.00356  -0.00352   1.85046
    D1       -3.13383  -0.00025   0.00042  -0.01214  -0.01172   3.13763
    D2        0.00600  -0.00019   0.00038  -0.00939  -0.00902  -0.00301
    D3       -0.00870   0.00004  -0.00037   0.00111   0.00076  -0.00793
    D4        3.13114   0.00009  -0.00041   0.00386   0.00347   3.13461
    D5        3.13504   0.00019  -0.00040   0.01132   0.01088  -3.13726
    D6       -0.03171   0.00002  -0.00134  -0.00331  -0.00462  -0.03633
    D7        0.01032  -0.00010   0.00040  -0.00228  -0.00191   0.00840
    D8        3.12674  -0.00027  -0.00054  -0.01691  -0.01742   3.10932
    D9        0.00161   0.00001   0.00010   0.00024   0.00034   0.00195
   D10        3.14147  -0.00001   0.00004  -0.00002   0.00002   3.14149
   D11       -3.13821  -0.00004   0.00013  -0.00253  -0.00239  -3.14060
   D12        0.00165  -0.00006   0.00008  -0.00279  -0.00271  -0.00106
   D13        0.00345  -0.00002   0.00012  -0.00047  -0.00036   0.00310
   D14       -3.14149  -0.00004  -0.00002  -0.00141  -0.00146   3.14024
   D15       -3.13640  -0.00001   0.00018  -0.00020  -0.00003  -3.13643
   D16        0.00185  -0.00003   0.00004  -0.00115  -0.00112   0.00072
   D17       -0.00161  -0.00003  -0.00007  -0.00074  -0.00083  -0.00245
   D18       -3.13796  -0.00005  -0.00008  -0.00213  -0.00224  -3.14020
   D19       -3.13986  -0.00001   0.00007   0.00020   0.00025  -3.13961
   D20        0.00698  -0.00003   0.00006  -0.00120  -0.00115   0.00582
   D21       -0.00516   0.00011  -0.00018   0.00213   0.00198  -0.00318
   D22       -3.12226   0.00026   0.00073   0.01632   0.01699  -3.10527
   D23        3.13126   0.00013  -0.00017   0.00353   0.00339   3.13465
   D24        0.01416   0.00028   0.00075   0.01771   0.01840   0.03256
   D25       -1.44148   0.00041  -0.00266   0.00142  -0.00117  -1.44265
   D26        2.75021   0.00027   0.00019  -0.00039  -0.00014   2.75007
   D27        0.70508  -0.00049  -0.00249  -0.01474  -0.01719   0.68789
   D28        1.67438   0.00019  -0.00363  -0.01375  -0.01742   1.65696
   D29       -0.41711   0.00004  -0.00078  -0.01557  -0.01640  -0.43351
   D30       -2.46224  -0.00072  -0.00346  -0.02992  -0.03345  -2.49569
   D31       -1.12266   0.00019  -0.00014   0.02880   0.02868  -1.09399
   D32        3.10283   0.00014   0.00197   0.02916   0.03114   3.13397
   D33        1.08780  -0.00053   0.00368   0.02094   0.02460   1.11240
   D34        0.97449   0.00036  -0.00290   0.03180   0.02893   1.00342
   D35       -1.08320   0.00030  -0.00079   0.03216   0.03139  -1.05181
   D36       -3.09824  -0.00036   0.00092   0.02394   0.02486  -3.07338
   D37        3.01027   0.00051  -0.00091   0.03922   0.03830   3.04857
   D38        0.95257   0.00045   0.00120   0.03959   0.04077   0.99334
   D39       -1.06246  -0.00021   0.00291   0.03137   0.03423  -1.02823
   D40        1.06595   0.00061   0.00208   0.04258   0.04466   1.11062
   D41        3.09464   0.00009   0.00228   0.03106   0.03336   3.12800
   D42        3.12058   0.00111  -0.00050   0.04814   0.04761  -3.11500
   D43       -1.13392   0.00059  -0.00031   0.03661   0.03631  -1.09762
   D44       -1.08371   0.00019   0.00118   0.04198   0.04314  -1.04057
   D45        0.94497  -0.00033   0.00137   0.03046   0.03185   0.97682
         Item               Value     Threshold  Converged?
 Maximum Force            0.005254     0.000450     NO 
 RMS     Force            0.000973     0.000300     NO 
 Maximum Displacement     0.125165     0.001800     NO 
 RMS     Displacement     0.020999     0.001200     NO 
 Predicted change in Energy=-2.842010D-04
 GradGradGradGradGradGradGradGradGradGradGradGradGradGradGradGradGradGrad

                          Input orientation:                          
 ---------------------------------------------------------------------
 Center     Atomic      Atomic             Coordinates (Angstroms)
 Number     Number       Type             X           Y           Z
 ---------------------------------------------------------------------
      1         17           0       -0.241894    2.626254    1.393896
      2          6           0       -0.960961    1.249199    0.565651
      3          6           0       -2.220742    1.420969   -0.006815
      4          6           0       -2.822997    0.357679   -0.675503
      5          6           0       -2.164137   -0.867373   -0.764844
      6          6           0       -0.907893   -1.020365   -0.180544
      7          6           0       -0.273187    0.027751    0.500336
      8          6           0        1.108047   -0.168110    1.077743
      9          6           0        2.219847    0.312675    0.132639
     10          7           0        2.204893   -0.469727   -1.107957
     11          1           0       -2.718186    2.381526    0.073964
     12          1           0       -3.803946    0.491893   -1.120994
     13          1           0       -2.626480   -1.702042   -1.283029
     14          1           0       -0.388781   -1.971864   -0.247734
     15          1           0        1.261895   -1.235286    1.267118
     16          1           0        1.195689    0.360741    2.031649
     17          1           0        3.184286    0.143609    0.626432
     18          1           0        2.120736    1.401599   -0.012510
     19          1           0        1.324224   -0.303328   -1.591782
     20          1           0        2.935588   -0.135800   -1.732016
 ---------------------------------------------------------------------
                    Distance matrix (angstroms):
                    1          2          3          4          5
     1  Cl   0.000000
     2  C    1.760491   0.000000
     3  C    2.707497   1.394371   0.000000
     4  C    4.011351   2.408827   1.392997   0.000000
     5  C    4.534381   2.774478   2.411290   1.393855   0.000000
     6  C    4.027437   2.389675   2.777385   2.410729   1.393902
     7  C    2.748026   1.403294   2.447698   2.827186   2.444917
     8  C    3.119418   2.559648   3.844773   4.336293   3.819854
     9  C    3.606049   3.343967   4.578930   5.107387   4.627883
    10  N    4.672380   3.972191   4.936952   5.113834   4.400486
    11  H    2.816759   2.147501   1.084733   2.160704   3.400870
    12  H    4.854727   3.391289   2.147350   1.085696   2.159496
    13  H    5.620171   3.860232   3.398020   2.156422   1.085794
    14  H    4.884590   3.371088   3.863346   3.396346   2.153878
    15  H    4.145956   3.406730   4.561508   4.795587   4.000240
    16  H    2.757885   2.754932   4.117211   4.845464   4.540603
    17  H    4.300144   4.290582   5.589900   6.150473   5.618128
    18  H    3.009947   3.139165   4.341525   5.096060   4.906565
    19  H    4.466481   3.505271   4.248777   4.298365   3.629137
    20  H    5.243726   4.730813   5.655757   5.875461   5.241929
                    6          7          8          9         10
     6  C    0.000000
     7  C    1.401784   0.000000
     8  C    2.524607   1.509824   0.000000
     9  C    3.414357   2.536060   1.536384   0.000000
    10  N    3.294349   2.995826   2.464007   1.466784   0.000000
    11  H    3.861969   3.420536   4.706196   5.354228   5.810619
    12  H    3.399779   3.912850   5.421967   6.155469   6.085313
    13  H    2.152602   3.422070   4.676846   5.435998   4.989130
    14  H    1.085975   2.138091   2.692752   3.488372   3.118260
    15  H    2.617231   2.130656   1.094713   2.144970   2.667641
    16  H    3.350569   2.147883   1.094212   2.158112   3.400779
    17  H    4.330355   3.461711   2.147468   1.096612   2.084106
    18  H    3.881590   2.807372   2.162909   1.103017   2.170010
    19  H    2.736436   2.652978   2.681675   2.038437   1.018505
    20  H    4.238144   3.912337   3.351969   2.047035   1.017286
                   11         12         13         14         15
    11  H    0.000000
    12  H    2.485460   0.000000
    13  H    4.304110   2.495202   0.000000
    14  H    4.947891   4.300702   2.480310   0.000000
    15  H    5.508720   5.860799   4.673389   2.358401   0.000000
    16  H    4.820220   5.912082   5.463620   3.625904   1.770930
    17  H    6.336614   7.211808   6.388855   4.243371   2.451003
    18  H    4.937905   6.095749   5.812302   4.211087   3.054213
    19  H    5.130714   5.210772   4.202355   2.743148   3.007614
    20  H    6.446988   6.796224   5.795800   4.077456   3.606234
                   16         17         18         19         20
    16  H    0.000000
    17  H    2.444647   0.000000
    18  H    2.473395   1.766897   0.000000
    19  H    3.686022   2.929173   2.456686   0.000000
    20  H    4.176000   2.387927   2.446279   1.626107   0.000000
 Stoichiometry    C8H10ClN
 Framework group  C1[X(C8H10ClN)]
 Deg. of freedom    54
 Full point group                 C1      NOp   1
 Largest Abelian subgroup         C1      NOp   1
 Largest concise Abelian subgroup C1      NOp   1
                         Standard orientation:                         
 ---------------------------------------------------------------------
 Center     Atomic      Atomic             Coordinates (Angstroms)
 Number     Number       Type             X           Y           Z
 ---------------------------------------------------------------------
      1         17           0       -0.266743    2.333240   -0.040864
      2          6           0       -0.775873    0.649736    0.036130
      3          6           0       -2.062629    0.339601   -0.402445
      4          6           0       -2.502970   -0.981369   -0.362725
      5          6           0       -1.656669   -1.980002    0.116168
      6          6           0       -0.376115   -1.648282    0.555606
      7          6           0        0.099045   -0.329725    0.530506
      8          6           0        1.509645   -0.022292    0.972391
      9          6           0        2.501165    0.027399   -0.200167
     10          7           0        2.578144   -1.282566   -0.855545
     11          1           0       -2.707001    1.130601   -0.770887
     12          1           0       -3.504989   -1.222330   -0.704237
     13          1           0       -1.991861   -3.012142    0.151945
     14          1           0        0.288544   -2.421857    0.928635
     15          1           0        1.840149   -0.804695    1.663049
     16          1           0        1.537374    0.933010    1.505243
     17          1           0        3.493940    0.262140    0.202140
     18          1           0        2.222375    0.858032   -0.870222
     19          1           0        1.668708   -1.503974   -1.257114
     20          1           0        3.226789   -1.236292   -1.637841
 ---------------------------------------------------------------------
 Rotational constants (GHZ):           1.3271077           1.0722345           0.6632233
 Standard basis: 6-31G(d,p) (6D, 7F)
 There are   204 symmetry adapted cartesian basis functions of A   symmetry.
 There are   204 symmetry adapted basis functions of A   symmetry.
   204 basis functions,   374 primitive gaussians,   204 cartesian basis functions
    41 alpha electrons       41 beta electrons
       nuclear repulsion energy       585.9737187772 Hartrees.
 NAtoms=   20 NActive=   20 NUniq=   20 SFac= 1.00D+00 NAtFMM=   60 NAOKFM=F Big=F
 Integral buffers will be    131072 words long.
 Raffenetti 2 integral format.
 Two-electron integral symmetry is turned on.
 Nuclear repulsion after empirical dispersion term =      585.9340796628 Hartrees.
 One-electron integrals computed using PRISM.
 NBasis=   204 RedAO= T EigKep=  4.39D-04  NBF=   204
 NBsUse=   204 1.00D-06 EigRej= -1.00D+00 NBFU=   204
 Initial guess from the checkpoint file:  "N3_conf-1.chk"
 B after Tr=    -0.000000    0.000000    0.000000
         Rot=    0.999999    0.000644   -0.001033    0.001182 Ang=   0.19 deg.
 ExpMin= 1.43D-01 ExpMax= 2.52D+04 ExpMxC= 3.78D+03 IAcc=3 IRadAn=         5 AccDes= 0.00D+00
 Harris functional with IExCor=  402 and IRadAn=       5 diagonalized for initial guess.
 HarFok:  IExCor=  402 AccDes= 0.00D+00 IRadAn=         5 IDoV= 1 UseB2=F ITyADJ=14
 ICtDFT=  3500011 ScaDFX=  1.000000  1.000000  1.000000  1.000000
 FoFCou: FMM=F IPFlag=           0 FMFlag=      100000 FMFlg1=           0
         NFxFlg=           0 DoJE=T BraDBF=F KetDBF=T FulRan=T
         wScrn=  0.000000 ICntrl=       500 IOpCl=  0 I1Cent=   200000004 NGrid=           0
         NMat0=    1 NMatS0=      1 NMatT0=    0 NMatD0=    1 NMtDS0=    0 NMtDT0=    0
 Petite list used in FoFCou.
 Requested convergence on RMS density matrix=1.00D-08 within 128 cycles.
 Requested convergence on MAX density matrix=1.00D-06.
 Requested convergence on             energy=1.00D-06.
 No special actions if energy rises.
 Integral accuracy reduced to 1.0D-05 until final iterations.
 Initial convergence to 1.0D-05 achieved.  Increase integral accuracy.
 SCF Done:  E(RB3LYP) =  -825.874132772     A.U. after   11 cycles
            NFock= 11  Conv=0.62D-08     -V/T= 2.0061
 Calling FoFJK, ICntrl=      2127 FMM=F ISym2X=0 I1Cent= 0 IOpClX= 0 NMat=1 NMatS=1 NMatT=0.
 ***** Axes restored to original set *****
 -------------------------------------------------------------------
 Center     Atomic                   Forces (Hartrees/Bohr)
 Number     Number              X              Y              Z
 -------------------------------------------------------------------
      1       17           0.000616048    0.001429039    0.000867327
      2        6          -0.001289811   -0.002390782   -0.001545893
      3        6           0.000243967    0.001149539    0.000522853
      4        6          -0.000478142   -0.000077376   -0.000253169
      5        6           0.000361872   -0.000251780    0.000200455
      6        6          -0.000515517   -0.000854516   -0.000521862
      7        6           0.000677369    0.001628078    0.000467722
      8        6          -0.000789373   -0.001153791    0.000851719
      9        6           0.001240351    0.000132734   -0.000370982
     10        7          -0.000931048    0.000757553    0.000203965
     11        1           0.000273657   -0.000422722    0.000044723
     12        1           0.000250527   -0.000104685    0.000067075
     13        1           0.000231979    0.000254295    0.000168317
     14        1          -0.000130152    0.000117801   -0.000110711
     15        1           0.000092501    0.000477853    0.000206753
     16        1           0.000152798   -0.000165190   -0.000440259
     17        1          -0.000217446    0.000348066   -0.000140222
     18        1          -0.000361689   -0.000699708   -0.000251015
     19        1           0.000453953    0.000169892   -0.000270935
     20        1           0.000118158   -0.000344300    0.000304140
 -------------------------------------------------------------------
 Cartesian Forces:  Max     0.002390782 RMS     0.000683566

 GradGradGradGradGradGradGradGradGradGradGradGradGradGradGradGradGradGrad
 Berny optimization.
 Using GEDIIS/GDIIS optimizer.
 FormGI is forming the generalized inverse of G from B-inverse, IUseBI=4.
 Internal  Forces:  Max     0.001777656 RMS     0.000304949
 Search for a local minimum.
 Step number   3 out of a maximum of  108
 All quantities printed in internal units (Hartrees-Bohrs-Radians)
 Mixed Optimization -- En-DIIS/RFO-DIIS
 Swapping is turned off.
 Update second derivatives using D2CorX and points    1    2    3
 DE= -3.43D-04 DEPred=-2.84D-04 R= 1.21D+00
 TightC=F SS=  1.41D+00  RLast= 1.55D-01 DXNew= 8.4853D-01 4.6451D-01
 Trust test= 1.21D+00 RLast= 1.55D-01 DXMaxT set to 5.05D-01
 ITU=  1  1  0
[...]
   XY=     4.4000   YY=    25.0851   ZY=    -0.1963
   XZ=    -0.1025   YZ=    -0.7971   ZZ=    20.8460
   Eigenvalues:    20.2079    20.9889    29.7308
     15  H    Isotropic =    29.1921   Anisotropy =     7.8261
   XX=    28.4431   YX=    -0.5750   ZX=     2.2953
   XY=     0.0329   YY=    28.2336   ZY=    -2.6273
   XZ=     3.5052   YZ=    -4.3049   ZZ=    30.8995
   Eigenvalues:    25.0734    28.0934    34.4095
     16  H    Isotropic =    28.4929   Anisotropy =     5.6044
   XX=    27.6235   YX=    -1.6106   ZX=     1.3847
   XY=    -2.3351   YY=    30.2551   ZY=     2.5778
   XZ=     2.7509   YZ=     3.2818   ZZ=    27.6001
   Eigenvalues:    23.6903    29.5592    32.2292
     17  H    Isotropic =    29.1598   Anisotropy =     8.1507
   XX=    33.3232   YX=     2.2942   ZX=     0.7630
   XY=     2.5206   YY=    28.3223   ZY=     2.4914
   XZ=     0.7635   YZ=     2.1497   ZZ=    25.8339
   Eigenvalues:    24.4016    28.4842    34.5936
     18  H    Isotropic =    28.7563   Anisotropy =     8.2907
   XX=    26.6566   YX=    -1.8505   ZX=    -1.3832
   XY=    -3.1930   YY=    32.9358   ZY=    -2.5176
   XZ=    -3.6287   YZ=    -2.8735   ZZ=    26.6765
   Eigenvalues:    22.8155    29.1699    34.2834
     19  H    Isotropic =    32.0687   Anisotropy =     9.8415
   XX=    37.4549   YX=     1.4120   ZX=     2.5890
   XY=     2.8098   YY=    28.3061   ZY=     4.3335
   XZ=    -0.9297   YZ=     6.7738   ZZ=    30.4450
   Eigenvalues:    23.6302    33.9461    38.6297
     20  H    Isotropic =    31.4476   Anisotropy =    16.0746
   XX=    34.1557   YX=     0.1426   ZX=    -7.1425
   XY=    -1.8369   YY=    27.7866   ZY=     3.5864
   XZ=    -9.4792   YZ=     2.7221   ZZ=    32.4006
   Eigenvalues:    23.9849    28.1939    42.1640
 End of Minotr F.D. properties file   721 does not exist.
 End of Minotr F.D. properties file   722 does not exist.
 End of Minotr F.D. properties file   788 does not exist.

 **********************************************************************

            Population analysis using the SCF Density.

 **********************************************************************

 Orbital symmetries:
       Occupied  (A) (A) (A) (A) (A) (A) (A) (A) (A) (A) (A) (A)
                 (A) (A) (A) (A) (A) (A) (A) (A) (A) (A) (A) (A)
                 (A) (A) (A) (A) (A) (A) (A) (A) (A) (A) (A) (A)
                 (A) (A) (A) (A) (A)
       Virtual   (A) (A) (A) (A) (A) (A) (A) (A) (A) (A) (A) (A)
                 (A) (A) (A) (A) (A) (A) (A) (A) (A) (A) (A) (A)
                 (A) (A) (A) (A) (A) (A) (A) (A) (A) (A) (A) (A)
                 (A) (A) (A) (A) (A) (A) (A) (A) (A) (A) (A) (A)
                 (A) (A) (A) (A) (A) (A) (A) (A) (A) (A) (A) (A)
                 (A) (A) (A) (A) (A) (A) (A) (A) (A) (A) (A) (A)
                 (A) (A) (A) (A) (A) (A) (A) (A) (A) (A) (A) (A)
                 (A) (A) (A) (A) (A) (A) (A) (A) (A) (A) (A) (A)
                 (A) (A) (A) (A) (A) (A) (A) (A) (A) (A) (A) (A)
                 (A) (A) (A) (A) (A) (A) (A) (A) (A) (A) (A) (A)
                 (A) (A) (A) (A) (A) (A) (A) (A) (A) (A) (A) (A)
                 (A) (A) (A) (A) (A) (A) (A) (A) (A) (A) (A) (A)
                 (A) (A) (A) (A) (A) (A) (A) (A) (A) (A) (A) (A)
                 (A) (A) (A) (A) (A) (A) (A) (A) (A) (A) (A) (A)
                 (A) (A) (A) (A) (A) (A) (A) (A) (A) (A) (A) (A)
                 (A) (A) (A) (A) (A) (A) (A) (A) (A) (A) (A) (A)
                 (A) (A) (A) (A) (A) (A) (A) (A) (A) (A) (A) (A)
                 (A) (A) (A) (A) (A) (A) (A) (A) (A) (A) (A) (A)
                 (A) (A) (A) (A) (A) (A) (A) (A) (A) (A) (A) (A)
                 (A) (A) (A) (A) (A) (A) (A) (A) (A) (A) (A) (A)
                 (A) (A) (A) (A) (A) (A) (A) (A) (A) (A) (A) (A)
                 (A) (A) (A) (A) (A) (A) (A) (A) (A) (A) (A) (A)
                 (A) (A) (A) (A) (A) (A) (A) (A) (A) (A) (A) (A)
                 (A) (A) (A) (A) (A) (A) (A) (A) (A) (A) (A) (A)
                 (A) (A) (A) (A) (A) (A) (A) (A) (A) (A) (A) (A)
                 (A) (A) (A) (A) (A) (A) (A) (A) (A) (A) (A) (A)
                 (A) (A) (A) (A) (A) (A) (A) (A) (A) (A) (A) (A)
                 (A) (A) (A) (A) (A) (A) (A) (A) (A) (A) (A)
 The electronic state is 1-A.
 Alpha  occ. eigenvalues -- -102.64489 -14.72695 -10.60771 -10.56428 -10.56206
 Alpha  occ. eigenvalues --  -10.55663 -10.55369 -10.55158 -10.55079 -10.54051
 Alpha  occ. eigenvalues --   -9.80731  -7.52922  -7.52423  -7.52406  -1.00090
 Alpha  occ. eigenvalues --   -0.98503  -0.93487  -0.88237  -0.83397  -0.80657
 Alpha  occ. eigenvalues --   -0.71258  -0.69462  -0.65899  -0.58807  -0.56850
 Alpha  occ. eigenvalues --   -0.55928  -0.53211  -0.52157  -0.49406  -0.49381
 Alpha  occ. eigenvalues --   -0.47465  -0.44965  -0.43818  -0.43151  -0.41050
 Alpha  occ. eigenvalues --   -0.40357  -0.40015  -0.37454  -0.31739  -0.31092
 Alpha  occ. eigenvalues --   -0.29782
 Alpha virt. eigenvalues --    0.00923   0.01037   0.06308   0.06634   0.09695
 Alpha virt. eigenvalues --    0.09925   0.10528   0.11360   0.12617   0.13408
 Alpha virt. eigenvalues --    0.14340   0.14980   0.16614   0.17544   0.18575
 Alpha virt. eigenvalues --    0.19803   0.20487   0.22229   0.22772   0.23780
 Alpha virt. eigenvalues --    0.25031   0.25591   0.26921   0.27517   0.28997
 Alpha virt. eigenvalues --    0.29485   0.29913   0.31084   0.32246   0.33003
 Alpha virt. eigenvalues --    0.34111   0.35089   0.35420   0.36364   0.37732
 Alpha virt. eigenvalues --    0.38027   0.38841   0.39105   0.40524   0.41709
 Alpha virt. eigenvalues --    0.42187   0.43362   0.43529   0.44512   0.44949
 Alpha virt. eigenvalues --    0.45743   0.46188   0.47498   0.47956   0.48288
 Alpha virt. eigenvalues --    0.49231   0.49845   0.50723   0.52395   0.52720
 Alpha virt. eigenvalues --    0.53110   0.54085   0.54495   0.55087   0.57229
 Alpha virt. eigenvalues --    0.58562   0.59546   0.61485   0.61854   0.63459
 Alpha virt. eigenvalues --    0.64142   0.65701   0.68192   0.69882   0.70522
 Alpha virt. eigenvalues --    0.71597   0.74345   0.75188   0.75420   0.77473
 Alpha virt. eigenvalues --    0.78418   0.78993   0.81431   0.82385   0.84291
 Alpha virt. eigenvalues --    0.86693   0.87401   0.90170   0.91785   0.92129
 Alpha virt. eigenvalues --    0.93391   0.94120   0.95322   0.98701   1.00825
 Alpha virt. eigenvalues --    1.03700   1.05560   1.06379   1.08728   1.09180
 Alpha virt. eigenvalues --    1.11120   1.14045   1.14602   1.15377   1.18283
 Alpha virt. eigenvalues --    1.21150   1.22954   1.24300   1.24716   1.25122
 Alpha virt. eigenvalues --    1.26137   1.27761   1.29544   1.30124   1.31097
 Alpha virt. eigenvalues --    1.34404   1.34949   1.38202   1.40018   1.41393
 Alpha virt. eigenvalues --    1.42749   1.44724   1.46934   1.48368   1.48712
 Alpha virt. eigenvalues --    1.49717   1.52242   1.54878   1.57459   1.58790
 Alpha virt. eigenvalues --    1.60868   1.61682   1.62284   1.63866   1.65639
 Alpha virt. eigenvalues --    1.67475   1.67935   1.68592   1.71981   1.72568
 Alpha virt. eigenvalues --    1.73570   1.74674   1.76213   1.78068   1.79194
 Alpha virt. eigenvalues --    1.82305   1.84685   1.84998   1.87105   1.87187
 Alpha virt. eigenvalues --    1.89381   1.89847   1.92052   1.93453   1.95692
 Alpha virt. eigenvalues --    1.96748   1.97839   1.99480   1.99744   2.01527
 Alpha virt. eigenvalues --    2.02937   2.03868   2.05014   2.06505   2.09422
 Alpha virt. eigenvalues --    2.10848   2.12576   2.13336   2.13660   2.16140
 Alpha virt. eigenvalues --    2.17419   2.19520   2.21318   2.22311   2.23775
 Alpha virt. eigenvalues --    2.24491   2.25351   2.26667   2.27862   2.29444
 Alpha virt. eigenvalues --    2.31033   2.32694   2.33451   2.34167   2.38767
 Alpha virt. eigenvalues --    2.43328   2.45070   2.46443   2.48677   2.50050
 Alpha virt. eigenvalues --    2.51517   2.53078   2.55447   2.56681   2.58710
 Alpha virt. eigenvalues --    2.59346   2.59648   2.60812   2.62219   2.62609
 Alpha virt. eigenvalues --    2.65476   2.66773   2.68205   2.68686   2.69909
 Alpha virt. eigenvalues --    2.71149   2.73838   2.74581   2.75181   2.76276
 Alpha virt. eigenvalues --    2.77327   2.78633   2.79299   2.80456   2.82470
 Alpha virt. eigenvalues --    2.86380   2.87774   2.87936   2.89959   2.90960
 Alpha virt. eigenvalues --    2.93332   2.93872   2.96503   2.97636   2.99782
 Alpha virt. eigenvalues --    3.01057   3.02158   3.05034   3.06010   3.06864
 Alpha virt. eigenvalues --    3.10500   3.11768   3.14282   3.15233   3.15666
 Alpha virt. eigenvalues --    3.17484   3.18871   3.19513   3.21406   3.23149
 Alpha virt. eigenvalues --    3.24313   3.25586   3.26616   3.27290   3.28977
 Alpha virt. eigenvalues --    3.29460   3.31255   3.31824   3.34771   3.35529
 Alpha virt. eigenvalues --    3.35985   3.39056   3.40040   3.40608   3.44120
 Alpha virt. eigenvalues --    3.45236   3.48290   3.49126   3.50392   3.51524
 Alpha virt. eigenvalues --    3.51740   3.52722   3.54329   3.55322   3.61165
 Alpha virt. eigenvalues --    3.65725   3.67652   3.68149   3.72694   3.72975
 Alpha virt. eigenvalues --    3.77244   3.77717   3.80419   3.82860   3.85180
 Alpha virt. eigenvalues --    3.88206   3.90806   3.91547   3.95587   3.98238
 Alpha virt. eigenvalues --    3.98723   4.04158   4.06375   4.08644   4.09890
 Alpha virt. eigenvalues --    4.12616   4.14460   4.16079   4.17002   4.19598
 Alpha virt. eigenvalues --    4.20664   4.24798   4.26644   4.27417   4.30785
 Alpha virt. eigenvalues --    4.33929   4.34838   4.36990   4.41872   4.46583
 Alpha virt. eigenvalues --    4.48397   4.54698   4.59806   4.62147   4.64512
 Alpha virt. eigenvalues --    4.68603   4.69354   4.74022   4.77416   4.82242
 Alpha virt. eigenvalues --    4.84397   4.86483   4.90161   4.90983   5.02614
 Alpha virt. eigenvalues --    5.06004   5.09131   5.11118   5.14494   5.18765
 Alpha virt. eigenvalues --    5.25695   5.28308   5.36692   5.40974   5.53254
 Alpha virt. eigenvalues --    5.53758   5.74294  10.83193  10.92004  11.42194
 Alpha virt. eigenvalues --   22.08442  22.52056  22.61801  22.70824  22.76876
 Alpha virt. eigenvalues --   22.82117  22.92502  23.32373  26.01660  32.07234
          Condensed to atoms (all electrons):
               1          2          3          4          5          6
     1  Cl  16.879387   0.338129  -0.050862   0.011014  -0.002897   0.017161
     2  C    0.338129   5.173447   0.343003   0.059162  -0.113744   0.097190
     3  C   -0.050862   0.343003   5.087584   0.405302   0.040261  -0.177434
     4  C    0.011014   0.059162   0.405302   5.003039   0.415746   0.077988
     5  C   -0.002897  -0.113744   0.040261   0.415746   5.006079   0.348446
     6  C    0.017161   0.097190  -0.177434   0.077988   0.348446   5.349121
     7  C   -0.112132   0.194020   0.121661  -0.164047   0.069889   0.183883
     8  C    0.015120  -0.085873   0.017085  -0.004733   0.012798  -0.081533
     9  C   -0.015346  -0.003208   0.002435  -0.000691   0.001397  -0.006375
    10  N    0.000404  -0.002012   0.000714  -0.000151  -0.001177   0.004804
    11  H    0.002419  -0.050631   0.414949  -0.038150   0.007231  -0.004394
    12  H   -0.000347   0.006268  -0.036023   0.412922  -0.037149   0.006538
    13  H    0.000018  -0.001570   0.006888  -0.040069   0.418329  -0.041208
    14  H   -0.000139   0.008405  -0.001777   0.006358  -0.033285   0.422603
    15  H    0.001225   0.006357  -0.000598   0.000284   0.000401   0.002002
    16  H    0.001961  -0.017120  -0.000283   0.000367  -0.001264   0.009883
    17  H    0.000515   0.000754  -0.000066   0.000012  -0.000020  -0.001293
    18  H    0.007470  -0.005505  -0.000440   0.000320  -0.000677   0.009992
    19  H    0.000170   0.000324   0.000543  -0.000766   0.002526  -0.017318
    20  H    0.000010  -0.000094   0.000011  -0.000029   0.000162  -0.000640
               7          8          9         10         11         12
     1  Cl  -0.112132   0.015120  -0.015346   0.000404   0.002419  -0.000347
     2  C    0.194020  -0.085873  -0.003208  -0.002012  -0.050631   0.006268
     3  C    0.121661   0.017085   0.002435   0.000714   0.414949  -0.036023
     4  C   -0.164047  -0.004733  -0.000691  -0.000151  -0.038150   0.412922
     5  C    0.069889   0.012798   0.001397  -0.001177   0.007231  -0.037149
     6  C    0.183883  -0.081533  -0.006375   0.004804  -0.004394   0.006538
     7  C    5.614417   0.182517  -0.020390   0.012033   0.018128  -0.000885
     8  C    0.182517   5.341805   0.233663  -0.075123   0.000173   0.000086
     9  C   -0.020390   0.233663   5.049952   0.238217   0.000057  -0.000013
    10  N    0.012033  -0.075123   0.238217   6.720649   0.000002  -0.000000
    11  H    0.018128   0.000173   0.000057   0.000002   0.497404  -0.003990
    12  H   -0.000885   0.000086  -0.000013  -0.000000  -0.003990   0.509607
    13  H    0.009660  -0.000177   0.000040  -0.000098  -0.000168  -0.004118
    14  H   -0.047526  -0.000915  -0.001706   0.005954   0.000040  -0.000200
    15  H   -0.076599   0.438344  -0.032607   0.005726   0.000006   0.000002
    16  H   -0.031724   0.423365  -0.052738   0.005666   0.000004   0.000001
    17  H    0.014904  -0.044980   0.417894  -0.031016  -0.000002   0.000000
    18  H   -0.030203  -0.041314   0.453368  -0.058966   0.000018   0.000003
    19  H    0.022783  -0.014291  -0.047187   0.363959  -0.000006  -0.000004
    20  H   -0.002346   0.016815  -0.052958   0.366696  -0.000000  -0.000000
              13         14         15         16         17         18
     1  Cl   0.000018  -0.000139   0.001225   0.001961   0.000515   0.007470
     2  C   -0.001570   0.008405   0.006357  -0.017120   0.000754  -0.005505
     3  C    0.006888  -0.001777  -0.000598  -0.000283  -0.000066  -0.000440
     4  C   -0.040069   0.006358   0.000284   0.000367   0.000012   0.000320
     5  C    0.418329  -0.033285   0.000401  -0.001264  -0.000020  -0.000677
     6  C   -0.041208   0.422603   0.002002   0.009883  -0.001293   0.009992
     7  C    0.009660  -0.047526  -0.076599  -0.031724   0.014904  -0.030203
     8  C   -0.000177  -0.000915   0.438344   0.423365  -0.044980  -0.041314
     9  C    0.000040  -0.001706  -0.032607  -0.052738   0.417894   0.453368
    10  N   -0.000098   0.005954   0.005726   0.005666  -0.031016  -0.058966
    11  H   -0.000168   0.000040   0.000006   0.000004  -0.000002   0.000018
    12  H   -0.004118  -0.000200   0.000002   0.000001   0.000000   0.000003
    13  H    0.507984  -0.003680  -0.000080  -0.000002  -0.000001  -0.000011
    14  H   -0.003680   0.475025   0.000455   0.000552  -0.000101   0.000344
    15  H   -0.000080   0.000455   0.510774  -0.011442  -0.005620   0.006673
    16  H   -0.000002   0.000552  -0.011442   0.509036  -0.002971   0.001220
    17  H   -0.000001  -0.000101  -0.005620  -0.002971   0.552839  -0.034723
    18  H   -0.000011   0.000344   0.006673   0.001220  -0.034723   0.556202
    19  H    0.000056  -0.002032  -0.000676  -0.000503   0.008053  -0.007765
    20  H    0.000004  -0.000196  -0.000824  -0.000525  -0.006092  -0.004984
              19         20
     1  Cl   0.000170   0.000010
     2  C    0.000324  -0.000094
     3  C    0.000543   0.000011
     4  C   -0.000766  -0.000029
     5  C    0.002526   0.000162
     6  C   -0.017318  -0.000640
     7  C    0.022783  -0.002346
     8  C   -0.014291   0.016815
     9  C   -0.047187  -0.052958
    10  N    0.363959   0.366696
    11  H   -0.000006  -0.000000
    12  H   -0.000004  -0.000000
    13  H    0.000056   0.000004
    14  H   -0.002032  -0.000196
    15  H   -0.000676  -0.000824
    16  H   -0.000503  -0.000525
    17  H    0.008053  -0.006092
    18  H   -0.007765  -0.004984
    19  H    0.475354  -0.028478
    20  H   -0.028478   0.485731
 Mulliken charges:
               1
     1  Cl  -0.093281
     2  C    0.052700
     3  C   -0.172953
     4  C   -0.143879
     5  C   -0.133052
     6  C   -0.199417
     7  C    0.041958
     8  C   -0.332832
     9  C   -0.163805
    10  N   -0.556282
    11  H    0.156911
    12  H    0.147303
    13  H    0.148202
    14  H    0.171822
    15  H    0.156197
    16  H    0.166520
    17  H    0.131913
    18  H    0.148977
    19  H    0.245260
    20  H    0.227737
 Sum of Mulliken charges =  -0.00000
 Mulliken charges with hydrogens summed into heavy atoms:
               1
     1  Cl  -0.093281
     2  C    0.052700
     3  C   -0.016042
     4  C    0.003424
     5  C    0.015150
     6  C   -0.027594
     7  C    0.041958
     8  C   -0.010115
     9  C    0.117085
    10  N   -0.083286
 Electronic spatial extent (au):  <R**2>=           1752.2102
 Charge=             -0.0000 electrons
 Dipole moment (field-independent basis, Debye):
    X=             -0.2573    Y=             -0.7799    Z=             -0.8218  Tot=              1.1618
 Quadrupole moment (field-independent basis, Debye-Ang):
   XX=            -61.6660   YY=            -68.3480   ZZ=            -66.6864
   XY=              4.2427   XZ=              0.1653   YZ=              0.5375
 Traceless Quadrupole moment (field-independent basis, Debye-Ang):
   XX=              3.9008   YY=             -2.7812   ZZ=             -1.1196
   XY=              4.2427   XZ=              0.1653   YZ=              0.5375
 Octapole moment (field-independent basis, Debye-Ang**2):
  XXX=             -1.0758  YYY=              1.2188  ZZZ=             -6.2250  XYY=             -9.4258
  XXY=              8.6128  XXZ=            -16.7961  XZZ=             13.5364  YZZ=              0.9606
  YYZ=             -0.1940  XYZ=              3.1649
 Hexadecapole moment (field-independent basis, Debye-Ang**3):
 XXXX=          -1154.4365 YYYY=           -875.9298 ZZZZ=           -206.8072 XXXY=             22.8999
 XXXZ=            -11.6770 YYYX=             30.1507 YYYZ=             -4.9112 ZZZX=            -15.9392
 ZZZY=              9.1289 XXYY=           -369.2237 XXZZ=           -223.9438 YYZZ=           -184.9735
 XXYZ=             14.7881 YYXZ=             -0.2786 ZZXY=            -18.4279
 N-N= 5.856091128569D+02 E-N=-3.114271724469D+03  KE= 8.233576469146D+02
 Unable to Open any file for archive entry.
 1\1\GINC-NOTCH285\SP\RM062X\def2TZVP\C8H10Cl1N1\U6032257\21-Feb-2022\0
 \\# M062X/def2tzvp int=(grid=ultrafine) nmr=giao guess=read geom=check
 \\N3.xyz\\0,1\Cl,0,-0.2625001481,2.6287840577,1.4209296813\C,0,-0.9727
 135184,1.2483140184,0.5787095154\C,0,-2.232870661,1.4190960802,0.00843
 86446\C,0,-2.826153435,0.3573730452,-0.671330078\C,0,-2.1561588892,-0.
 861311208,-0.7722925721\C,0,-0.9001403175,-1.0119255186,-0.1888649732\
 C,0,-0.2745210659,0.0349610162,0.5050024136\C,0,1.1059683432,-0.158083
 3271,1.0829080661\C,0,2.213615905,0.3077604633,0.1226076739\N,0,2.1891
 444165,-0.4887743893,-1.1075930232\H,0,-2.7361338523,2.3747238894,0.09
 97000273\H,0,-3.8073408708,0.4866399259,-1.1167729736\H,0,-2.610565205
 2,-1.6935238142,-1.3003692057\H,0,-0.3726543125,-1.9573473073,-0.26825
 91324\H,0,1.2596531947,-1.2211643785,1.2897078944\H,0,1.2002405174,0.3
 872478225,2.0259764222\H,0,3.1813984081,0.1472012446,0.6108244353\H,0,
 2.110784365,1.3931899658,-0.0382262141\H,0,1.3461121238,-0.2680508548,
 -1.633358367\H,0,2.9708350023,-0.2251107314,-1.7020382346\\Version=ES6
 4L-G16RevC.01\State=1-A\HF=-825.7967783\RMSD=5.245e-09\Dipole=-0.10999
 88,-0.0685947,-0.4383264\Quadrupole=3.6331223,-2.8591934,-0.7739289,1.
 533869,1.7350154,-0.68156\PG=C01 [X(C8H10Cl1N1)]\\@
 The archive entry for this job was punched.


     SCHOPENHAUER'S LAW OF ENTROPY
 IF YOU PUT A SPOONFUL OF WINE IN A BARREL FULL
 OF SEWAGE, YOU GET SEWAGE.
 IF YOU PUT A SPOONFUL OF SEWAGE IN A BARREL FULL
 OF WINE, YOU GET SEWAGE.
 Job cpu time:       0 days  0 hours 26 minutes 44.5 seconds.
 Elapsed time:       0 days  0 hours  0 minutes 29.0 seconds.
 File lengths (MBytes):  RWF=     83 Int=      0 D2E=      0 Chk=     14 Scr=      1
 Normal termination of Gaussian 16 at Mon Feb 21 19:27:48 2022.
