 Entering Gaussian System, Link 0=/uufs/chpc.utah.edu/sys/installdir/gaussian16/C01/AVX2/g16/g16
 Input=N3_conf-4.com
 Output=N3_conf-4.log
 Initial command:
 /uufs/chpc.utah.edu/sys/installdir/gaussian16/C01/AVX2/g16/l1.exe "/scratch/local/u6032257/4038677/notchpeak.peaks/Gau-326383.inp" -scrdir="/scratch/local/u6032257/4038677/notchpeak.peaks/"
 Entering Link 1 = /uufs/chpc.utah.edu/sys/installdir/gaussian16/C01/AVX2/g16/l1.exe PID=    326385.
  
 Copyright (c) 1988-2019, Gaussian, Inc.  All Rights Reserved.
  
 This is part of the Gaussian(R) 16 program.  It is based on
 the Gaussian(R) 09 system (copyright 2009, Gaussian, Inc.),
 the Gaussian(R) 03 system (copyright 2003, Gaussian, Inc.),
 the Gaussian(R) 98 system (copyright 1998, Gaussian, Inc.),
 the Gaussian(R) 94 system (copyright 1995, Gaussian, Inc.),
 the Gaussian 92(TM) system (copyright 1992, Gaussian, Inc.),
 the Gaussian 90(TM) system (copyright 1990, Gaussian, Inc.),
 the Gaussian 88(TM) system (copyright 1988, Gaussian, Inc.),
 the Gaussian 86(TM) system (copyright 1986, Carnegie Mellon
 University), and the Gaussian 82(TM) system (copyright 1983,
 Carnegie Mellon University). Gaussian is a federally registered
 trademark of Gaussian, Inc.
  
 This software contains proprietary and confidential information,
 including trade secrets, belonging to Gaussian, Inc.
  
 This software is provided under written license and may be
 used, copied, transmitted, or stored only in accord with that
 written license.
  
 The following legend is applicable only to US Government
 contracts under FAR:
  
                    RESTRICTED RIGHTS LEGEND
  
 Use, reproduction and disclosure by the US Government is
 subject to restrictions as set forth in subparagraphs (a)
 and (c) of the Commercial Computer Software - Restricted
 Rights clause in FAR 52.227-19.
  
 Gaussian, Inc.
 340 Quinnipiac St., Bldg. 40, Wallingford CT 06492
  
  
 ---------------------------------------------------------------
 Warning -- This program may not be used in any manner that
 competes with the business of Gaussian, Inc. or will provide
 assistance to any competitor of Gaussian, Inc.  The licensee
 of this program is prohibited from giving any competitor of
 Gaussian, Inc. access to this program.  By using this program,
 the user acknowledges that Gaussian, Inc. is engaged in the
 business of creating and licensing software in the field of
 computational chemistry and represents and warrants to the
 licensee that it is not a competitor of Gaussian, Inc. and that
 it will not use this program in any manner prohibited above.
 ---------------------------------------------------------------
  

 Cite this work as:
 Gaussian 16, Revision C.01,
 M. J. Frisch, G. W. Trucks, H. B. Schlegel, G. E. Scuseria, 
 M. A. Robb, J. R. Cheeseman, G. Scalmani, V. Barone, 
 G. A. Petersson, H. Nakatsuji, X. Li, M. Caricato, A. V. Marenich, 
 J. Bloino, B. G. Janesko, R. Gomperts, B. Mennucci, H. P. Hratchian, 
 J. V. Ortiz, A. F. Izmaylov, J. L. Sonnenberg, D. Williams-Young, 
 F. Ding, F. Lipparini, F. Egidi, J. Goings, B. Peng, A. Petrone, 
 T. Henderson, D. Ranasinghe, V. G. Zakrzewski, J. Gao, N. Rega, 
 G. Zheng, W. Liang, M. Hada, M. Ehara, K. Toyota, R. Fukuda, 
 J. Hasegawa, M. Ishida, T. Nakajima, Y. Honda, O. Kitao, H. Nakai, 
 T. Vreven, K. Throssell, J. A. Montgomery, Jr., J. E. Peralta, 
 F. Ogliaro, M. J. Bearpark, J. J. Heyd, E. N. Brothers, K. N. Kudin, 
 V. N. Staroverov, T. A. Keith, R. Kobayashi, J. Normand, 
 K. Raghavachari, A. P. Rendell, J. C. Burant, S. S. Iyengar, 
 J. Tomasi, M. Cossi, J. M. Millam, M. Klene, C. Adamo, R. Cammi, 
 J. W. Ochterski, R. L. Martin, K. Morokuma, O. Farkas, 
 J. B. Foresman, and D. J. Fox, Gaussian, Inc., Wallingford CT, 2019.
 
 ******************************************
 Gaussian 16:  ES64L-G16RevC.01  3-Jul-2019
                21-Feb-2022 
 ******************************************
 %NProcShared=52
 Will use up to   52 processors via shared memory.
 %mem=16GB
 %chk=N3_conf-4.chk
 ----------------------------------------------------------------------
 # B3LYP/6-31G(d,p) empiricaldispersion=GD3BJ int=(grid=ultrafine) opt 
 freq=noraman
 ----------------------------------------------------------------------
 1/18=20,19=15,26=4,38=1/1,3;
 2/9=110,12=2,17=6,18=5,40=1/2;
 3/5=1,6=6,7=101,11=2,25=1,30=1,71=1,74=-5,75=-5,124=41/1,2,3;
 4//1;
 5/5=2,38=5/2;
 6/7=2,8=2,9=2,10=2,28=1/1;
 7//1,2,3,16;
 1/18=20,19=15,26=4/3(2);
 2/9=110/2;
 99//99;
 2/9=110/2;
 3/5=1,6=6,7=101,11=2,25=1,30=1,71=1,74=-5,75=-5,124=41/1,2,3;
 4/5=5,16=3,69=1/1;
 5/5=2,38=5/2;
 7//1,2,3,16;
 1/18=20,19=15,26=4/3(-5);
 2/9=110/2;
 6/7=2,8=2,9=2,10=2,19=2,28=1/1;
 99/9=1/99;
 ------
 N3.xyz
 ------
 Symbolic Z-matrix:
 Charge =  0 Multiplicity = 1
 Cl                   -0.5471    2.7934    1.4381 
 C                    -1.0777    1.3832    0.5865 
 C                    -2.4045    1.3356    0.1566 
 C                    -2.8857    0.2193   -0.5248 
 C                    -2.0384   -0.8579   -0.7744 
 C                    -0.7112   -0.8163   -0.3476 
 C                    -0.2091    0.3066    0.3299 
 C                     1.249     0.3673    0.8128 
 C                     2.2245   -0.7049    0.2857 
 N                     2.4114   -0.5582   -1.1483 
 H                    -3.0612    2.1694    0.3575 
 H                    -3.9148    0.188    -0.853 
 H                    -2.4106   -1.7289   -1.2952 
 H                    -0.0845   -1.6733   -0.5463 
 H                     1.2302    0.3207    1.9024 
 H                     1.6569    1.3491    0.5675 
 H                     1.8666   -1.7089    0.5229 
 H                     3.1929   -0.6046    0.781 
 H                     2.8586    0.3245   -1.3569 
 H                     1.5086   -0.5191   -1.6042 
 

 GradGradGradGradGradGradGradGradGradGradGradGradGradGradGradGradGradGrad
 Berny optimization.
 Initialization pass.
                           ----------------------------
                           !    Initial Parameters    !
                           ! (Angstroms and Degrees)  !
 --------------------------                            --------------------------
 ! Name  Definition              Value          Derivative Info.                !
 --------------------------------------------------------------------------------
 ! R1    R(1,2)                  1.7307         estimate D2E/DX2                !
 ! R2    R(2,3)                  1.3955         estimate D2E/DX2                !
 ! R3    R(2,7)                  1.4069         estimate D2E/DX2                !
 ! R4    R(3,4)                  1.3936         estimate D2E/DX2                !
 ! R5    R(3,11)                 1.0802         estimate D2E/DX2                !
 ! R6    R(4,5)                  1.393          estimate D2E/DX2                !
 ! R7    R(4,12)                 1.0806         estimate D2E/DX2                !
 ! R8    R(5,6)                  1.3948         estimate D2E/DX2                !
 ! R9    R(5,13)                 1.0809         estimate D2E/DX2                !
 ! R10   R(6,7)                  1.4043         estimate D2E/DX2                !
 ! R11   R(6,14)                 1.0801         estimate D2E/DX2                !
 ! R12   R(7,8)                  1.5372         estimate D2E/DX2                !
 ! R13   R(8,9)                  1.5424         estimate D2E/DX2                !
 ! R14   R(8,15)                 1.0908         estimate D2E/DX2                !
 ! R15   R(8,16)                 1.0911         estimate D2E/DX2                !
 ! R16   R(9,10)                 1.4536         estimate D2E/DX2                !
 ! R17   R(9,17)                 1.092          estimate D2E/DX2                !
 ! R18   R(9,18)                 1.0923         estimate D2E/DX2                !
 ! R19   R(10,19)                1.0113         estimate D2E/DX2                !
 ! R20   R(10,20)                1.0121         estimate D2E/DX2                !
 ! A1    A(1,2,3)              118.0895         estimate D2E/DX2                !
 ! A2    A(1,2,7)              121.5993         estimate D2E/DX2                !
 ! A3    A(3,2,7)              120.3111         estimate D2E/DX2                !
 ! A4    A(2,3,4)              120.4146         estimate D2E/DX2                !
 ! A5    A(2,3,11)             119.629          estimate D2E/DX2                !
 ! A6    A(4,3,11)             119.9561         estimate D2E/DX2                !
 ! A7    A(3,4,5)              119.8023         estimate D2E/DX2                !
 ! A8    A(3,4,12)             120.0364         estimate D2E/DX2                !
 ! A9    A(5,4,12)             120.1603         estimate D2E/DX2                !
 ! A10   A(4,5,6)              120.0584         estimate D2E/DX2                !
 ! A11   A(4,5,13)             119.999          estimate D2E/DX2                !
 ! A12   A(6,5,13)             119.942          estimate D2E/DX2                !
 ! A13   A(5,6,7)              120.7779         estimate D2E/DX2                !
 ! A14   A(5,6,14)             118.1738         estimate D2E/DX2                !
 ! A15   A(7,6,14)             121.0468         estimate D2E/DX2                !
 ! A16   A(2,7,6)              118.6294         estimate D2E/DX2                !
 ! A17   A(2,7,8)              119.875          estimate D2E/DX2                !
 ! A18   A(6,7,8)              121.486          estimate D2E/DX2                !
 ! A19   A(7,8,9)              117.7171         estimate D2E/DX2                !
 ! A20   A(7,8,15)             107.2041         estimate D2E/DX2                !
 ! A21   A(7,8,16)             108.6338         estimate D2E/DX2                !
 ! A22   A(9,8,15)             108.8188         estimate D2E/DX2                !
 ! A23   A(9,8,16)             108.1945         estimate D2E/DX2                !
 ! A24   A(15,8,16)            105.6326         estimate D2E/DX2                !
 ! A25   A(8,9,10)             110.3836         estimate D2E/DX2                !
 ! A26   A(8,9,17)             110.9543         estimate D2E/DX2                !
 ! A27   A(8,9,18)             109.9933         estimate D2E/DX2                !
 ! A28   A(10,9,17)            110.441          estimate D2E/DX2                !
 ! A29   A(10,9,18)            108.9096         estimate D2E/DX2                !
 ! A30   A(17,9,18)            106.0516         estimate D2E/DX2                !
 ! A31   A(9,10,19)            110.393          estimate D2E/DX2                !
 ! A32   A(9,10,20)            109.4863         estimate D2E/DX2                !
 ! A33   A(19,10,20)           105.5342         estimate D2E/DX2                !
 ! D1    D(1,2,3,4)           -179.5263         estimate D2E/DX2                !
 ! D2    D(1,2,3,11)             0.2749         estimate D2E/DX2                !
 ! D3    D(7,2,3,4)              0.3437         estimate D2E/DX2                !
 ! D4    D(7,2,3,11)          -179.8551         estimate D2E/DX2                !
 ! D5    D(1,2,7,6)            178.9855         estimate D2E/DX2                !
 ! D6    D(1,2,7,8)              0.1033         estimate D2E/DX2                !
 ! D7    D(3,2,7,6)             -0.8799         estimate D2E/DX2                !
 ! D8    D(3,2,7,8)           -179.7621         estimate D2E/DX2                !
 ! D9    D(2,3,4,5)              0.2243         estimate D2E/DX2                !
 ! D10   D(2,3,4,12)           179.864          estimate D2E/DX2                !
 ! D11   D(11,3,4,5)          -179.5762         estimate D2E/DX2                !
 ! D12   D(11,3,4,12)            0.0635         estimate D2E/DX2                !
 ! D13   D(3,4,5,6)             -0.2387         estimate D2E/DX2                !
 ! D14   D(3,4,5,13)           179.4758         estimate D2E/DX2                !
 ! D15   D(12,4,5,6)          -179.8779         estimate D2E/DX2                !
 ! D16   D(12,4,5,13)           -0.1634         estimate D2E/DX2                !
 ! D17   D(4,5,6,7)             -0.3164         estimate D2E/DX2                !
 ! D18   D(4,5,6,14)           179.2443         estimate D2E/DX2                !
 ! D19   D(13,5,6,7)           179.9689         estimate D2E/DX2                !
 ! D20   D(13,5,6,14)           -0.4704         estimate D2E/DX2                !
 ! D21   D(5,6,7,2)              0.8688         estimate D2E/DX2                !
 ! D22   D(5,6,7,8)            179.7322         estimate D2E/DX2                !
 ! D23   D(14,6,7,2)          -178.6792         estimate D2E/DX2                !
 ! D24   D(14,6,7,8)             0.1842         estimate D2E/DX2                !
 ! D25   D(2,7,8,9)           -168.8241         estimate D2E/DX2                !
 ! D26   D(2,7,8,15)            68.2105         estimate D2E/DX2                !
 ! D27   D(2,7,8,16)           -45.4991         estimate D2E/DX2                !
 ! D28   D(6,7,8,9)             12.3264         estimate D2E/DX2                !
 ! D29   D(6,7,8,15)          -110.639          estimate D2E/DX2                !
 ! D30   D(6,7,8,16)           135.6514         estimate D2E/DX2                !
 ! D31   D(7,8,9,10)            65.3598         estimate D2E/DX2                !
 ! D32   D(7,8,9,17)           -57.409          estimate D2E/DX2                !
 ! D33   D(7,8,9,18)          -174.4356         estimate D2E/DX2                !
 ! D34   D(15,8,9,10)         -172.4971         estimate D2E/DX2                !
 ! D35   D(15,8,9,17)           64.7341         estimate D2E/DX2                !
 ! D36   D(15,8,9,18)          -52.2926         estimate D2E/DX2                !
 ! D37   D(16,8,9,10)          -58.1867         estimate D2E/DX2                !
 ! D38   D(16,8,9,17)          179.0445         estimate D2E/DX2                !
 ! D39   D(16,8,9,18)           62.0179         estimate D2E/DX2                !
 ! D40   D(8,9,10,19)           64.5215         estimate D2E/DX2                !
 ! D41   D(8,9,10,20)          -51.2401         estimate D2E/DX2                !
 ! D42   D(17,9,10,19)        -172.4101         estimate D2E/DX2                !
 ! D43   D(17,9,10,20)          71.8283         estimate D2E/DX2                !
 ! D44   D(18,9,10,19)         -56.3321         estimate D2E/DX2                !
 ! D45   D(18,9,10,20)        -172.0937         estimate D2E/DX2                !
 --------------------------------------------------------------------------------
 Trust Radius=3.00D-01 FncErr=1.00D-07 GrdErr=1.00D-06 EigMax=2.50D+02 EigMin=1.00D-04
 Number of steps in this run=    108 maximum allowed number of steps=    120.
 GradGradGradGradGradGradGradGradGradGradGradGradGradGradGradGradGradGrad

                          Input orientation:                          
 ---------------------------------------------------------------------
 Center     Atomic      Atomic             Coordinates (Angstroms)
 Number     Number       Type             X           Y           Z
 ---------------------------------------------------------------------
      1         17           0       -0.547100    2.793400    1.438100
      2          6           0       -1.077700    1.383200    0.586500
      3          6           0       -2.404500    1.335600    0.156600
      4          6           0       -2.885700    0.219300   -0.524800
      5          6           0       -2.038400   -0.857900   -0.774400
      6          6           0       -0.711200   -0.816300   -0.347600
      7          6           0       -0.209100    0.306600    0.329900
      8          6           0        1.249000    0.367300    0.812800
      9          6           0        2.224500   -0.704900    0.285700
     10          7           0        2.411400   -0.558200   -1.148300
     11          1           0       -3.061200    2.169400    0.357500
     12          1           0       -3.914800    0.188000   -0.853000
     13          1           0       -2.410600   -1.728900   -1.295200
     14          1           0       -0.084500   -1.673300   -0.546300
     15          1           0        1.230200    0.320700    1.902400
     16          1           0        1.656900    1.349100    0.567500
     17          1           0        1.866600   -1.708900    0.522900
     18          1           0        3.192900   -0.604600    0.781000
     19          1           0        2.858600    0.324500   -1.356900
     20          1           0        1.508600   -0.519100   -1.604200
 ---------------------------------------------------------------------
                    Distance matrix (angstroms):
                    1          2          3          4          5
     1  Cl   0.000000
     2  C    1.730729   0.000000
     3  C    2.686514   1.395521   0.000000
     4  C    3.993497   2.420437   1.393551   0.000000
     5  C    4.522292   2.792404   2.410857   1.393046   0.000000
     6  C    4.030582   2.417574   2.784269   2.415019   1.394758
     7  C    2.743451   1.406903   2.430773   2.811107   2.433491
     8  C    3.082683   2.548882   3.836179   4.348198   3.850626
     9  C    4.609544   3.918567   5.060430   5.255968   4.395400
    10  N    5.164824   4.353434   5.336866   5.390040   4.475527
    11  H    2.806737   2.145885   1.080203   2.147590   3.389965
    12  H    4.835148   3.398500   2.148787   1.080621   2.149642
    13  H    5.603103   3.873317   3.391006   2.148190   1.080929
    14  H    4.909506   3.407620   3.863929   3.380698   2.129468
    15  H    3.080360   2.861276   4.157990   4.779353   4.386126
    16  H    2.775169   2.734879   4.082155   4.806743   4.508524
    17  H    5.189821   4.270132   5.257894   5.234500   4.201930
    18  H    5.095663   4.714574   5.956940   6.271627   5.463509
    19  H    5.050375   4.515762   5.568952   5.805208   5.071290
    20  H    4.945114   3.886754   4.674685   4.584780   3.658492
                    6          7          8          9         10
     6  C    0.000000
     7  C    1.404285   0.000000
     8  C    2.567065   1.537183   0.000000
     9  C    3.005298   2.635810   1.542416   0.000000
    10  N    3.233940   3.130491   2.460414   1.453550   0.000000
    11  H    3.864463   3.406649   4.693899   6.017091   6.297348
    12  H    3.395158   3.891726   5.428800   6.307528   6.376898
    13  H    2.149127   3.410398   4.714912   5.003196   4.964252
    14  H    1.080131   2.168699   2.790954   2.638466   2.799173
    15  H    3.181871   2.131793   1.090758   2.157361   3.387399
    16  H    3.336804   2.150632   1.091094   2.149534   2.674142
    17  H    2.863487   2.899659   2.185424   1.091958   2.100911
    18  H    4.069466   3.550687   2.173557   1.092328   2.082089
    19  H    3.881183   3.500914   2.701896   2.039579   1.011267
    20  H    2.568051   2.715330   2.587467   2.029472   1.012137
                   11         12         13         14         15
    11  H    0.000000
    12  H    2.473841   0.000000
    13  H    4.283858   2.476422   0.000000
    14  H    4.944081   4.269625   2.444317   0.000000
    15  H    4.921435   5.837882   5.261267   3.420615   0.000000
    16  H    4.793481   5.865988   5.430312   3.661684   1.738286
    17  H    6.273100   6.238262   4.647615   2.225140   2.535212
    18  H    6.854794   7.336046   6.080614   3.693940   2.442521
    19  H    6.433262   6.793489   5.655504   3.648303   3.643451
    20  H    5.653262   5.520648   4.113299   2.233674   3.616492
                   16         17         18         19         20
    16  H    0.000000
    17  H    3.065506   0.000000
    18  H    2.494358   1.745040   0.000000
    19  H    2.489418   2.941501   2.354910   0.000000
    20  H    2.868527   2.463401   2.921191   1.610999   0.000000
 Stoichiometry    C8H10ClN
 Framework group  C1[X(C8H10ClN)]
 Deg. of freedom    54
 Full point group                 C1      NOp   1
 Largest Abelian subgroup         C1      NOp   1
 Largest concise Abelian subgroup C1      NOp   1
                         Standard orientation:                         
 ---------------------------------------------------------------------
 Center     Atomic      Atomic             Coordinates (Angstroms)
 Number     Number       Type             X           Y           Z
 ---------------------------------------------------------------------
      1         17           0       -1.404751   -2.093162    0.080137
      2          6           0       -1.095023   -0.392012    0.005440
      3          6           0       -2.169178    0.480061    0.187534
      4          6           0       -1.976496    1.858913    0.127328
      5          6           0       -0.704599    2.370081   -0.120793
      6          6           0        0.373121    1.503740   -0.303333
      7          6           0        0.196370    0.112354   -0.233926
      8          6           0        1.371369   -0.857413   -0.438531
      9          6           0        2.796855   -0.268332   -0.434053
     10          7           0        3.118637    0.268643    0.877787
     11          1           0       -3.155635    0.080872    0.372975
     12          1           0       -2.813015    2.528581    0.267048
     13          1           0       -0.553103    3.438886   -0.176579
     14          1           0        1.343487    1.932580   -0.506238
     15          1           0        1.205378   -1.369802   -1.387033
     16          1           0        1.320793   -1.632885    0.327348
     17          1           0        2.902631    0.504008   -1.198694
     18          1           0        3.522595   -1.044697   -0.686518
     19          1           0        3.141843   -0.472163    1.565776
     20          1           0        2.380824    0.893520    1.177088
 ---------------------------------------------------------------------
 Rotational constants (GHZ):           1.4086891           0.9456899           0.6014732
 Standard basis: 6-31G(d,p) (6D, 7F)
 There are   204 symmetry adapted cartesian basis functions of A   symmetry.
 There are   204 symmetry adapted basis functions of A   symmetry.
   204 basis functions,   374 primitive gaussians,   204 cartesian basis functions
    41 alpha electrons       41 beta electrons
       nuclear repulsion energy       579.9792233078 Hartrees.
 NAtoms=   20 NActive=   20 NUniq=   20 SFac= 1.00D+00 NAtFMM=   60 NAOKFM=F Big=F
 Integral buffers will be    131072 words long.
 Raffenetti 2 integral format.
 Two-electron integral symmetry is turned on.
 Nuclear repulsion after empirical dispersion term =      579.9398944447 Hartrees.
 One-electron integrals computed using PRISM.
 NBasis=   204 RedAO= T EigKep=  4.44D-04  NBF=   204
 NBsUse=   204 1.00D-06 EigRej= -1.00D+00 NBFU=   204
 ExpMin= 1.43D-01 ExpMax= 2.52D+04 ExpMxC= 3.78D+03 IAcc=3 IRadAn=         5 AccDes= 0.00D+00
 Harris functional with IExCor=  402 and IRadAn=       5 diagonalized for initial guess.
 HarFok:  IExCor=  402 AccDes= 0.00D+00 IRadAn=         5 IDoV= 1 UseB2=F ITyADJ=14
 ICtDFT=  3500011 ScaDFX=  1.000000  1.000000  1.000000  1.000000
 FoFCou: FMM=F IPFlag=           0 FMFlag=      100000 FMFlg1=           0
         NFxFlg=           0 DoJE=T BraDBF=F KetDBF=T FulRan=T
         wScrn=  0.000000 ICntrl=       500 IOpCl=  0 I1Cent=   200000004 NGrid=           0
         NMat0=    1 NMatS0=      1 NMatT0=    0 NMatD0=    1 NMtDS0=    0 NMtDT0=    0
 Petite list used in FoFCou.
 Requested convergence on RMS density matrix=1.00D-08 within 128 cycles.
 Requested convergence on MAX density matrix=1.00D-06.
 Requested convergence on             energy=1.00D-06.
 No special actions if energy rises.
 Integral accuracy reduced to 1.0D-05 until final iterations.
 Initial convergence to 1.0D-05 achieved.  Increase integral accuracy.
 SCF Done:  E(RB3LYP) =  -825.867731049     A.U. after   14 cycles
            NFock= 14  Conv=0.50D-08     -V/T= 2.0060

 **********************************************************************

            Population analysis using the SCF Density.

 **********************************************************************

 Orbital symmetries:
       Occupied  (A) (A) (A) (A) (A) (A) (A) (A) (A) (A) (A) (A)
                 (A) (A) (A) (A) (A) (A) (A) (A) (A) (A) (A) (A)
                 (A) (A) (A) (A) (A) (A) (A) (A) (A) (A) (A) (A)
                 (A) (A) (A) (A) (A)
       Virtual   (A) (A) (A) (A) (A) (A) (A) (A) (A) (A) (A) (A)
                 (A) (A) (A) (A) (A) (A) (A) (A) (A) (A) (A) (A)
                 (A) (A) (A) (A) (A) (A) (A) (A) (A) (A) (A) (A)
                 (A) (A) (A) (A) (A) (A) (A) (A) (A) (A) (A) (A)
                 (A) (A) (A) (A) (A) (A) (A) (A) (A) (A) (A) (A)
                 (A) (A) (A) (A) (A) (A) (A) (A) (A) (A) (A) (A)
                 (A) (A) (A) (A) (A) (A) (A) (A) (A) (A) (A) (A)
                 (A) (A) (A) (A) (A) (A) (A) (A) (A) (A) (A) (A)
                 (A) (A) (A) (A) (A) (A) (A) (A) (A) (A) (A) (A)
                 (A) (A) (A) (A) (A) (A) (A) (A) (A) (A) (A) (A)
                 (A) (A) (A) (A) (A) (A) (A) (A) (A) (A) (A) (A)
                 (A) (A) (A) (A) (A) (A) (A) (A) (A) (A) (A) (A)
                 (A) (A) (A) (A) (A) (A) (A) (A) (A) (A) (A) (A)
                 (A) (A) (A) (A) (A) (A) (A)
 The electronic state is 1-A.
 Alpha  occ. eigenvalues -- -101.55177 -14.30572 -10.25108 -10.21477 -10.21001
 Alpha  occ. eigenvalues --  -10.20286 -10.20013 -10.19914 -10.19808 -10.18969
 Alpha  occ. eigenvalues --   -9.46837  -7.23219  -7.22276  -7.22228  -0.89880
 Alpha  occ. eigenvalues --   -0.88273  -0.83855  -0.77795  -0.73908  -0.71011
 Alpha  occ. eigenvalues --   -0.63727  -0.60526  -0.58381  -0.52035  -0.49226
 Alpha  occ. eigenvalues --   -0.47178  -0.46445  -0.45082  -0.43276  -0.42221
 Alpha  occ. eigenvalues --   -0.40671  -0.39433  -0.37840  -0.36668  -0.35340
 Alpha  occ. eigenvalues --   -0.34470  -0.33560  -0.31142  -0.25660  -0.24399
 Alpha  occ. eigenvalues --   -0.22816
 Alpha virt. eigenvalues --   -0.01494  -0.01031   0.03844   0.08536   0.10773
 Alpha virt. eigenvalues --    0.12190   0.12779   0.14634   0.15557   0.16122
 Alpha virt. eigenvalues --    0.17648   0.17742   0.19567   0.20866   0.21585
 Alpha virt. eigenvalues --    0.24029   0.25860   0.28493   0.30165   0.30689
 Alpha virt. eigenvalues --    0.34315   0.39603   0.41138   0.44650   0.45411
 Alpha virt. eigenvalues --    0.46337   0.51133   0.52498   0.53917   0.55585
 Alpha virt. eigenvalues --    0.56278   0.56877   0.58042   0.59216   0.59944
 Alpha virt. eigenvalues --    0.60296   0.61346   0.63073   0.64291   0.64452
 Alpha virt. eigenvalues --    0.66789   0.72210   0.72696   0.72842   0.73903
 Alpha virt. eigenvalues --    0.76363   0.77887   0.81004   0.82104   0.83400
 Alpha virt. eigenvalues --    0.84174   0.85341   0.86160   0.88055   0.88766
 Alpha virt. eigenvalues --    0.89317   0.90079   0.92428   0.93024   0.94555
 Alpha virt. eigenvalues --    0.96232   0.96988   1.00770   1.01624   1.03682
 Alpha virt. eigenvalues --    1.04499   1.09028   1.11693   1.13420   1.14630
 Alpha virt. eigenvalues --    1.21594   1.24418   1.24977   1.28665   1.34033
 Alpha virt. eigenvalues --    1.35678   1.40051   1.40640   1.41954   1.43191
 Alpha virt. eigenvalues --    1.48108   1.49546   1.52780   1.58381   1.63649
 Alpha virt. eigenvalues --    1.71374   1.73051   1.74839   1.78000   1.83079
 Alpha virt. eigenvalues --    1.84561   1.84674   1.88292   1.90793   1.93442
 Alpha virt. eigenvalues --    1.95777   1.97215   1.98614   1.99206   2.00468
 Alpha virt. eigenvalues --    2.03829   2.06270   2.09191   2.11538   2.12702
 Alpha virt. eigenvalues --    2.17005   2.18026   2.21163   2.25467   2.25912
 Alpha virt. eigenvalues --    2.28492   2.29813   2.32027   2.33967   2.38081
 Alpha virt. eigenvalues --    2.38179   2.41265   2.43314   2.45965   2.46703
 Alpha virt. eigenvalues --    2.47621   2.49304   2.52487   2.55172   2.55687
 Alpha virt. eigenvalues --    2.56836   2.63228   2.63847   2.65767   2.69421
 Alpha virt. eigenvalues --    2.72025   2.72344   2.75732   2.78629   2.84583
 Alpha virt. eigenvalues --    2.86642   2.91863   2.93554   2.98891   3.00362
 Alpha virt. eigenvalues --    3.03715   3.19215   3.24342   3.27236   3.28382
 Alpha virt. eigenvalues --    3.32798   3.34149   3.36607   3.40202   3.47234
 Alpha virt. eigenvalues --    3.50634   3.59472   3.82731   3.98979   4.06699
 Alpha virt. eigenvalues --    4.13507   4.15656   4.28884   4.37821   4.42266
 Alpha virt. eigenvalues --    4.49547   4.62220   4.80391
          Condensed to atoms (all electrons):
               1          2          3          4          5          6
     1  Cl  16.909738   0.243865  -0.078999   0.004645   0.000240   0.004431
     2  C    0.243865   5.116332   0.510033  -0.039814  -0.042565  -0.039386
     3  C   -0.078999   0.510033   4.869748   0.538880  -0.028025  -0.048000
     4  C    0.004645  -0.039814   0.538880   4.795011   0.546874  -0.036936
     5  C    0.000240  -0.042565  -0.028025   0.546874   4.833988   0.515203
     6  C    0.004431  -0.039386  -0.048000  -0.036936   0.515203   4.903632
     7  C   -0.080011   0.494133  -0.030834  -0.031477  -0.026446   0.540458
     8  C   -0.003638  -0.054002   0.005743   0.000247   0.007045  -0.061285
     9  C    0.000529   0.004373  -0.000079  -0.000012   0.000116  -0.003189
    10  N   -0.000019  -0.000129   0.000012  -0.000004  -0.000041  -0.004275
    11  H   -0.000460  -0.040894   0.369794  -0.035936   0.004610   0.000803
    12  H   -0.000184   0.004860  -0.040964   0.371340  -0.040642   0.004799
    13  H    0.000014   0.001013   0.004660  -0.040689   0.365849  -0.036498
    14  H   -0.000141   0.005487   0.000449   0.004693  -0.041199   0.370424
    15  H    0.002503  -0.006700  -0.000123   0.000030  -0.000148   0.000076
    16  H    0.004477  -0.010295   0.000055   0.000015  -0.000165   0.003161
    17  H   -0.000015  -0.000136   0.000003  -0.000008   0.000101   0.002578
    18  H    0.000005  -0.000106   0.000001   0.000000  -0.000006   0.000122
    19  H   -0.000018  -0.000030   0.000001  -0.000001   0.000010   0.000249
    20  H    0.000009  -0.000148  -0.000038  -0.000014  -0.000133   0.009718
               7          8          9         10         11         12
     1  Cl  -0.080011  -0.003638   0.000529  -0.000019  -0.000460  -0.000184
     2  C    0.494133  -0.054002   0.004373  -0.000129  -0.040894   0.004860
     3  C   -0.030834   0.005743  -0.000079   0.000012   0.369794  -0.040964
     4  C   -0.031477   0.000247  -0.000012  -0.000004  -0.035936   0.371340
     5  C   -0.026446   0.007045   0.000116  -0.000041   0.004610  -0.040642
     6  C    0.540458  -0.061285  -0.003189  -0.004275   0.000803   0.004799
     7  C    4.778506   0.363420  -0.031569  -0.005857   0.003456   0.000754
     8  C    0.363420   5.110070   0.348794  -0.078039  -0.000161   0.000007
     9  C   -0.031569   0.348794   4.803089   0.339825   0.000001  -0.000000
    10  N   -0.005857  -0.078039   0.339825   6.718701  -0.000000   0.000000
    11  H    0.003456  -0.000161   0.000001  -0.000000   0.599658  -0.006472
    12  H    0.000754   0.000007  -0.000000   0.000000  -0.006472   0.619476
    13  H    0.004020  -0.000181   0.000008   0.000001  -0.000188  -0.005964
    14  H   -0.043590  -0.011123   0.004871  -0.001622   0.000016  -0.000216
    15  H   -0.029831   0.339061  -0.027541   0.006660   0.000001   0.000000
    16  H   -0.032124   0.371495  -0.037581  -0.002496   0.000001   0.000000
    17  H   -0.008684  -0.047373   0.383454  -0.040441   0.000000  -0.000000
    18  H    0.004034  -0.036541   0.386004  -0.035458  -0.000000  -0.000000
    19  H   -0.000863  -0.002537  -0.043820   0.346832   0.000000  -0.000000
    20  H    0.007692  -0.006748  -0.051867   0.348465  -0.000000  -0.000000
              13         14         15         16         17         18
     1  Cl   0.000014  -0.000141   0.002503   0.004477  -0.000015   0.000005
     2  C    0.001013   0.005487  -0.006700  -0.010295  -0.000136  -0.000106
     3  C    0.004660   0.000449  -0.000123   0.000055   0.000003   0.000001
     4  C   -0.040689   0.004693   0.000030   0.000015  -0.000008   0.000000
     5  C    0.365849  -0.041199  -0.000148  -0.000165   0.000101  -0.000006
     6  C   -0.036498   0.370424   0.000076   0.003161   0.002578   0.000122
     7  C    0.004020  -0.043590  -0.029831  -0.032124  -0.008684   0.004034
     8  C   -0.000181  -0.011123   0.339061   0.371495  -0.047373  -0.036541
     9  C    0.000008   0.004871  -0.027541  -0.037581   0.383454   0.386004
    10  N    0.000001  -0.001622   0.006660  -0.002496  -0.040441  -0.035458
    11  H   -0.000188   0.000016   0.000001   0.000001   0.000000  -0.000000
    12  H   -0.005964  -0.000216   0.000000   0.000000  -0.000000  -0.000000
    13  H    0.621894  -0.005830   0.000003   0.000002   0.000009  -0.000000
    14  H   -0.005830   0.615868  -0.000049   0.000198   0.001006  -0.000181
    15  H    0.000003  -0.000049   0.634138  -0.033276   0.000331  -0.001355
    16  H    0.000002   0.000198  -0.033276   0.614253   0.005728  -0.003817
    17  H    0.000009   0.001006   0.000331   0.005728   0.630781  -0.036685
    18  H   -0.000000  -0.000181  -0.001355  -0.003817  -0.036685   0.618313
    19  H    0.000000  -0.000068   0.000049   0.005627   0.006895  -0.007634
    20  H    0.000005  -0.000218   0.000351  -0.000952  -0.005026   0.006950
              19         20
     1  Cl  -0.000018   0.000009
     2  C   -0.000030  -0.000148
     3  C    0.000001  -0.000038
     4  C   -0.000001  -0.000014
     5  C    0.000010  -0.000133
     6  C    0.000249   0.009718
     7  C   -0.000863   0.007692
     8  C   -0.002537  -0.006748
     9  C   -0.043820  -0.051867
    10  N    0.346832   0.348465
    11  H    0.000000  -0.000000
    12  H   -0.000000  -0.000000
    13  H    0.000000   0.000005
    14  H   -0.000068  -0.000218
    15  H    0.000049   0.000351
    16  H    0.005627  -0.000952
    17  H    0.006895  -0.005026
    18  H   -0.007634   0.006950
    19  H    0.496244  -0.036412
    20  H   -0.036412   0.491522
 Mulliken charges:
               1
     1  Cl  -0.006972
     2  C   -0.145892
     3  C   -0.072320
     4  C   -0.076845
     5  C   -0.094666
     6  C   -0.126084
     7  C    0.124814
     8  C   -0.244253
     9  C   -0.075406
    10  N   -0.592116
    11  H    0.105772
    12  H    0.093204
    13  H    0.091872
    14  H    0.101226
    15  H    0.115821
    16  H    0.115695
    17  H    0.107481
    18  H    0.106353
    19  H    0.235474
    20  H    0.236841
 Sum of Mulliken charges =  -0.00000
 Mulliken charges with hydrogens summed into heavy atoms:
               1
     1  Cl  -0.006972
     2  C   -0.145892
     3  C    0.033452
     4  C    0.016359
     5  C   -0.002793
     6  C   -0.024858
     7  C    0.124814
     8  C   -0.012737
     9  C    0.138428
    10  N   -0.119800
 Electronic spatial extent (au):  <R**2>=           1858.2137
 Charge=             -0.0000 electrons
 Dipole moment (field-independent basis, Debye):
    X=             -0.7284    Y=              0.7362    Z=             -0.0309  Tot=              1.0360
 Quadrupole moment (field-independent basis, Debye-Ang):
   XX=            -69.8780   YY=            -63.2908   ZZ=            -66.7352
   XY=             -6.2019   XZ=             -2.2917   YZ=             -0.8772
 Traceless Quadrupole moment (field-independent basis, Debye-Ang):
   XX=             -3.2434   YY=              3.3439   ZZ=             -0.1005
   XY=             -6.2019   XZ=             -2.2917   YZ=             -0.8772
 Octapole moment (field-independent basis, Debye-Ang**2):
  XXX=            -48.4351  YYY=              4.6008  ZZZ=              5.6272  XYY=              0.7625
  XXY=            -12.3874  XXZ=             -4.6600  XZZ=              7.7297  YZZ=             -7.2677
  YYZ=              0.7048  XYZ=             -5.1691
 Hexadecapole moment (field-independent basis, Debye-Ang**3):
 XXXX=          -1532.8745 YYYY=           -843.3208 ZZZZ=           -142.0964 XXXY=            -69.5582
 XXXZ=            -45.2931 YYYX=              0.3245 YYYZ=             -4.0328 ZZZX=             14.3230
 ZZZY=             -0.6117 XXYY=           -370.4018 XXZZ=           -256.9760 YYZZ=           -182.1070
 XXYZ=            -13.4197 YYXZ=             -1.4795 ZZXY=              1.9103
 N-N= 5.799398944447D+02 E-N=-3.100499768752D+03  KE= 8.209547554365D+02
 Calling FoFJK, ICntrl=      2127 FMM=F ISym2X=0 I1Cent= 0 IOpClX= 0 NMat=1 NMatS=1 NMatT=0.
 ***** Axes restored to original set *****
 -------------------------------------------------------------------
 Center     Atomic                   Forces (Hartrees/Bohr)
 Number     Number              X              Y              Z
 -------------------------------------------------------------------
      1       17           0.005378812    0.008804179    0.005853993
      2        6          -0.008396615   -0.017337648   -0.012125138
      3        6          -0.001434782   -0.000457386   -0.000265335
      4        6           0.004542844   -0.000856566    0.001084163
      5        6           0.000307356    0.001986449    0.001552453
      6        6          -0.008168493    0.007718223    0.001271850
      7        6           0.019654553   -0.002654186    0.003625489
      8        6          -0.005726089   -0.006177868    0.008545477
      9        6          -0.012980876    0.014826738   -0.004772969
     10        7           0.008155023   -0.013284306   -0.009346409
     11        1          -0.001147365    0.002874289    0.001055725
     12        1          -0.003039409    0.000883350   -0.000694560
     13        1          -0.000724046   -0.002690354   -0.001573505
     14        1           0.004092822   -0.000778175    0.000990242
     15        1          -0.000764918    0.002048485    0.006609472
     16        1           0.001069947    0.002805569   -0.000573473
     17        1          -0.001244702   -0.002760480   -0.001300728
     18        1           0.000383918    0.001733118    0.001327351
     19        1           0.002688563    0.004117758    0.001093501
     20        1          -0.002646545   -0.000801188   -0.002357601
 -------------------------------------------------------------------
 Cartesian Forces:  Max     0.019654553 RMS     0.006153504

 GradGradGradGradGradGradGradGradGradGradGradGradGradGradGradGradGradGrad
 Berny optimization.
 FormGI is forming the generalized inverse of G from B-inverse, IUseBI=4.
 Internal  Forces:  Max     0.024726636 RMS     0.004205256
 Search for a local minimum.
 Step number   1 out of a maximum of  108
 All quantities printed in internal units (Hartrees-Bohrs-Radians)
 Mixed Optimization -- RFO/linear search
 Second derivative matrix not updated -- first step.
 ITU=  0
     Eigenvalues ---    0.00230   0.00274   0.00983   0.01312   0.02031
     Eigenvalues ---    0.02070   0.02094   0.02131   0.02160   0.02168
     Eigenvalues ---    0.02171   0.02178   0.03399   0.04298   0.04558
     Eigenvalues ---    0.05170   0.05390   0.09214   0.10078   0.12675
     Eigenvalues ---    0.13323   0.15999   0.16000   0.16000   0.16000
     Eigenvalues ---    0.16000   0.16000   0.21864   0.22000   0.22008
     Eigenvalues ---    0.22488   0.24476   0.24995   0.25000   0.28306
     Eigenvalues ---    0.28770   0.32432   0.34545   0.34587   0.34687
     Eigenvalues ---    0.34725   0.35882   0.35919   0.35970   0.35978
     Eigenvalues ---    0.37784   0.41594   0.41883   0.45130   0.45617
     Eigenvalues ---    0.45761   0.45940   0.46434   0.46695
 RFO step:  Lambda=-7.46764371D-03 EMin= 2.30000000D-03
 Linear search not attempted -- first point.
 Iteration  1 RMS(Cart)=  0.05731675 RMS(Int)=  0.00174954
 Iteration  2 RMS(Cart)=  0.00200022 RMS(Int)=  0.00024803
 Iteration  3 RMS(Cart)=  0.00000483 RMS(Int)=  0.00024800
 Iteration  4 RMS(Cart)=  0.00000000 RMS(Int)=  0.00024800
 Variable       Old X    -DE/DX   Delta X   Delta X   Delta X     New X
                                 (Linear)    (Quad)   (Total)
    R1        3.27060   0.01170   0.00000   0.03527   0.03527   3.30588
    R2        2.63715   0.00013   0.00000   0.00044   0.00045   2.63760
    R3        2.65866  -0.00291   0.00000  -0.00673  -0.00671   2.65195
    R4        2.63343  -0.00134   0.00000  -0.00236  -0.00237   2.63106
    R5        2.04129   0.00311   0.00000   0.00848   0.00848   2.04976
    R6        2.63248  -0.00016   0.00000  -0.00004  -0.00006   2.63242
    R7        2.04208   0.00308   0.00000   0.00840   0.00840   2.05048
    R8        2.63571   0.00087   0.00000   0.00168   0.00167   2.63738
    R9        2.04266   0.00318   0.00000   0.00867   0.00867   2.05133
   R10        2.65371  -0.00385   0.00000  -0.00891  -0.00890   2.64481
   R11        2.04115   0.00281   0.00000   0.00765   0.00765   2.04880
   R12        2.90486  -0.01064   0.00000  -0.03605  -0.03605   2.86881
   R13        2.91474  -0.00099   0.00000  -0.00340  -0.00340   2.91135
   R14        2.06123   0.00653   0.00000   0.01841   0.01841   2.07964
   R15        2.06187   0.00305   0.00000   0.00862   0.00862   2.07048
   R16        2.74681   0.01052   0.00000   0.02729   0.02729   2.77410
   R17        2.06350   0.00266   0.00000   0.00754   0.00754   2.07104
   R18        2.06420   0.00110   0.00000   0.00312   0.00312   2.06732
   R19        1.91102   0.00456   0.00000   0.00980   0.00980   1.92082
   R20        1.91266   0.00339   0.00000   0.00731   0.00731   1.91998
    A1        2.06105   0.00012   0.00000   0.00057   0.00055   2.06160
    A2        2.12231  -0.00621   0.00000  -0.02401  -0.02403   2.09828
    A3        2.09983   0.00610   0.00000   0.02344   0.02346   2.12329
    A4        2.10163  -0.00247   0.00000  -0.00956  -0.00956   2.09207
    A5        2.08792   0.00021   0.00000  -0.00132  -0.00133   2.08659
    A6        2.09363   0.00226   0.00000   0.01089   0.01089   2.10452
    A7        2.09095  -0.00114   0.00000  -0.00342  -0.00345   2.08750
    A8        2.09503  -0.00044   0.00000  -0.00434  -0.00433   2.09070
    A9        2.09719   0.00159   0.00000   0.00778   0.00779   2.10498
   A10        2.09541  -0.00049   0.00000  -0.00187  -0.00189   2.09352
   A11        2.09438   0.00064   0.00000   0.00329   0.00330   2.09768
   A12        2.09338  -0.00015   0.00000  -0.00141  -0.00140   2.09198
   A13        2.10797   0.00378   0.00000   0.01530   0.01530   2.12327
   A14        2.06252   0.00141   0.00000   0.01201   0.01201   2.07453
   A15        2.11267  -0.00518   0.00000  -0.02735  -0.02736   2.08531
   A16        2.07047  -0.00577   0.00000  -0.02383  -0.02381   2.04666
   A17        2.09221   0.00253   0.00000   0.01050   0.01049   2.10270
   A18        2.12033   0.00324   0.00000   0.01325   0.01324   2.13357
   A19        2.05455  -0.00824   0.00000  -0.03727  -0.03732   2.01723
   A20        1.87106   0.00144   0.00000   0.00851   0.00888   1.87994
   A21        1.89602   0.00282   0.00000   0.00319   0.00278   1.89880
   A22        1.89925   0.00470   0.00000   0.03470   0.03486   1.93410
   A23        1.88835   0.00148   0.00000  -0.00226  -0.00263   1.88572
   A24        1.84364  -0.00168   0.00000  -0.00383  -0.00391   1.83972
   A25        1.92656   0.02473   0.00000   0.11671   0.11671   2.04327
   A26        1.93652  -0.00580   0.00000  -0.01657  -0.01716   1.91936
   A27        1.91975  -0.00841   0.00000  -0.04284  -0.04294   1.87681
   A28        1.92756  -0.00903   0.00000  -0.03358  -0.03456   1.89300
   A29        1.90083  -0.00676   0.00000  -0.02412  -0.02356   1.87727
   A30        1.85095   0.00410   0.00000  -0.00606  -0.00742   1.84353
   A31        1.92672  -0.00341   0.00000  -0.01876  -0.01872   1.90800
   A32        1.91090   0.00205   0.00000   0.01391   0.01395   1.92485
   A33        1.84192   0.00101   0.00000   0.00942   0.00950   1.85142
    D1       -3.13333  -0.00001   0.00000  -0.00059  -0.00060  -3.13392
    D2        0.00480   0.00004   0.00000   0.00137   0.00135   0.00615
    D3        0.00600  -0.00009   0.00000  -0.00342  -0.00346   0.00253
    D4       -3.13906  -0.00003   0.00000  -0.00147  -0.00151  -3.14058
    D5        3.12389   0.00012   0.00000   0.00264   0.00264   3.12653
    D6        0.00180   0.00015   0.00000   0.00682   0.00680   0.00860
    D7       -0.01536   0.00018   0.00000   0.00554   0.00553  -0.00982
    D8       -3.13744   0.00022   0.00000   0.00972   0.00969  -3.12775
    D9        0.00391   0.00005   0.00000   0.00138   0.00136   0.00527
   D10        3.13922   0.00011   0.00000   0.00372   0.00371  -3.14026
   D11       -3.13420  -0.00000   0.00000  -0.00056  -0.00059  -3.13479
   D12        0.00111   0.00006   0.00000   0.00178   0.00176   0.00287
   D13       -0.00417  -0.00004   0.00000  -0.00128  -0.00127  -0.00544
   D14        3.13244   0.00003   0.00000   0.00142   0.00144   3.13388
   D15       -3.13946  -0.00010   0.00000  -0.00357  -0.00360   3.14013
   D16       -0.00285  -0.00003   0.00000  -0.00088  -0.00089  -0.00374
   D17       -0.00552   0.00008   0.00000   0.00325   0.00330  -0.00222
   D18        3.12840  -0.00009   0.00000  -0.00243  -0.00245   3.12595
   D19        3.14105   0.00001   0.00000   0.00055   0.00059  -3.14154
   D20       -0.00821  -0.00016   0.00000  -0.00514  -0.00516  -0.01337
   D21        0.01516  -0.00020   0.00000  -0.00553  -0.00551   0.00966
   D22        3.13692  -0.00024   0.00000  -0.00982  -0.00978   3.12714
   D23       -3.11854  -0.00005   0.00000   0.00014   0.00011  -3.11843
   D24        0.00321  -0.00010   0.00000  -0.00415  -0.00416  -0.00095
   D25       -2.94654   0.00159   0.00000   0.06759   0.06753  -2.87901
   D26        1.19050  -0.00003   0.00000   0.04072   0.04067   1.23117
   D27       -0.79411  -0.00018   0.00000   0.03932   0.03935  -0.75476
   D28        0.21514   0.00172   0.00000   0.07232   0.07232   0.28745
   D29       -1.93102   0.00010   0.00000   0.04545   0.04546  -1.88556
   D30        2.36756  -0.00004   0.00000   0.04405   0.04413   2.41170
   D31        1.14074  -0.00006   0.00000   0.02402   0.02469   1.16543
   D32       -1.00198  -0.00174   0.00000  -0.00290  -0.00273  -1.00471
   D33       -3.04448   0.00190   0.00000   0.04092   0.04062  -3.00385
   D34       -3.01064  -0.00023   0.00000   0.03713   0.03750  -2.97314
   D35        1.12982  -0.00191   0.00000   0.01021   0.01008   1.13990
   D36       -0.91268   0.00173   0.00000   0.05404   0.05344  -0.85924
   D37       -1.01555   0.00099   0.00000   0.04931   0.04974  -0.96581
   D38        3.12492  -0.00069   0.00000   0.02239   0.02232  -3.13595
   D39        1.08242   0.00295   0.00000   0.06622   0.06568   1.14809
   D40        1.12611  -0.00079   0.00000  -0.01194  -0.01170   1.11441
   D41       -0.89431  -0.00125   0.00000  -0.02072  -0.02043  -0.91474
   D42       -3.00912   0.00263   0.00000   0.02415   0.02375  -2.98538
   D43        1.25364   0.00217   0.00000   0.01537   0.01502   1.26866
   D44       -0.98318  -0.00145   0.00000  -0.01615  -0.01606  -0.99924
   D45       -3.00360  -0.00191   0.00000  -0.02493  -0.02480  -3.02840
         Item               Value     Threshold  Converged?
 Maximum Force            0.024727     0.000450     NO 
 RMS     Force            0.004205     0.000300     NO 
 Maximum Displacement     0.233513     0.001800     NO 
 RMS     Displacement     0.056735     0.001200     NO 
 Predicted change in Energy=-3.955870D-03
 GradGradGradGradGradGradGradGradGradGradGradGradGradGradGradGradGradGrad

                          Input orientation:                          
 ---------------------------------------------------------------------
 Center     Atomic      Atomic             Coordinates (Angstroms)
 Number     Number       Type             X           Y           Z
 ---------------------------------------------------------------------
      1         17           0       -0.532404    2.806139    1.419854
      2          6           0       -1.086557    1.376133    0.578203
      3          6           0       -2.414729    1.337527    0.150871
      4          6           0       -2.896636    0.213393   -0.514398
      5          6           0       -2.048273   -0.867721   -0.742358
      6          6           0       -0.722290   -0.816154   -0.310009
      7          6           0       -0.208934    0.304501    0.352864
      8          6           0        1.225760    0.367665    0.845118
      9          6           0        2.182662   -0.678186    0.241761
     10          7           0        2.482215   -0.561865   -1.190628
     11          1           0       -3.063211    2.185679    0.342337
     12          1           0       -3.929038    0.185249   -0.847147
     13          1           0       -2.416028   -1.751790   -1.253751
     14          1           0       -0.081519   -1.673308   -0.483635
     15          1           0        1.206674    0.292972    1.942912
     16          1           0        1.629935    1.362634    0.628012
     17          1           0        1.804127   -1.688129    0.436253
     18          1           0        3.130403   -0.609250    0.783817
     19          1           0        2.970575    0.312936   -1.362108
     20          1           0        1.621167   -0.513425   -1.727770
 ---------------------------------------------------------------------
                    Distance matrix (angstroms):
                    1          2          3          4          5
     1  Cl   0.000000
     2  C    1.749394   0.000000
     3  C    2.703755   1.395760   0.000000
     4  C    4.006652   2.412908   1.392298   0.000000
     5  C    4.524408   2.775546   2.407336   1.393016   0.000000
     6  C    4.018643   2.393268   2.777608   2.414441   1.395642
     7  C    2.738849   1.403351   2.444070   2.825630   2.440652
     8  C    3.060657   2.536743   3.830898   4.343528   3.842597
     9  C    4.571653   3.875721   5.020694   5.212097   4.348013
    10  N    5.219770   4.429530   5.421012   5.476345   4.562873
    11  H    2.819751   2.148990   1.084689   2.156770   3.395573
    12  H    4.852369   3.395516   2.148701   1.085066   2.158010
    13  H    5.609895   3.861017   3.393647   2.153966   1.085516
    14  H    4.887946   3.381818   3.861554   3.389023   2.141035
    15  H    3.100644   2.880031   4.173377   4.783499   4.376364
    16  H    2.717799   2.716982   4.072788   4.807879   4.514599
    17  H    5.159971   4.214962   5.199499   5.159138   4.111348
    18  H    5.048325   4.665488   5.910927   6.219912   5.405063
    19  H    5.121156   4.621203   5.686862   5.928971   5.192964
    20  H    5.056175   4.027370   4.821179   4.734034   3.815934
                    6          7          8          9         10
     6  C    0.000000
     7  C    1.399573   0.000000
     8  C    2.555513   1.518108   0.000000
     9  C    2.960106   2.588001   1.540619   0.000000
    10  N    3.333017   3.221063   2.566509   1.467992   0.000000
    11  H    3.862184   3.418455   4.685428   5.977543   6.375793
    12  H    3.402141   3.910681   5.428534   6.267705   6.463770
    13  H    2.152862   3.417720   4.707437   4.953497   5.041100
    14  H    1.084180   2.151208   2.764079   2.577398   2.882338
    15  H    3.166499   2.128927   1.100498   2.188520   3.489531
    16  H    3.340653   2.139343   1.095653   2.149336   2.781642
    17  H    2.774893   2.833716   2.174389   1.095947   2.091654
    18  H    4.010300   3.488816   2.141445   1.093980   2.078660
    19  H    4.002376   3.612545   2.814112   2.043410   1.016454
    20  H    2.755627   2.889171   2.748166   2.054622   1.016008
                   11         12         13         14         15
    11  H    0.000000
    12  H    2.483194   0.000000
    13  H    4.297674   2.491314   0.000000
    14  H    4.946160   4.288331   2.459507   0.000000
    15  H    4.937216   5.845646   5.246302   3.378436   0.000000
    16  H    4.773325   5.870648   5.441552   3.658111   1.747080
    17  H    6.221430   6.166510   4.546414   2.098112   2.559635
    18  H    6.809360   7.288826   6.018304   3.613184   2.420380
    19  H    6.543613   6.919982   5.769777   3.745952   3.746319
    20  H    5.789119   5.662898   4.249375   2.406728   3.781003
                   16         17         18         19         20
    16  H    0.000000
    17  H    3.061743   0.000000
    18  H    2.482742   1.744646   0.000000
    19  H    2.619115   2.932399   2.341147   0.000000
    20  H    3.011541   2.469089   2.931731   1.624033   0.000000
 Stoichiometry    C8H10ClN
 Framework group  C1[X(C8H10ClN)]
 Deg. of freedom    54
 Full point group                 C1      NOp   1
 Largest Abelian subgroup         C1      NOp   1
 Largest concise Abelian subgroup C1      NOp   1
                         Standard orientation:                         
 ---------------------------------------------------------------------
 Center     Atomic      Atomic             Coordinates (Angstroms)
 Number     Number       Type             X           Y           Z
 ---------------------------------------------------------------------
      1         17           0       -1.390363   -2.102140    0.090044
      2          6           0       -1.097592   -0.379260    0.010340
      3          6           0       -2.177191    0.481621    0.214040
      4          6           0       -1.987107    1.859376    0.149611
      5          6           0       -0.719191    2.367062   -0.124504
      6          6           0        0.351846    1.495233   -0.326020
      7          6           0        0.191342    0.106557   -0.258037
      8          6           0        1.342883   -0.854359   -0.493075
      9          6           0        2.751656   -0.235263   -0.418343
     10          7           0        3.196640    0.256550    0.891278
     11          1           0       -3.158957    0.069060    0.420146
     12          1           0       -2.827033    2.527477    0.309403
     13          1           0       -0.561757    3.439451   -0.184028
     14          1           0        1.327965    1.909036   -0.552750
     15          1           0        1.180266   -1.339941   -1.467169
     16          1           0        1.286691   -1.660349    0.246978
     17          1           0        2.840790    0.581015   -1.144184
     18          1           0        3.464694   -0.998352   -0.744018
     19          1           0        3.260901   -0.523785    1.539449
     20          1           0        2.506257    0.891108    1.282404
 ---------------------------------------------------------------------
 Rotational constants (GHZ):           1.4000644           0.9371765           0.5990032
 Standard basis: 6-31G(d,p) (6D, 7F)
 There are   204 symmetry adapted cartesian basis functions of A   symmetry.
 There are   204 symmetry adapted basis functions of A   symmetry.
   204 basis functions,   374 primitive gaussians,   204 cartesian basis functions
    41 alpha electrons       41 beta electrons
       nuclear repulsion energy       578.5833179635 Hartrees.
 NAtoms=   20 NActive=   20 NUniq=   20 SFac= 1.00D+00 NAtFMM=   60 NAOKFM=F Big=F
 Integral buffers will be    131072 words long.
 Raffenetti 2 integral format.
 Two-electron integral symmetry is turned on.
 Nuclear repulsion after empirical dispersion term =      578.5442084069 Hartrees.
 One-electron integrals computed using PRISM.
 NBasis=   204 RedAO= T EigKep=  4.35D-04  NBF=   204
 NBsUse=   204 1.00D-06 EigRej= -1.00D+00 NBFU=   204
 Initial guess from the checkpoint file:  "N3_conf-4.chk"
 B after Tr=     0.000000   -0.000000   -0.000000
         Rot=    0.999989   -0.002035   -0.004060   -0.001340 Ang=  -0.54 deg.
 ExpMin= 1.43D-01 ExpMax= 2.52D+04 ExpMxC= 3.78D+03 IAcc=3 IRadAn=         5 AccDes= 0.00D+00
 Harris functional with IExCor=  402 and IRadAn=       5 diagonalized for initial guess.
 HarFok:  IExCor=  402 AccDes= 0.00D+00 IRadAn=         5 IDoV= 1 UseB2=F ITyADJ=14
 ICtDFT=  3500011 ScaDFX=  1.000000  1.000000  1.000000  1.000000
 FoFCou: FMM=F IPFlag=           0 FMFlag=      100000 FMFlg1=           0
         NFxFlg=           0 DoJE=T BraDBF=F KetDBF=T FulRan=T
         wScrn=  0.000000 ICntrl=       500 IOpCl=  0 I1Cent=   200000004 NGrid=           0
         NMat0=    1 NMatS0=      1 NMatT0=    0 NMatD0=    1 NMtDS0=    0 NMtDT0=    0
 Petite list used in FoFCou.
 Requested convergence on RMS density matrix=1.00D-08 within 128 cycles.
 Requested convergence on MAX density matrix=1.00D-06.
 Requested convergence on             energy=1.00D-06.
 No special actions if energy rises.
 Integral accuracy reduced to 1.0D-05 until final iterations.
 Initial convergence to 1.0D-05 achieved.  Increase integral accuracy.
 SCF Done:  E(RB3LYP) =  -825.870959604     A.U. after   12 cycles
            NFock= 12  Conv=0.38D-08     -V/T= 2.0061
 Calling FoFJK, ICntrl=      2127 FMM=F ISym2X=0 I1Cent= 0 IOpClX= 0 NMat=1 NMatS=1 NMatT=0.
 ***** Axes restored to original set *****
 -------------------------------------------------------------------
 Center     Atomic                   Forces (Hartrees/Bohr)
 Number     Number              X              Y              Z
 -------------------------------------------------------------------
      1       17           0.001211044    0.004342748    0.002549156
      2        6          -0.005935172   -0.006494810   -0.005539300
      3        6           0.000212720    0.002626638    0.001320361
      4        6           0.000794995   -0.001001590   -0.000153318
      5        6           0.000534910   -0.000166911    0.000101187
      6        6          -0.003632059   -0.000180841   -0.000992305
      7        6           0.005614094    0.001966233    0.002025912
      8        6          -0.001145643   -0.001072547   -0.003647213
      9        6          -0.000091963    0.000272558    0.001623452
     10        7          -0.000390742   -0.000432031    0.003899616
     11        1           0.000526937    0.000021656    0.000144708
     12        1          -0.000052835    0.000156111    0.000041864
     13        1           0.000306483    0.000000963    0.000047093
     14        1           0.000257125    0.000336072   -0.000230708
     15        1           0.002345531   -0.001383445   -0.001113597
     16        1          -0.000326776    0.000720456    0.000533134
     17        1           0.000472107   -0.000262485   -0.000158114
     18        1           0.001006037   -0.000548513   -0.000142309
     19        1          -0.000226178    0.001115891   -0.000228589
     20        1          -0.001480611   -0.000016152   -0.000081031
 -------------------------------------------------------------------
 Cartesian Forces:  Max     0.006494810 RMS     0.002036070

 GradGradGradGradGradGradGradGradGradGradGradGradGradGradGradGradGradGrad
 Berny optimization.
 Using GEDIIS/GDIIS optimizer.
 FormGI is forming the generalized inverse of G from B-inverse, IUseBI=4.
 Internal  Forces:  Max     0.005160146 RMS     0.001240273
 Search for a local minimum.
 Step number   2 out of a maximum of  108
 All quantities printed in internal units (Hartrees-Bohrs-Radians)
 Mixed Optimization -- RFO/linear search
 Update second derivatives using D2CorX and points    1    2
 DE= -3.23D-03 DEPred=-3.96D-03 R= 8.16D-01
 TightC=F SS=  1.41D+00  RLast= 2.49D-01 DXNew= 5.0454D-01 7.4842D-01
 Trust test= 8.16D-01 RLast= 2.49D-01 DXMaxT set to 5.05D-01
 ITU=  1  0
 Use linear search instead of GDIIS.
     Eigenvalues ---    0.00238   0.00287   0.00982   0.01299   0.02032
     Eigenvalues ---    0.02071   0.02096   0.02130   0.02160   0.02168
     Eigenvalues ---    0.02171   0.02178   0.03581   0.03686   0.04563
     Eigenvalues ---    0.05179   0.05396   0.09813   0.10164   0.13064
     Eigenvalues ---    0.13398   0.15800   0.15999   0.16000   0.16000
     Eigenvalues ---    0.16000   0.16074   0.21220   0.21958   0.22157
     Eigenvalues ---    0.22512   0.24774   0.24986   0.26140   0.28229
     Eigenvalues ---    0.29012   0.31709   0.34525   0.34588   0.34670
     Eigenvalues ---    0.34898   0.35887   0.35915   0.35975   0.35990
     Eigenvalues ---    0.39188   0.41797   0.42084   0.45131   0.45491
     Eigenvalues ---    0.45713   0.46063   0.46646   0.46753
 RFO step:  Lambda=-8.47749075D-04 EMin= 2.37743119D-03
 Quartic linear search produced a step of -0.10380.
 Iteration  1 RMS(Cart)=  0.07719367 RMS(Int)=  0.00268024
 Iteration  2 RMS(Cart)=  0.00366217 RMS(Int)=  0.00003140
 Iteration  3 RMS(Cart)=  0.00000485 RMS(Int)=  0.00003112
 Iteration  4 RMS(Cart)=  0.00000000 RMS(Int)=  0.00003112
 Variable       Old X    -DE/DX   Delta X   Delta X   Delta X     New X
                                 (Linear)    (Quad)   (Total)
    R1        3.30588   0.00516  -0.00366   0.02319   0.01953   3.32540
    R2        2.63760  -0.00178  -0.00005  -0.00327  -0.00331   2.63429
    R3        2.65195   0.00168   0.00070   0.00181   0.00251   2.65446
    R4        2.63106   0.00039   0.00025   0.00011   0.00034   2.63141
    R5        2.04976  -0.00027  -0.00088   0.00147   0.00059   2.05035
    R6        2.63242  -0.00018   0.00001  -0.00047  -0.00048   2.63194
    R7        2.05048   0.00003  -0.00087   0.00221   0.00134   2.05181
    R8        2.63738  -0.00093  -0.00017  -0.00144  -0.00162   2.63576
    R9        2.05133  -0.00013  -0.00090   0.00188   0.00098   2.05230
   R10        2.64481   0.00153   0.00092   0.00085   0.00178   2.64659
   R11        2.04880  -0.00008  -0.00079   0.00174   0.00095   2.04975
   R12        2.86881   0.00031   0.00374  -0.00815  -0.00441   2.86440
   R13        2.91135  -0.00245   0.00035  -0.00862  -0.00827   2.90308
   R14        2.07964  -0.00106  -0.00191   0.00192   0.00001   2.07965
   R15        2.07048   0.00043  -0.00089   0.00329   0.00239   2.07288
   R16        2.77410  -0.00388  -0.00283  -0.00230  -0.00514   2.76897
   R17        2.07104   0.00005  -0.00078   0.00204   0.00126   2.07230
   R18        2.06732   0.00077  -0.00032   0.00278   0.00246   2.06978
   R19        1.92082   0.00089  -0.00102   0.00423   0.00321   1.92403
   R20        1.91998   0.00130  -0.00076   0.00440   0.00364   1.92362
    A1        2.06160  -0.00199  -0.00006  -0.00716  -0.00723   2.05438
    A2        2.09828  -0.00058   0.00249  -0.00828  -0.00580   2.09248
    A3        2.12329   0.00257  -0.00244   0.01541   0.01298   2.13627
    A4        2.09207  -0.00097   0.00099  -0.00637  -0.00538   2.08669
    A5        2.08659  -0.00000   0.00014  -0.00107  -0.00093   2.08567
    A6        2.10452   0.00097  -0.00113   0.00744   0.00631   2.11083
    A7        2.08750   0.00010   0.00036  -0.00081  -0.00047   2.08703
    A8        2.09070  -0.00022   0.00045  -0.00207  -0.00161   2.08909
    A9        2.10498   0.00012  -0.00081   0.00289   0.00209   2.10707
   A10        2.09352   0.00017   0.00020  -0.00017   0.00002   2.09354
   A11        2.09768   0.00020  -0.00034   0.00229   0.00195   2.09962
   A12        2.09198  -0.00037   0.00015  -0.00211  -0.00196   2.09002
   A13        2.12327   0.00121  -0.00159   0.00874   0.00715   2.13042
   A14        2.07453  -0.00035  -0.00125   0.00206   0.00080   2.07533
   A15        2.08531  -0.00086   0.00284  -0.01072  -0.00790   2.07741
   A16        2.04666  -0.00308   0.00247  -0.01672  -0.01425   2.03241
   A17        2.10270   0.00252  -0.00109   0.01163   0.01051   2.11321
   A18        2.13357   0.00057  -0.00137   0.00534   0.00394   2.13750
   A19        2.01723   0.00120   0.00387  -0.00359   0.00030   2.01753
   A20        1.87994   0.00205  -0.00092   0.01865   0.01771   1.89765
   A21        1.89880  -0.00137  -0.00029  -0.00459  -0.00484   1.89396
   A22        1.93410  -0.00309  -0.00362  -0.01346  -0.01709   1.91702
   A23        1.88572   0.00092   0.00027   0.00572   0.00603   1.89175
   A24        1.83972   0.00020   0.00041  -0.00283  -0.00241   1.83731
   A25        2.04327  -0.00448  -0.01211   0.00991  -0.00221   2.04106
   A26        1.91936   0.00184   0.00178   0.00273   0.00456   1.92392
   A27        1.87681   0.00170   0.00446   0.00031   0.00477   1.88158
   A28        1.89300   0.00081   0.00359  -0.01180  -0.00811   1.88490
   A29        1.87727   0.00124   0.00245  -0.00054   0.00185   1.87912
   A30        1.84353  -0.00082   0.00077  -0.00154  -0.00065   1.84288
   A31        1.90800   0.00002   0.00194  -0.00657  -0.00466   1.90334
   A32        1.92485  -0.00130  -0.00145  -0.00571  -0.00719   1.91766
   A33        1.85142   0.00017  -0.00099  -0.00079  -0.00183   1.84958
    D1       -3.13392   0.00007   0.00006   0.00188   0.00193  -3.13200
    D2        0.00615   0.00008  -0.00014   0.00328   0.00313   0.00928
    D3        0.00253  -0.00007   0.00036  -0.00472  -0.00438  -0.00185
    D4       -3.14058  -0.00005   0.00016  -0.00332  -0.00318   3.13943
    D5        3.12653   0.00001  -0.00027   0.00226   0.00195   3.12848
    D6        0.00860  -0.00020  -0.00071  -0.00948  -0.01017  -0.00157
    D7       -0.00982   0.00014  -0.00057   0.00899   0.00840  -0.00143
    D8       -3.12775  -0.00007  -0.00101  -0.00275  -0.00372  -3.13147
    D9        0.00527  -0.00003  -0.00014  -0.00122  -0.00138   0.00390
   D10       -3.14026   0.00004  -0.00038   0.00263   0.00224  -3.13802
   D11       -3.13479  -0.00004   0.00006  -0.00263  -0.00259  -3.13738
   D12        0.00287   0.00002  -0.00018   0.00122   0.00103   0.00390
   D13       -0.00544   0.00006   0.00013   0.00264   0.00278  -0.00266
   D14        3.13388   0.00011  -0.00015   0.00579   0.00566   3.13954
   D15        3.14013  -0.00001   0.00037  -0.00123  -0.00087   3.13926
   D16       -0.00374   0.00005   0.00009   0.00192   0.00201  -0.00173
   D17       -0.00222   0.00000  -0.00034   0.00182   0.00148  -0.00073
   D18        3.12595   0.00020   0.00025   0.00814   0.00842   3.13437
   D19       -3.14154  -0.00005  -0.00006  -0.00132  -0.00138   3.14026
   D20       -0.01337   0.00014   0.00054   0.00500   0.00556  -0.00782
   D21        0.00966  -0.00012   0.00057  -0.00756  -0.00694   0.00272
   D22        3.12714   0.00013   0.00102   0.00449   0.00545   3.13259
   D23       -3.11843  -0.00032  -0.00001  -0.01402  -0.01395  -3.13238
   D24       -0.00095  -0.00008   0.00043  -0.00197  -0.00156  -0.00251
   D25       -2.87901  -0.00088  -0.00701  -0.01518  -0.02214  -2.90115
   D26        1.23117   0.00071  -0.00422  -0.00977  -0.01395   1.21722
   D27       -0.75476   0.00011  -0.00408  -0.01373  -0.01778  -0.77254
   D28        0.28745  -0.00105  -0.00751  -0.02722  -0.03475   0.25270
   D29       -1.88556   0.00054  -0.00472  -0.02181  -0.02657  -1.91212
   D30        2.41170  -0.00006  -0.00458  -0.02577  -0.03039   2.38131
   D31        1.16543  -0.00108  -0.00256  -0.10887  -0.11150   1.05393
   D32       -1.00471  -0.00025   0.00028  -0.10287  -0.10259  -1.10729
   D33       -3.00385  -0.00115  -0.00422  -0.10262  -0.10681  -3.11066
   D34       -2.97314   0.00006  -0.00389  -0.09749  -0.10143  -3.07458
   D35        1.13990   0.00089  -0.00105  -0.09149  -0.09252   1.04739
   D36       -0.85924  -0.00001  -0.00555  -0.09124  -0.09674  -0.95598
   D37       -0.96581  -0.00083  -0.00516  -0.10484  -0.11005  -1.07586
   D38       -3.13595   0.00000  -0.00232  -0.09883  -0.10113   3.04611
   D39        1.14809  -0.00090  -0.00682  -0.09858  -0.10535   1.04274
   D40        1.11441  -0.00036   0.00121  -0.02316  -0.02197   1.09244
   D41       -0.91474   0.00017   0.00212  -0.01508  -0.01301  -0.92775
   D42       -2.98538  -0.00060  -0.00247  -0.02198  -0.02439  -3.00976
   D43        1.26866  -0.00007  -0.00156  -0.01390  -0.01543   1.25323
   D44       -0.99924  -0.00053   0.00167  -0.02987  -0.02820  -1.02744
   D45       -3.02840  -0.00001   0.00257  -0.02178  -0.01924  -3.04763
         Item               Value     Threshold  Converged?
 Maximum Force            0.005160     0.000450     NO 
 RMS     Force            0.001240     0.000300     NO 
 Maximum Displacement     0.305996     0.001800     NO 
 RMS     Displacement     0.077754     0.001200     NO 
 Predicted change in Energy=-4.758888D-04
 GradGradGradGradGradGradGradGradGradGradGradGradGradGradGradGradGradGrad

                          Input orientation:                          
 ---------------------------------------------------------------------
 Center     Atomic      Atomic             Coordinates (Angstroms)
 Number     Number       Type             X           Y           Z
 ---------------------------------------------------------------------
      1         17           0       -0.561119    2.789550    1.491208
      2          6           0       -1.089793    1.368754    0.597630
      3          6           0       -2.412554    1.334023    0.159048
      4          6           0       -2.874976    0.223104   -0.541684
      5          6           0       -2.011372   -0.840731   -0.791153
      6          6           0       -0.691918   -0.786560   -0.342225
      7          6           0       -0.190760    0.315544    0.361799
      8          6           0        1.238062    0.379241    0.863777
      9          6           0        2.197683   -0.662346    0.268581
     10          7           0        2.393132   -0.631892   -1.183280
     11          1           0       -3.067268    2.173356    0.369028
     12          1           0       -3.903916    0.195149   -0.887233
     13          1           0       -2.360199   -1.713740   -1.334881
     14          1           0       -0.035855   -1.627409   -0.539938
     15          1           0        1.231053    0.296515    1.961145
     16          1           0        1.637472    1.378657    0.651949
     17          1           0        1.878874   -1.674151    0.546378
     18          1           0        3.177001   -0.522803    0.738794
     19          1           0        2.808649    0.260276   -1.444078
     20          1           0        1.491702   -0.669538   -1.654664
 ---------------------------------------------------------------------
                    Distance matrix (angstroms):
                    1          2          3          4          5
     1  Cl   0.000000
     2  C    1.759727   0.000000
     3  C    2.705738   1.394007   0.000000
     4  C    4.009143   2.407784   1.392480   0.000000
     5  C    4.526737   2.767643   2.406945   1.392764   0.000000
     6  C    4.020839   2.384745   2.776461   2.413493   1.394787
     7  C    2.744711   1.404681   2.452504   2.833697   2.445587
     8  C    3.072509   2.543399   3.838652   4.349342   3.845250
     9  C    4.584910   3.878291   5.025114   5.212717   4.344076
    10  N    5.252310   4.393745   5.362955   5.375465   4.426853
    11  H    2.814207   2.147103   1.084998   2.160984   3.397890
    12  H    4.854090   3.391379   2.148465   1.085773   2.159630
    13  H    5.612762   3.853609   3.394617   2.155347   1.086032
    14  H    4.889886   3.373698   3.861005   3.388954   2.141177
    15  H    3.106115   2.897447   4.195218   4.809264   4.402476
    16  H    2.743862   2.727824   4.080153   4.808559   4.508024
    17  H    5.174060   4.251456   5.255044   5.232833   4.197331
    18  H    5.050877   4.669416   5.918364   6.230764   5.418581
    19  H    5.135024   4.538188   5.566319   5.754936   4.987096
    20  H    5.106455   3.986425   4.748371   4.593845   3.611992
                    6          7          8          9         10
     6  C    0.000000
     7  C    1.400514   0.000000
     8  C    2.557021   1.515774   0.000000
     9  C    2.956062   2.582561   1.536241   0.000000
    10  N    3.201379   3.156169   2.558715   1.465274   0.000000
    11  H    3.861252   3.424298   4.690361   5.980887   6.332065
    12  H    3.402605   3.919452   5.435059   6.269028   6.358023
    13  H    2.151324   3.420992   4.707670   4.944776   4.877247
    14  H    1.084683   2.147601   2.760421   2.563931   2.702762
    15  H    3.190044   2.140052   1.100504   2.172225   3.478474
    16  H    3.332056   2.134673   1.096919   2.150931   2.825137
    17  H    2.861189   2.876862   2.174351   1.096612   2.083862
    18  H    4.025754   3.490955   2.142146   1.095279   2.078634
    19  H    3.816270   3.501528   2.794117   2.039047   1.018152
    20  H    2.550370   2.804851   2.739857   2.048739   1.017937
                   11         12         13         14         15
    11  H    0.000000
    12  H    2.488267   0.000000
    13  H    4.302647   2.495457   0.000000
    14  H    4.945857   4.290015   2.458041   0.000000
    15  H    4.953073   5.872942   5.272761   3.400287   0.000000
    16  H    4.779766   5.871690   5.430634   3.641023   1.746483
    17  H    6.268898   6.244212   4.637936   2.201920   2.510928
    18  H    6.811526   7.300603   6.031504   3.630117   2.439700
    19  H    6.440002   6.735937   5.534046   3.531576   3.753088
    20  H    5.741218   5.518091   4.003719   2.119803   3.751703
                   16         17         18         19         20
    16  H    0.000000
    17  H    3.064156   0.000000
    18  H    2.448110   1.745783   0.000000
    19  H    2.648728   2.927183   2.348154   0.000000
    20  H    3.088173   2.450252   2.930939   1.625808   0.000000
 Stoichiometry    C8H10ClN
 Framework group  C1[X(C8H10ClN)]
 Deg. of freedom    54
 Full point group                 C1      NOp   1
 Largest Abelian subgroup         C1      NOp   1
 Largest concise Abelian subgroup C1      NOp   1
                         Standard orientation:                         
 ---------------------------------------------------------------------
 Center     Atomic      Atomic             Coordinates (Angstroms)
 Number     Number       Type             X           Y           Z
 ---------------------------------------------------------------------
      1         17           0       -1.492939   -2.053297    0.100531
      2          6           0       -1.109231   -0.338213    0.011686
      3          6           0       -2.151761    0.569402    0.192304
      4          6           0       -1.893571    1.935738    0.118389
      5          6           0       -0.598214    2.377632   -0.139626
      6          6           0        0.430337    1.452745   -0.318784
      7          6           0        0.209083    0.071656   -0.247512
      8          6           0        1.317640   -0.941687   -0.451990
      9          6           0        2.747105   -0.381539   -0.398120
     10          7           0        3.161595    0.261428    0.851608
     11          1           0       -3.153202    0.200701    0.388256
     12          1           0       -2.703290    2.644698    0.262034
     13          1           0       -0.384034    3.440527   -0.201663
     14          1           0        1.431457    1.815405   -0.525600
     15          1           0        1.153897   -1.455789   -1.411154
     16          1           0        1.222425   -1.721403    0.313652
     17          1           0        2.905713    0.332374   -1.215268
     18          1           0        3.438491   -1.208700   -0.591573
     19          1           0        3.140210   -0.426194    1.602176
     20          1           0        2.488802    0.980022    1.110775
 ---------------------------------------------------------------------
 Rotational constants (GHZ):           1.4082219           0.9442671           0.6001083
 Standard basis: 6-31G(d,p) (6D, 7F)
 There are   204 symmetry adapted cartesian basis functions of A   symmetry.
 There are   204 symmetry adapted basis functions of A   symmetry.
   204 basis functions,   374 primitive gaussians,   204 cartesian basis functions
    41 alpha electrons       41 beta electrons
       nuclear repulsion energy       579.2893816723 Hartrees.
 NAtoms=   20 NActive=   20 NUniq=   20 SFac= 1.00D+00 NAtFMM=   60 NAOKFM=F Big=F
 Integral buffers will be    131072 words long.
 Raffenetti 2 integral format.
 Two-electron integral symmetry is turned on.
 Nuclear repulsion after empirical dispersion term =      579.2500861799 Hartrees.
 One-electron integrals computed using PRISM.
 NBasis=   204 RedAO= T EigKep=  4.33D-04  NBF=   204
 NBsUse=   204 1.00D-06 EigRej= -1.00D+00 NBFU=   204
 Initial guess from the checkpoint file:  "N3_conf-4.chk"
 B after Tr=    -0.000000    0.000000    0.000000
         Rot=    0.999770    0.010103    0.002557    0.018739 Ang=   2.46 deg.
 ExpMin= 1.43D-01 ExpMax= 2.52D+04 ExpMxC= 3.78D+03 IAcc=3 IRadAn=         5 AccDes= 0.00D+00
 Harris functional with IExCor=  402 and IRadAn=       5 diagonalized for initial guess.
 HarFok:  IExCor=  402 AccDes= 0.00D+00 IRadAn=         5 IDoV= 1 UseB2=F ITyADJ=14
 ICtDFT=  3500011 ScaDFX=  1.000000  1.000000  1.000000  1.000000
 FoFCou: FMM=F IPFlag=           0 FMFlag=      100000 FMFlg1=           0
         NFxFlg=           0 DoJE=T BraDBF=F KetDBF=T FulRan=T
         wScrn=  0.000000 ICntrl=       500 IOpCl=  0 I1Cent=   200000004 NGrid=           0
         NMat0=    1 NMatS0=      1 NMatT0=    0 NMatD0=    1 NMtDS0=    0 NMtDT0=    0
 Petite list used in FoFCou.
 Requested convergence on RMS density matrix=1.00D-08 within 128 cycles.
 Requested convergence on MAX density matrix=1.00D-06.
 Requested convergence on             energy=1.00D-06.
 No special actions if energy rises.
 Integral accuracy reduced to 1.0D-05 until final iterations.
 Initial convergence to 1.0D-05 achieved.  Increase integral accuracy.
 SCF Done:  E(RB3LYP) =  -825.871007319     A.U. after   11 cycles
            NFock= 11  Conv=0.90D-08     -V/T= 2.0061
 Calling FoFJK, ICntrl=      2127 FMM=F ISym2X=0 I1Cent= 0 IOpClX= 0 NMat=1 NMatS=1 NMatT=0.
 ***** Axes restored to original set *****
 -------------------------------------------------------------------
 Center     Atomic                   Forces (Hartrees/Bohr)
 Number     Number              X              Y              Z
 -------------------------------------------------------------------
      1       17           0.000463728    0.001314756    0.000791924
      2        6          -0.001454499   -0.002375307   -0.001375443
      3        6           0.000407678    0.001568746    0.000797282
      4        6          -0.000371530   -0.000482804   -0.000480844
      5        6           0.000104466   -0.000416102   -0.000238788
      6        6          -0.000998316   -0.001305351   -0.000380454
      7        6           0.000610689    0.002137010    0.001551385
      8        6          -0.000557490    0.000867528   -0.001895083
      9        6           0.000484731   -0.002312691    0.000434875
     10        7           0.000596885    0.001887752    0.000827998
     11        1           0.000509813   -0.000483938   -0.000070589
     12        1           0.000412735   -0.000109319    0.000122867
     13        1           0.000262411    0.000376296    0.000315914
     14        1          -0.001013457   -0.000577447    0.000745395
     15        1           0.000536096   -0.000405945   -0.001125798
     16        1          -0.000451397    0.000165107    0.000325879
     17        1          -0.000531303    0.000077697    0.000379940
     18        1           0.000032964   -0.000487557   -0.000100130
     19        1          -0.000582671   -0.000138319   -0.000605531
     20        1           0.001538469    0.000699889   -0.000020799
 -------------------------------------------------------------------
 Cartesian Forces:  Max     0.002375307 RMS     0.000920099

 GradGradGradGradGradGradGradGradGradGradGradGradGradGradGradGradGradGrad
 Berny optimization.
 Using GEDIIS/GDIIS optimizer.
 FormGI is forming the generalized inverse of G from B-inverse, IUseBI=4.
 Internal  Forces:  Max     0.003473503 RMS     0.000789435
 Search for a local minimum.
 Step number   3 out of a maximum of  108
 All quantities printed in internal units (Hartrees-Bohrs-Radians)
 Mixed Optimization -- En-DIIS/RFO-DIIS
 Update second derivatives using D2CorX and points    1    2    3
 DE= -4.77D-05 DEPred=-4.76D-04 R= 1.00D-01
[...]
     15  H    Isotropic =    29.2874   Anisotropy =     8.3679
   XX=    27.7812   YX=    -0.2993   ZX=     0.3036
   XY=    -0.6220   YY=    28.4594   ZY=    -3.6341
   XZ=    -1.1088   YZ=    -5.4831   ZZ=    31.6216
   Eigenvalues:    25.0784    27.9177    34.8660
     16  H    Isotropic =    28.6117   Anisotropy =     4.0217
   XX=    27.4439   YX=     0.2442   ZX=    -2.3723
   XY=     1.2602   YY=    30.9699   ZY=     0.5033
   XZ=    -3.5698   YZ=     1.7119   ZZ=    27.4213
   Eigenvalues:    24.2053    30.3369    31.2929
     17  H    Isotropic =    29.3595   Anisotropy =     8.3628
   XX=    26.2067   YX=     0.0795   ZX=     1.7491
   XY=    -0.6283   YY=    34.8661   ZY=     0.5517
   XZ=     3.5065   YZ=     0.9221   ZZ=    27.0058
   Eigenvalues:    23.9049    29.2390    34.9347
     18  H    Isotropic =    28.7525   Anisotropy =     8.6506
   XX=    32.2779   YX=     3.4393   ZX=    -0.6848
   XY=     4.2910   YY=    26.8465   ZY=    -2.4945
   XZ=     0.2031   YZ=    -2.1244   ZZ=    27.1331
   Eigenvalues:    23.6944    28.0435    34.5195
     19  H    Isotropic =    31.8399   Anisotropy =    11.9753
   XX=    29.9927   YX=    -3.7994   ZX=    -0.6734
   XY=    -4.3800   YY=    38.0905   ZY=     1.8060
   XZ=     1.2894   YZ=    -0.3001   ZZ=    27.4366
   Eigenvalues:    27.1263    28.5701    39.8234
     20  H    Isotropic =    31.6731   Anisotropy =     8.6899
   XX=    35.8432   YX=     0.6726   ZX=    -3.3796
   XY=     3.1669   YY=    26.8645   ZY=    -1.4834
   XZ=    -0.8595   YZ=    -2.4221   ZZ=    32.3115
   Eigenvalues:    26.0784    31.4745    37.4663
 End of Minotr F.D. properties file   721 does not exist.
 End of Minotr F.D. properties file   722 does not exist.
 End of Minotr F.D. properties file   788 does not exist.

 **********************************************************************

            Population analysis using the SCF Density.

 **********************************************************************

 Orbital symmetries:
       Occupied  (A) (A) (A) (A) (A) (A) (A) (A) (A) (A) (A) (A)
                 (A) (A) (A) (A) (A) (A) (A) (A) (A) (A) (A) (A)
                 (A) (A) (A) (A) (A) (A) (A) (A) (A) (A) (A) (A)
                 (A) (A) (A) (A) (A)
       Virtual   (A) (A) (A) (A) (A) (A) (A) (A) (A) (A) (A) (A)
                 (A) (A) (A) (A) (A) (A) (A) (A) (A) (A) (A) (A)
                 (A) (A) (A) (A) (A) (A) (A) (A) (A) (A) (A) (A)
                 (A) (A) (A) (A) (A) (A) (A) (A) (A) (A) (A) (A)
                 (A) (A) (A) (A) (A) (A) (A) (A) (A) (A) (A) (A)
                 (A) (A) (A) (A) (A) (A) (A) (A) (A) (A) (A) (A)
                 (A) (A) (A) (A) (A) (A) (A) (A) (A) (A) (A) (A)
                 (A) (A) (A) (A) (A) (A) (A) (A) (A) (A) (A) (A)
                 (A) (A) (A) (A) (A) (A) (A) (A) (A) (A) (A) (A)
                 (A) (A) (A) (A) (A) (A) (A) (A) (A) (A) (A) (A)
                 (A) (A) (A) (A) (A) (A) (A) (A) (A) (A) (A) (A)
                 (A) (A) (A) (A) (A) (A) (A) (A) (A) (A) (A) (A)
                 (A) (A) (A) (A) (A) (A) (A) (A) (A) (A) (A) (A)
                 (A) (A) (A) (A) (A) (A) (A) (A) (A) (A) (A) (A)
                 (A) (A) (A) (A) (A) (A) (A) (A) (A) (A) (A) (A)
                 (A) (A) (A) (A) (A) (A) (A) (A) (A) (A) (A) (A)
                 (A) (A) (A) (A) (A) (A) (A) (A) (A) (A) (A) (A)
                 (A) (A) (A) (A) (A) (A) (A) (A) (A) (A) (A) (A)
                 (A) (A) (A) (A) (A) (A) (A) (A) (A) (A) (A) (A)
                 (A) (A) (A) (A) (A) (A) (A) (A) (A) (A) (A) (A)
                 (A) (A) (A) (A) (A) (A) (A) (A) (A) (A) (A) (A)
                 (A) (A) (A) (A) (A) (A) (A) (A) (A) (A) (A) (A)
                 (A) (A) (A) (A) (A) (A) (A) (A) (A) (A) (A) (A)
                 (A) (A) (A) (A) (A) (A) (A) (A) (A) (A) (A) (A)
                 (A) (A) (A) (A) (A) (A) (A) (A) (A) (A) (A) (A)
                 (A) (A) (A) (A) (A) (A) (A) (A) (A) (A) (A) (A)
                 (A) (A) (A) (A) (A) (A) (A) (A) (A) (A) (A) (A)
                 (A) (A) (A) (A) (A) (A) (A) (A) (A) (A) (A)
 The electronic state is 1-A.
 Alpha  occ. eigenvalues -- -102.64860 -14.72295 -10.61163 -10.56866 -10.56341
 Alpha  occ. eigenvalues --  -10.56006 -10.55691 -10.55663 -10.55489 -10.54383
 Alpha  occ. eigenvalues --   -9.81103  -7.53294  -7.52795  -7.52779  -1.00366
 Alpha  occ. eigenvalues --   -0.98379  -0.93900  -0.88581  -0.83718  -0.80655
 Alpha  occ. eigenvalues --   -0.72069  -0.69495  -0.66659  -0.59464  -0.57071
 Alpha  occ. eigenvalues --   -0.55298  -0.53456  -0.50577  -0.50307  -0.49824
 Alpha  occ. eigenvalues --   -0.48554  -0.45573  -0.44719  -0.42867  -0.41329
 Alpha  occ. eigenvalues --   -0.40703  -0.40458  -0.37650  -0.32355  -0.30996
 Alpha  occ. eigenvalues --   -0.29718
 Alpha virt. eigenvalues --    0.00418   0.00756   0.05862   0.06820   0.08495
 Alpha virt. eigenvalues --    0.09856   0.10297   0.11863   0.12305   0.12997
 Alpha virt. eigenvalues --    0.13913   0.14503   0.16952   0.17290   0.18431
 Alpha virt. eigenvalues --    0.19636   0.20219   0.21758   0.22641   0.24123
 Alpha virt. eigenvalues --    0.24972   0.25783   0.25964   0.28113   0.28426
 Alpha virt. eigenvalues --    0.28898   0.30269   0.30942   0.31598   0.32996
 Alpha virt. eigenvalues --    0.34024   0.34336   0.35021   0.35523   0.36808
 Alpha virt. eigenvalues --    0.36902   0.38182   0.39273   0.39994   0.40085
 Alpha virt. eigenvalues --    0.41350   0.41898   0.42807   0.44132   0.44434
 Alpha virt. eigenvalues --    0.45332   0.46296   0.46524   0.47238   0.47513
 Alpha virt. eigenvalues --    0.49075   0.49915   0.51164   0.52113   0.52314
 Alpha virt. eigenvalues --    0.53459   0.54251   0.54913   0.56279   0.57035
 Alpha virt. eigenvalues --    0.58255   0.59386   0.60393   0.62042   0.63188
 Alpha virt. eigenvalues --    0.64752   0.66299   0.67939   0.69186   0.70564
 Alpha virt. eigenvalues --    0.71170   0.72973   0.74432   0.75501   0.76685
 Alpha virt. eigenvalues --    0.77765   0.80274   0.81427   0.81712   0.85341
 Alpha virt. eigenvalues --    0.86193   0.88121   0.89761   0.90755   0.91215
 Alpha virt. eigenvalues --    0.92271   0.93671   0.95189   0.96737   1.01942
 Alpha virt. eigenvalues --    1.03469   1.04572   1.06498   1.07586   1.09010
 Alpha virt. eigenvalues --    1.10917   1.12293   1.13854   1.16102   1.16880
 Alpha virt. eigenvalues --    1.20621   1.21763   1.22394   1.23837   1.26065
 Alpha virt. eigenvalues --    1.26688   1.26886   1.29191   1.31475   1.32168
 Alpha virt. eigenvalues --    1.32980   1.35107   1.36918   1.37161   1.40860
 Alpha virt. eigenvalues --    1.41762   1.42543   1.45760   1.47485   1.49185
 Alpha virt. eigenvalues --    1.50044   1.51793   1.55117   1.56437   1.59091
 Alpha virt. eigenvalues --    1.60785   1.61727   1.62538   1.64323   1.64974
 Alpha virt. eigenvalues --    1.66136   1.67870   1.68539   1.71555   1.72830
 Alpha virt. eigenvalues --    1.73453   1.73702   1.76498   1.78107   1.79271
 Alpha virt. eigenvalues --    1.83263   1.83583   1.85282   1.86518   1.87016
 Alpha virt. eigenvalues --    1.88201   1.90506   1.91153   1.94712   1.95205
 Alpha virt. eigenvalues --    1.95764   1.96651   1.99365   2.00257   2.00798
 Alpha virt. eigenvalues --    2.04111   2.04258   2.06324   2.08273   2.09564
 Alpha virt. eigenvalues --    2.12021   2.12420   2.14403   2.14786   2.15955
 Alpha virt. eigenvalues --    2.17908   2.18537   2.19892   2.22369   2.22501
 Alpha virt. eigenvalues --    2.24546   2.25570   2.25889   2.27322   2.28983
 Alpha virt. eigenvalues --    2.30655   2.31798   2.32976   2.34542   2.36998
 Alpha virt. eigenvalues --    2.39952   2.43887   2.44968   2.47745   2.49369
 Alpha virt. eigenvalues --    2.50113   2.51493   2.53764   2.54739   2.56667
 Alpha virt. eigenvalues --    2.60121   2.60477   2.61668   2.61895   2.64130
 Alpha virt. eigenvalues --    2.65515   2.66669   2.67199   2.69131   2.70381
 Alpha virt. eigenvalues --    2.72202   2.73075   2.73922   2.75520   2.76462
 Alpha virt. eigenvalues --    2.77589   2.78681   2.80095   2.81559   2.82975
 Alpha virt. eigenvalues --    2.85836   2.87273   2.88089   2.89494   2.90585
 Alpha virt. eigenvalues --    2.91863   2.92432   2.95533   2.96857   3.00070
 Alpha virt. eigenvalues --    3.00563   3.02333   3.04546   3.06577   3.07018
 Alpha virt. eigenvalues --    3.10027   3.11718   3.13574   3.13885   3.15392
 Alpha virt. eigenvalues --    3.17089   3.18756   3.19470   3.19852   3.21282
 Alpha virt. eigenvalues --    3.22711   3.23318   3.26195   3.27639   3.28093
 Alpha virt. eigenvalues --    3.29811   3.31255   3.32201   3.33122   3.34938
 Alpha virt. eigenvalues --    3.36327   3.39342   3.40029   3.41461   3.42893
 Alpha virt. eigenvalues --    3.43804   3.47727   3.47922   3.49942   3.50721
 Alpha virt. eigenvalues --    3.51523   3.53887   3.54206   3.56011   3.59633
 Alpha virt. eigenvalues --    3.64610   3.66282   3.70592   3.71826   3.75003
 Alpha virt. eigenvalues --    3.76031   3.76227   3.81544   3.82627   3.86697
 Alpha virt. eigenvalues --    3.88751   3.89454   3.91157   3.94796   3.95574
 Alpha virt. eigenvalues --    3.97127   4.02698   4.06979   4.07561   4.09359
 Alpha virt. eigenvalues --    4.11730   4.14294   4.15700   4.17471   4.19658
 Alpha virt. eigenvalues --    4.20098   4.22445   4.25274   4.27456   4.30334
 Alpha virt. eigenvalues --    4.32548   4.35592   4.36658   4.40240   4.43660
 Alpha virt. eigenvalues --    4.48994   4.53978   4.59610   4.62383   4.62956
 Alpha virt. eigenvalues --    4.66929   4.69651   4.73597   4.76358   4.83938
 Alpha virt. eigenvalues --    4.84764   4.86820   4.89360   4.96673   5.02162
 Alpha virt. eigenvalues --    5.08100   5.09376   5.10856   5.13200   5.17657
 Alpha virt. eigenvalues --    5.25970   5.28884   5.35105   5.41262   5.48850
 Alpha virt. eigenvalues --    5.54491   5.75950  10.83169  10.92537  11.41527
 Alpha virt. eigenvalues --   22.07254  22.53619  22.60321  22.70235  22.75592
 Alpha virt. eigenvalues --   22.81897  22.91171  23.31485  26.00225  32.09306
          Condensed to atoms (all electrons):
               1          2          3          4          5          6
     1  Cl  16.891099   0.328527  -0.056423   0.011370  -0.003012   0.018883
     2  C    0.328527   5.341995   0.332385   0.054106  -0.104472   0.041240
     3  C   -0.056423   0.332385   5.104035   0.431528   0.017660  -0.155020
     4  C    0.011370   0.054106   0.431528   4.958630   0.460642   0.031411
     5  C   -0.003012  -0.104472   0.017660   0.460642   4.939864   0.434655
     6  C    0.018883   0.041240  -0.155020   0.031411   0.434655   5.208549
     7  C   -0.103917   0.136252   0.066202  -0.136370   0.037641   0.284194
     8  C    0.010589  -0.100813   0.026492  -0.006278   0.008508  -0.053300
     9  C   -0.006532  -0.022771  -0.000046  -0.000476   0.001978  -0.002140
    10  N   -0.007776   0.043417   0.003281  -0.000467   0.001080  -0.016133
    11  H    0.001553  -0.050193   0.413464  -0.037596   0.006453  -0.003507
    12  H   -0.000345   0.005777  -0.034480   0.409767  -0.034609   0.005603
    13  H    0.000017  -0.001201   0.005604  -0.035776   0.413239  -0.036191
    14  H   -0.000141   0.007528  -0.000426   0.004018  -0.026217   0.405821
    15  H    0.001132   0.015064  -0.000794   0.000157   0.000371  -0.021566
    16  H    0.001663  -0.009929   0.001381  -0.000136  -0.000076   0.004546
    17  H   -0.000249   0.007210   0.000486  -0.000231   0.000618  -0.009426
    18  H    0.000017   0.000736   0.000014  -0.000002  -0.000000  -0.000398
    19  H    0.003522   0.009813   0.000637  -0.000002   0.000014  -0.000811
    20  H    0.000357  -0.001913   0.001416  -0.000327   0.000415  -0.001905
               7          8          9         10         11         12
     1  Cl  -0.103917   0.010589  -0.006532  -0.007776   0.001553  -0.000345
     2  C    0.136252  -0.100813  -0.022771   0.043417  -0.050193   0.005777
     3  C    0.066202   0.026492  -0.000046   0.003281   0.413464  -0.034480
     4  C   -0.136370  -0.006278  -0.000476  -0.000467  -0.037596   0.409767
     5  C    0.037641   0.008508   0.001978   0.001080   0.006453  -0.034609
     6  C    0.284194  -0.053300  -0.002140  -0.016133  -0.003507   0.005603
     7  C    5.624010   0.117270  -0.014401  -0.013164   0.018408  -0.000199
     8  C    0.117270   5.501596   0.269469  -0.072391   0.000237   0.000051
     9  C   -0.014401   0.269469   5.010488   0.255982   0.000003  -0.000009
    10  N   -0.013164  -0.072391   0.255982   6.627226  -0.000026  -0.000003
    11  H    0.018408   0.000237   0.000003  -0.000026   0.496188  -0.003805
    12  H   -0.000199   0.000051  -0.000009  -0.000003  -0.003805   0.507729
    13  H    0.007525  -0.000095   0.000057   0.000002  -0.000180  -0.003686
    14  H   -0.046986   0.006044  -0.002703  -0.000073   0.000050  -0.000279
    15  H   -0.030039   0.399011  -0.055674   0.011802  -0.000004   0.000000
    16  H   -0.071614   0.450403  -0.032441  -0.006930   0.000001  -0.000001
    17  H   -0.012385  -0.051501   0.426804  -0.034222   0.000001  -0.000002
    18  H    0.017063  -0.082238   0.433586  -0.029233  -0.000001   0.000000
    19  H   -0.020787   0.016891  -0.059052   0.379075  -0.000004   0.000000
    20  H    0.014126  -0.014272  -0.044485   0.384202   0.000012  -0.000001
              13         14         15         16         17         18
     1  Cl   0.000017  -0.000141   0.001132   0.001663  -0.000249   0.000017
     2  C   -0.001201   0.007528   0.015064  -0.009929   0.007210   0.000736
     3  C    0.005604  -0.000426  -0.000794   0.001381   0.000486   0.000014
     4  C   -0.035776   0.004018   0.000157  -0.000136  -0.000231  -0.000002
     5  C    0.413239  -0.026217   0.000371  -0.000076   0.000618  -0.000000
     6  C   -0.036191   0.405821  -0.021566   0.004546  -0.009426  -0.000398
     7  C    0.007525  -0.046986  -0.030039  -0.071614  -0.012385   0.017063
     8  C   -0.000095   0.006044   0.399011   0.450403  -0.051501  -0.082238
     9  C    0.000057  -0.002703  -0.055674  -0.032441   0.426804   0.433586
    10  N    0.000002  -0.000073   0.011802  -0.006930  -0.034222  -0.029233
    11  H   -0.000180   0.000050  -0.000004   0.000001   0.000001  -0.000001
    12  H   -0.003686  -0.000279   0.000000  -0.000001  -0.000002   0.000000
    13  H    0.506301  -0.003607  -0.000039   0.000007   0.000009  -0.000001
    14  H   -0.003607   0.500132  -0.000692   0.000166   0.000779  -0.000027
    15  H   -0.000039  -0.000692   0.538339  -0.012170   0.001759   0.000427
    16  H    0.000007   0.000166  -0.012170   0.492143   0.004637  -0.002440
    17  H    0.000009   0.000779   0.001759   0.004637   0.540617  -0.020490
    18  H   -0.000001  -0.000027   0.000427  -0.002440  -0.020490   0.539991
    19  H   -0.000000   0.000003   0.000218   0.000679   0.008296  -0.006354
    20  H    0.000003  -0.000019  -0.000506   0.000206  -0.007512   0.007163
              19         20
     1  Cl   0.003522   0.000357
     2  C    0.009813  -0.001913
     3  C    0.000637   0.001416
     4  C   -0.000002  -0.000327
     5  C    0.000014   0.000415
     6  C   -0.000811  -0.001905
     7  C   -0.020787   0.014126
     8  C    0.016891  -0.014272
     9  C   -0.059052  -0.044485
    10  N    0.379075   0.384202
    11  H   -0.000004   0.000012
    12  H    0.000000  -0.000001
    13  H   -0.000000   0.000003
    14  H    0.000003  -0.000019
    15  H    0.000218  -0.000506
    16  H    0.000679   0.000206
    17  H    0.008296  -0.007512
    18  H   -0.006354   0.007163
    19  H    0.481945  -0.039874
    20  H   -0.039874   0.465372
 Mulliken charges:
               1
     1  Cl  -0.090335
     2  C   -0.032759
     3  C   -0.157395
     4  C   -0.143970
     5  C   -0.154752
     6  C   -0.134505
     7  C    0.127169
     8  C   -0.425674
     9  C   -0.157636
    10  N   -0.525651
    11  H    0.158946
    12  H    0.148492
    13  H    0.148013
    14  H    0.156628
    15  H    0.153205
    16  H    0.179905
    17  H    0.144801
    18  H    0.142186
    19  H    0.225793
    20  H    0.237540
 Sum of Mulliken charges =  -0.00000
 Mulliken charges with hydrogens summed into heavy atoms:
               1
     1  Cl  -0.090335
     2  C   -0.032759
     3  C    0.001551
     4  C    0.004521
     5  C   -0.006739
     6  C    0.022123
     7  C    0.127169
     8  C   -0.092564
     9  C    0.129350
    10  N   -0.062317
 Electronic spatial extent (au):  <R**2>=           1709.0873
 Charge=             -0.0000 electrons
 Dipole moment (field-independent basis, Debye):
    X=             -1.6331    Y=              0.9162    Z=             -0.8456  Tot=              2.0546
 Quadrupole moment (field-independent basis, Debye-Ang):
   XX=            -65.2467   YY=            -64.5242   ZZ=            -71.6290
   XY=             -1.8144   XZ=             -7.2237   YZ=             -3.4836
 Traceless Quadrupole moment (field-independent basis, Debye-Ang):
   XX=              1.8866   YY=              2.6091   ZZ=             -4.4957
   XY=             -1.8144   XZ=             -7.2237   YZ=             -3.4836
 Octapole moment (field-independent basis, Debye-Ang**2):
  XXX=            -18.4421  YYY=              1.1316  ZZZ=             -4.6460  XYY=             -2.2704
  XXY=             -9.7877  XXZ=             -8.4000  XZZ=             -2.8166  YZZ=             -6.5365
  YYZ=             -1.0327  XYZ=             -4.6609
 Hexadecapole moment (field-independent basis, Debye-Ang**3):
 XXXX=          -1231.3527 YYYY=           -779.2833 ZZZZ=           -258.6337 XXXY=            -37.0534
 XXXZ=            -80.7657 YYYX=            -15.7591 YYYZ=             -7.1276 ZZZX=            -18.4799
 ZZZY=             -5.3403 XXYY=           -321.9755 XXZZ=           -293.2720 YYZZ=           -180.0517
 XXYZ=            -18.9560 YYXZ=             -6.6000 ZZXY=             -6.8875
 N-N= 5.887371853557D+02 E-N=-3.120294158294D+03  KE= 8.233554517743D+02
 Unable to Open any file for archive entry.
 1\1\GINC-NOTCH267\SP\RM062X\def2TZVP\C8H10Cl1N1\U6032257\21-Feb-2022\0
 \\# M062X/def2tzvp int=(grid=ultrafine) nmr=giao guess=read geom=check
 \\N3.xyz\\0,1\Cl,0,0.083629703,2.7660487562,0.37251384\C,0,-0.79213733
 29,1.247846623,0.1389348922\C,0,-2.0709369375,1.3296883538,-0.41303017
 05\C,0,-2.8075688612,0.1655812719,-0.6129465711\C,0,-2.26262946,-1.068
 2089206,-0.2560982524\C,0,-0.9870461268,-1.1251815021,0.2965699931\C,0
 ,-0.2146412671,0.0266456364,0.5127464634\C,0,1.183506077,-0.1077339092
 ,1.0606232167\C,0,2.2139909386,-0.4626557334,-0.0418036939\N,0,2.34106
 29781,0.4793881069,-1.1478395516\H,0,-2.476123856,2.2988717243,-0.6797
 475266\H,0,-3.8022639342,0.2265237953,-1.0424759406\H,0,-2.83032138,-1
 .9811221831,-0.4045300437\H,0,-0.563563798,-2.0858051203,0.5770679438\
 H,0,1.1953516261,-0.9006204191,1.8179158131\H,0,1.4886314464,0.8167270
 079,1.558043424\H,0,1.955093329,-1.4416448555,-0.4628317695\H,0,3.1970
 035865,-0.5757100378,0.430175311\H,0,2.5564930939,1.4065919216,-0.7888
 748668\H,0,1.4463701749,0.5697694837,-1.6242125107\\Version=ES64L-G16R
 evC.01\State=1-A\HF=-825.7959727\RMSD=1.673e-09\Dipole=-0.6145889,-0.4
 415801,0.2841181\Quadrupole=0.4616992,2.3615175,-2.8232167,1.161372,5.
 8871075,-1.7135047\PG=C01 [X(C8H10Cl1N1)]\\@
 The archive entry for this job was punched.


 WE MIGHT AS WELL ATTEMPT TO INTRODUCE A NEW PLANET 
 INTO THE SOLAR SYSTEM, OR TO ANNIHILATE ONE ALREADYIN EXISTENCE, 
 AS TO CREATE OR DESTROY A PARTICLE OF HYDROGEN.
 ALL THE CHANGES WE CAN PRODUCE CONSIST IN SEPARATING PARTICLES
 THAT ARE IN A STATE OF ... COMBINATION, AND JOINING 
 THOSE THAT WERE PREVIOUSLY AT A DISTANCE.

                                    -- JOHN DALTON, 1810
 Job cpu time:       0 days  0 hours 25 minutes 29.9 seconds.
 Elapsed time:       0 days  0 hours  0 minutes 33.7 seconds.
 File lengths (MBytes):  RWF=     83 Int=      0 D2E=      0 Chk=     14 Scr=      1
 Normal termination of Gaussian 16 at Mon Feb 21 19:29:48 2022.
