 Entering Gaussian System, Link 0=/uufs/chpc.utah.edu/sys/installdir/gaussian16/C01/AVX2/g16/g16
 Input=N4_conf-3.com
 Output=N4_conf-3.log
 Initial command:
 /uufs/chpc.utah.edu/sys/installdir/gaussian16/C01/AVX2/g16/l1.exe "/scratch/local/u6032257/4038754/notchpeak.peaks/Gau-8864.inp" -scrdir="/scratch/local/u6032257/4038754/notchpeak.peaks/"
 Entering Link 1 = /uufs/chpc.utah.edu/sys/installdir/gaussian16/C01/AVX2/g16/l1.exe PID=      8867.
  
 Copyright (c) 1988-2019, Gaussian, Inc.  All Rights Reserved.
  
 This is part of the Gaussian(R) 16 program.  It is based on
 the Gaussian(R) 09 system (copyright 2009, Gaussian, Inc.),
 the Gaussian(R) 03 system (copyright 2003, Gaussian, Inc.),
 the Gaussian(R) 98 system (copyright 1998, Gaussian, Inc.),
 the Gaussian(R) 94 system (copyright 1995, Gaussian, Inc.),
 the Gaussian 92(TM) system (copyright 1992, Gaussian, Inc.),
 the Gaussian 90(TM) system (copyright 1990, Gaussian, Inc.),
 the Gaussian 88(TM) system (copyright 1988, Gaussian, Inc.),
 the Gaussian 86(TM) system (copyright 1986, Carnegie Mellon
 University), and the Gaussian 82(TM) system (copyright 1983,
 Carnegie Mellon University). Gaussian is a federally registered
 trademark of Gaussian, Inc.
  
 This software contains proprietary and confidential information,
 including trade secrets, belonging to Gaussian, Inc.
  
 This software is provided under written license and may be
 used, copied, transmitted, or stored only in accord with that
 written license.
  
 The following legend is applicable only to US Government
 contracts under FAR:
  
                    RESTRICTED RIGHTS LEGEND
  
 Use, reproduction and disclosure by the US Government is
 subject to restrictions as set forth in subparagraphs (a)
 and (c) of the Commercial Computer Software - Restricted
 Rights clause in FAR 52.227-19.
  
 Gaussian, Inc.
 340 Quinnipiac St., Bldg. 40, Wallingford CT 06492
  
  
 ---------------------------------------------------------------
 Warning -- This program may not be used in any manner that
 competes with the business of Gaussian, Inc. or will provide
 assistance to any competitor of Gaussian, Inc.  The licensee
 of this program is prohibited from giving any competitor of
 Gaussian, Inc. access to this program.  By using this program,
 the user acknowledges that Gaussian, Inc. is engaged in the
 business of creating and licensing software in the field of
 computational chemistry and represents and warrants to the
 licensee that it is not a competitor of Gaussian, Inc. and that
 it will not use this program in any manner prohibited above.
 ---------------------------------------------------------------
  

 Cite this work as:
 Gaussian 16, Revision C.01,
 M. J. Frisch, G. W. Trucks, H. B. Schlegel, G. E. Scuseria, 
 M. A. Robb, J. R. Cheeseman, G. Scalmani, V. Barone, 
 G. A. Petersson, H. Nakatsuji, X. Li, M. Caricato, A. V. Marenich, 
 J. Bloino, B. G. Janesko, R. Gomperts, B. Mennucci, H. P. Hratchian, 
 J. V. Ortiz, A. F. Izmaylov, J. L. Sonnenberg, D. Williams-Young, 
 F. Ding, F. Lipparini, F. Egidi, J. Goings, B. Peng, A. Petrone, 
 T. Henderson, D. Ranasinghe, V. G. Zakrzewski, J. Gao, N. Rega, 
 G. Zheng, W. Liang, M. Hada, M. Ehara, K. Toyota, R. Fukuda, 
 J. Hasegawa, M. Ishida, T. Nakajima, Y. Honda, O. Kitao, H. Nakai, 
 T. Vreven, K. Throssell, J. A. Montgomery, Jr., J. E. Peralta, 
 F. Ogliaro, M. J. Bearpark, J. J. Heyd, E. N. Brothers, K. N. Kudin, 
 V. N. Staroverov, T. A. Keith, R. Kobayashi, J. Normand, 
 K. Raghavachari, A. P. Rendell, J. C. Burant, S. S. Iyengar, 
 J. Tomasi, M. Cossi, J. M. Millam, M. Klene, C. Adamo, R. Cammi, 
 J. W. Ochterski, R. L. Martin, K. Morokuma, O. Farkas, 
 J. B. Foresman, and D. J. Fox, Gaussian, Inc., Wallingford CT, 2019.
 
 ******************************************
 Gaussian 16:  ES64L-G16RevC.01  3-Jul-2019
                21-Feb-2022 
 ******************************************
 %NProcShared=64
 Will use up to   64 processors via shared memory.
 %mem=16GB
 %chk=N4_conf-3.chk
 ----------------------------------------------------------------------
 # B3LYP/6-31G(d,p) empiricaldispersion=GD3BJ int=(grid=ultrafine) opt 
 freq=noraman
 ----------------------------------------------------------------------
 1/18=20,19=15,26=4,38=1/1,3;
 2/9=110,12=2,17=6,18=5,40=1/2;
 3/5=1,6=6,7=101,11=2,25=1,30=1,71=1,74=-5,75=-5,124=41/1,2,3;
 4//1;
 5/5=2,38=5/2;
 6/7=2,8=2,9=2,10=2,28=1/1;
 7//1,2,3,16;
 1/18=20,19=15,26=4/3(2);
 2/9=110/2;
 99//99;
 2/9=110/2;
 3/5=1,6=6,7=101,11=2,25=1,30=1,71=1,74=-5,75=-5,124=41/1,2,3;
 4/5=5,16=3,69=1/1;
 5/5=2,38=5/2;
 7//1,2,3,16;
 1/18=20,19=15,26=4/3(-5);
 2/9=110/2;
 6/7=2,8=2,9=2,10=2,19=2,28=1/1;
 99/9=1/99;
 ------
 N4.xyz
 ------
 Symbolic Z-matrix:
 Charge =  0 Multiplicity = 1
 N                     4.6098    0.3755    0.5456 
 C                     3.9443   -0.248    -0.583 
 C                     2.4399   -0.185    -0.3946 
 C                     1.776    -1.2134    0.2748 
 C                     0.3962   -1.1495    0.4526 
 C                    -0.34     -0.0602   -0.0309 
 C                    -1.8191    0.0057    0.162 
 C                    -2.4489    1.2239    0.4514 
 C                    -3.8283    1.2879    0.6326 
 C                    -4.5919    0.1291    0.5237 
 C                    -3.9859   -1.0907    0.236 
 C                    -2.6059   -1.1494    0.0572 
 C                     0.3404    0.9657   -0.6993 
 C                     1.7198    0.9064   -0.8814 
 H                     4.339    -0.0926    1.3992 
 H                     4.3037    1.3346    0.6316 
 H                     4.2627   -1.2875   -0.688 
 H                     4.224     0.2496   -1.5142 
 H                     2.3269   -2.0598    0.6586 
 H                    -0.1006   -1.9481    0.9835 
 H                    -1.8654    2.1273    0.5513 
 H                    -4.3025    2.2319    0.8593 
 H                    -5.6624    0.1767    0.6632 
 H                    -4.5828   -1.987     0.1485 
 H                    -2.1487   -2.099    -0.1793 
 H                    -0.204     1.8102   -1.0955 
 H                     2.2261    1.7055   -1.4032 
 

 GradGradGradGradGradGradGradGradGradGradGradGradGradGradGradGradGradGrad
 Berny optimization.
 Initialization pass.
                           ----------------------------
                           !    Initial Parameters    !
                           ! (Angstroms and Degrees)  !
 --------------------------                            --------------------------
 ! Name  Definition              Value          Derivative Info.                !
 --------------------------------------------------------------------------------
 ! R1    R(1,2)                  1.451          estimate D2E/DX2                !
 ! R2    R(1,15)                 1.0105         estimate D2E/DX2                !
 ! R3    R(1,16)                 1.0104         estimate D2E/DX2                !
 ! R4    R(2,3)                  1.5175         estimate D2E/DX2                !
 ! R5    R(2,17)                 1.0922         estimate D2E/DX2                !
 ! R6    R(2,18)                 1.0922         estimate D2E/DX2                !
 ! R7    R(3,4)                  1.3952         estimate D2E/DX2                !
 ! R8    R(3,14)                 1.3952         estimate D2E/DX2                !
 ! R9    R(4,5)                  1.3927         estimate D2E/DX2                !
 ! R10   R(4,19)                 1.0804         estimate D2E/DX2                !
 ! R11   R(5,6)                  1.4008         estimate D2E/DX2                !
 ! R12   R(5,20)                 1.08           estimate D2E/DX2                !
 ! R13   R(6,7)                  1.4931         estimate D2E/DX2                !
 ! R14   R(6,13)                 1.4008         estimate D2E/DX2                !
 ! R15   R(7,8)                  1.4016         estimate D2E/DX2                !
 ! R16   R(7,12)                 1.4015         estimate D2E/DX2                !
 ! R17   R(8,9)                  1.3927         estimate D2E/DX2                !
 ! R18   R(8,21)                 1.0801         estimate D2E/DX2                !
 ! R19   R(9,10)                 1.392          estimate D2E/DX2                !
 ! R20   R(9,22)                 1.0805         estimate D2E/DX2                !
 ! R21   R(10,11)                1.3921         estimate D2E/DX2                !
 ! R22   R(10,23)                1.0806         estimate D2E/DX2                !
 ! R23   R(11,12)                1.3928         estimate D2E/DX2                !
 ! R24   R(11,24)                1.0804         estimate D2E/DX2                !
 ! R25   R(12,25)                1.0801         estimate D2E/DX2                !
 ! R26   R(13,14)                1.3926         estimate D2E/DX2                !
 ! R27   R(13,26)                1.0801         estimate D2E/DX2                !
 ! R28   R(14,27)                1.0804         estimate D2E/DX2                !
 ! A1    A(2,1,15)             109.5773         estimate D2E/DX2                !
 ! A2    A(2,1,16)             109.5807         estimate D2E/DX2                !
 ! A3    A(15,1,16)            106.6561         estimate D2E/DX2                !
 ! A4    A(1,2,3)              109.8949         estimate D2E/DX2                !
 ! A5    A(1,2,17)             110.4893         estimate D2E/DX2                !
 ! A6    A(1,2,18)             110.4823         estimate D2E/DX2                !
 ! A7    A(3,2,17)             109.9045         estimate D2E/DX2                !
 ! A8    A(3,2,18)             109.9264         estimate D2E/DX2                !
 ! A9    A(17,2,18)            106.0798         estimate D2E/DX2                !
 ! A10   A(2,3,4)              120.0484         estimate D2E/DX2                !
 ! A11   A(2,3,14)             120.055          estimate D2E/DX2                !
 ! A12   A(4,3,14)             119.8947         estimate D2E/DX2                !
 ! A13   A(3,4,5)              119.9269         estimate D2E/DX2                !
 ! A14   A(3,4,19)             120.3505         estimate D2E/DX2                !
 ! A15   A(5,4,19)             119.7224         estimate D2E/DX2                !
 ! A16   A(4,5,6)              120.8171         estimate D2E/DX2                !
 ! A17   A(4,5,20)             118.9844         estimate D2E/DX2                !
 ! A18   A(6,5,20)             120.1927         estimate D2E/DX2                !
 ! A19   A(5,6,7)              120.6873         estimate D2E/DX2                !
 ! A20   A(5,6,13)             118.6152         estimate D2E/DX2                !
 ! A21   A(7,6,13)             120.6975         estimate D2E/DX2                !
 ! A22   A(6,7,8)              120.676          estimate D2E/DX2                !
 ! A23   A(6,7,12)             120.67           estimate D2E/DX2                !
 ! A24   A(8,7,12)             118.654          estimate D2E/DX2                !
 ! A25   A(7,8,9)              120.7877         estimate D2E/DX2                !
 ! A26   A(7,8,21)             120.2203         estimate D2E/DX2                !
 ! A27   A(9,8,21)             118.9861         estimate D2E/DX2                !
 ! A28   A(8,9,10)             119.6612         estimate D2E/DX2                !
 ! A29   A(8,9,22)             120.1415         estimate D2E/DX2                !
 ! A30   A(10,9,22)            120.1971         estimate D2E/DX2                !
 ! A31   A(9,10,11)            120.4508         estimate D2E/DX2                !
 ! A32   A(9,10,23)            119.7789         estimate D2E/DX2                !
 ! A33   A(11,10,23)           119.7704         estimate D2E/DX2                !
 ! A34   A(10,11,12)           119.6556         estimate D2E/DX2                !
 ! A35   A(10,11,24)           120.2087         estimate D2E/DX2                !
 ! A36   A(12,11,24)           120.1354         estimate D2E/DX2                !
 ! A37   A(7,12,11)            120.7906         estimate D2E/DX2                !
 ! A38   A(7,12,25)            120.2195         estimate D2E/DX2                !
 ! A39   A(11,12,25)           118.9835         estimate D2E/DX2                !
 ! A40   A(6,13,14)            120.8188         estimate D2E/DX2                !
 ! A41   A(6,13,26)            120.1892         estimate D2E/DX2                !
 ! A42   A(14,13,26)           118.9853         estimate D2E/DX2                !
 ! A43   A(3,14,13)            119.9271         estimate D2E/DX2                !
 ! A44   A(3,14,27)            120.3468         estimate D2E/DX2                !
 ! A45   A(13,14,27)           119.7257         estimate D2E/DX2                !
 ! D1    D(15,1,2,3)            58.3145         estimate D2E/DX2                !
 ! D2    D(15,1,2,17)          -63.1347         estimate D2E/DX2                !
 ! D3    D(15,1,2,18)          179.7866         estimate D2E/DX2                !
 ! D4    D(16,1,2,3)           -58.3899         estimate D2E/DX2                !
 ! D5    D(16,1,2,17)         -179.8391         estimate D2E/DX2                !
 ! D6    D(16,1,2,18)           63.0822         estimate D2E/DX2                !
 ! D7    D(1,2,3,4)            -89.3951         estimate D2E/DX2                !
 ! D8    D(1,2,3,14)            90.1081         estimate D2E/DX2                !
 ! D9    D(17,2,3,4)            32.4035         estimate D2E/DX2                !
 ! D10   D(17,2,3,14)         -148.0933         estimate D2E/DX2                !
 ! D11   D(18,2,3,4)           148.8008         estimate D2E/DX2                !
 ! D12   D(18,2,3,14)          -31.696          estimate D2E/DX2                !
 ! D13   D(2,3,4,5)            179.6543         estimate D2E/DX2                !
 ! D14   D(2,3,4,19)            -0.2243         estimate D2E/DX2                !
 ! D15   D(14,3,4,5)             0.1503         estimate D2E/DX2                !
 ! D16   D(14,3,4,19)         -179.7283         estimate D2E/DX2                !
 ! D17   D(2,3,14,13)         -179.5786         estimate D2E/DX2                !
 ! D18   D(2,3,14,27)            0.6645         estimate D2E/DX2                !
 ! D19   D(4,3,14,13)           -0.0747         estimate D2E/DX2                !
 ! D20   D(4,3,14,27)         -179.8316         estimate D2E/DX2                !
 ! D21   D(3,4,5,6)             -0.1369         estimate D2E/DX2                !
 ! D22   D(3,4,5,20)          -179.2645         estimate D2E/DX2                !
 ! D23   D(19,4,5,6)           179.7424         estimate D2E/DX2                !
 ! D24   D(19,4,5,20)            0.6148         estimate D2E/DX2                !
 ! D25   D(4,5,6,7)           -179.9659         estimate D2E/DX2                !
 ! D26   D(4,5,6,13)             0.0466         estimate D2E/DX2                !
 ! D27   D(20,5,6,7)            -0.8488         estimate D2E/DX2                !
 ! D28   D(20,5,6,13)          179.1636         estimate D2E/DX2                !
 ! D29   D(5,6,7,8)            141.6927         estimate D2E/DX2                !
 ! D30   D(5,6,7,12)           -38.3141         estimate D2E/DX2                !
 ! D31   D(13,6,7,8)           -38.32           estimate D2E/DX2                !
 ! D32   D(13,6,7,12)          141.6732         estimate D2E/DX2                !
 ! D33   D(5,6,13,14)            0.0299         estimate D2E/DX2                !
 ! D34   D(5,6,13,26)          179.0792         estimate D2E/DX2                !
 ! D35   D(7,6,13,14)         -179.9576         estimate D2E/DX2                !
 ! D36   D(7,6,13,26)           -0.9084         estimate D2E/DX2                !
 ! D37   D(6,7,8,9)           -179.9597         estimate D2E/DX2                !
 ! D38   D(6,7,8,21)            -0.8493         estimate D2E/DX2                !
 ! D39   D(12,7,8,9)             0.0469         estimate D2E/DX2                !
 ! D40   D(12,7,8,21)          179.1574         estimate D2E/DX2                !
 ! D41   D(6,7,12,11)         -179.9677         estimate D2E/DX2                !
 ! D42   D(6,7,12,25)           -0.8966         estimate D2E/DX2                !
 ! D43   D(8,7,12,11)            0.0257         estimate D2E/DX2                !
 ! D44   D(8,7,12,25)          179.0967         estimate D2E/DX2                !
 ! D45   D(7,8,9,10)            -0.0754         estimate D2E/DX2                !
 ! D46   D(7,8,9,22)           179.7513         estimate D2E/DX2                !
 ! D47   D(21,8,9,10)         -179.1966         estimate D2E/DX2                !
 ! D48   D(21,8,9,22)            0.63           estimate D2E/DX2                !
 ! D49   D(8,9,10,11)            0.0311         estimate D2E/DX2                !
 ! D50   D(8,9,10,23)         -179.9546         estimate D2E/DX2                !
 ! D51   D(22,9,10,11)        -179.7954         estimate D2E/DX2                !
 ! D52   D(22,9,10,23)           0.2188         estimate D2E/DX2                !
 ! D53   D(9,10,11,12)           0.0405         estimate D2E/DX2                !
 ! D54   D(9,10,11,24)        -179.7576         estimate D2E/DX2                !
 ! D55   D(23,10,11,12)       -179.9738         estimate D2E/DX2                !
 ! D56   D(23,10,11,24)          0.2281         estimate D2E/DX2                !
 ! D57   D(10,11,12,7)          -0.0691         estimate D2E/DX2                !
 ! D58   D(10,11,12,25)       -179.1515         estimate D2E/DX2                !
 ! D59   D(24,11,12,7)         179.7291         estimate D2E/DX2                !
 ! D60   D(24,11,12,25)          0.6467         estimate D2E/DX2                !
 ! D61   D(6,13,14,3)           -0.0158         estimate D2E/DX2                !
 ! D62   D(6,13,14,27)         179.7426         estimate D2E/DX2                !
 ! D63   D(26,13,14,3)        -179.0763         estimate D2E/DX2                !
 ! D64   D(26,13,14,27)          0.6822         estimate D2E/DX2                !
 --------------------------------------------------------------------------------
 Trust Radius=3.00D-01 FncErr=1.00D-07 GrdErr=1.00D-06 EigMax=2.50D+02 EigMin=1.00D-04
 Number of steps in this run=    147 maximum allowed number of steps=    162.
 GradGradGradGradGradGradGradGradGradGradGradGradGradGradGradGradGradGrad

                          Input orientation:                          
 ---------------------------------------------------------------------
 Center     Atomic      Atomic             Coordinates (Angstroms)
 Number     Number       Type             X           Y           Z
 ---------------------------------------------------------------------
      1          7           0        4.609800    0.375500    0.545600
      2          6           0        3.944300   -0.248000   -0.583000
      3          6           0        2.439900   -0.185000   -0.394600
      4          6           0        1.776000   -1.213400    0.274800
      5          6           0        0.396200   -1.149500    0.452600
      6          6           0       -0.340000   -0.060200   -0.030900
      7          6           0       -1.819100    0.005700    0.162000
      8          6           0       -2.448900    1.223900    0.451400
      9          6           0       -3.828300    1.287900    0.632600
     10          6           0       -4.591900    0.129100    0.523700
     11          6           0       -3.985900   -1.090700    0.236000
     12          6           0       -2.605900   -1.149400    0.057200
     13          6           0        0.340400    0.965700   -0.699300
     14          6           0        1.719800    0.906400   -0.881400
     15          1           0        4.339000   -0.092600    1.399200
     16          1           0        4.303700    1.334600    0.631600
     17          1           0        4.262700   -1.287500   -0.688000
     18          1           0        4.224000    0.249600   -1.514200
     19          1           0        2.326900   -2.059800    0.658600
     20          1           0       -0.100600   -1.948100    0.983500
     21          1           0       -1.865400    2.127300    0.551300
     22          1           0       -4.302500    2.231900    0.859300
     23          1           0       -5.662400    0.176700    0.663200
     24          1           0       -4.582800   -1.987000    0.148500
     25          1           0       -2.148700   -2.099000   -0.179300
     26          1           0       -0.204000    1.810200   -1.095500
     27          1           0        2.226100    1.705500   -1.403200
 ---------------------------------------------------------------------
                    Distance matrix (angstroms):
                    1          2          3          4          5
     1  N    0.000000
     2  C    1.450993   0.000000
     3  C    2.430350   1.517459   0.000000
     4  C    3.260116   2.523756   1.395158   0.000000
     5  C    4.482042   3.804495   2.413445   1.392675   0.000000
     6  C    5.002270   4.323807   2.806367   2.429152   1.400834
     7  C    6.450942   5.816886   4.299448   3.797851   2.515251
     8  C    7.110127   6.641497   5.157624   4.880717   3.705081
     9  C    8.487731   8.015609   6.520346   6.147577   4.880545
    10  C    9.205024   8.615898   7.098461   6.512634   5.149856
    11  C    8.725345   8.016793   6.519881   5.763337   4.387844
    12  C    7.391223   6.642853   5.156965   4.387766   3.028027
    13  C    4.486189   3.804562   2.413473   2.785372   2.409161
    14  C    3.266540   2.523902   1.395232   2.415266   2.785354
    15  H    1.010487   2.027080   2.613970   3.014869   4.190318
    16  H    1.010429   2.027078   2.614579   3.606782   4.633719
    17  H    2.099480   1.092229   2.150393   2.667612   4.033588
    18  H    2.099397   1.092232   2.150673   3.366540   4.525244
    19  H    3.339923   2.727668   2.153340   1.080364   2.144454
    20  H    5.270554   4.658914   3.385531   2.136274   1.080013
    21  H    6.707984   6.378189   4.977657   4.949396   3.982712
    22  H    9.108991   8.731543   7.271425   7.011412   5.803193
    23  H   10.274797   9.696498   8.179061   7.577138   6.205626
    24  H    9.499631   8.733307   7.270521   6.406930   5.058095
    25  H    7.233668   6.380738   4.976445   4.048921   2.788793
    26  H    5.284339   4.659103   3.385601   3.865266   3.393623
    27  H    3.353915   2.727838   2.153364   3.396800   3.865689
                    6          7          8          9         10
     6  C    0.000000
     7  C    1.493081   0.000000
     8  C    2.515747   1.401575   0.000000
     9  C    3.798137   2.429483   1.392722   0.000000
    10  C    4.292094   2.799013   2.407543   1.392035   0.000000
    11  C    3.798125   2.429525   2.786779   2.416582   1.392092
    12  C    2.515635   1.401532   2.410933   2.786715   2.407567
    13  C    1.400776   2.515329   3.028361   4.388147   5.150069
    14  C    2.429083   3.797862   4.388077   5.763606   6.512761
    15  H    4.892778   6.281920   6.979046   8.318548   8.976448
    16  H    4.893702   6.282928   6.755911   8.132134   8.977559
    17  H    4.808627   6.275600   7.256097   8.593076   9.048697
    18  H    4.808976   6.276001   7.024275   8.397997   9.049179
    19  H    3.403846   4.658564   5.799473   7.006730   7.258049
    20  H    2.156499   2.728633   3.982365   4.948795   4.969703
    21  H    2.729644   2.157518   1.080085   2.136394   3.380439
    22  H    4.663431   3.407267   2.149018   1.080460   2.148988
    23  H    5.372694   3.879613   3.386454   2.144674   1.080600
    24  H    4.663271   3.407209   3.867190   3.395378   2.149125
    25  H    2.729491   2.157518   3.395522   3.866695   3.380513
    26  H    2.156447   2.728750   2.788588   4.049034   4.970068
    27  H    3.403788   4.658628   5.052436   6.401143   7.258313
                   11         12         13         14         15
    11  C    0.000000
    12  C    1.392772   0.000000
    13  C    4.880619   3.704946   0.000000
    14  C    6.147520   4.880468   1.392631   0.000000
    15  H    8.464821   7.151883   4.638157   3.613772   0.000000
    16  H    8.646158   7.364969   4.197038   3.024742   1.620912
    17  H    8.302524   6.910287   4.523436   3.364066   2.406244
    18  H    8.500710   7.146610   4.032271   2.665115   2.935681
    19  H    6.400718   5.052032   3.865711   3.396839   2.909796
    20  H    4.048388   2.787917   3.393601   3.865214   4.829672
    21  H    3.866712   3.395473   2.789062   4.049307   6.643905
    22  H    3.395351   3.867170   5.058559   6.407424   8.964949
    23  H    2.144634   3.386439   6.205847   7.577277  10.032060
    24  H    1.080416   2.148963   5.803025   7.011079   9.206059
    25  H    2.136457   1.080141   3.982261   4.948804   6.971912
    26  H    4.948826   3.982094   1.080058   2.136282   5.521143
    27  H    7.006758   5.799263   2.144445   1.080359   3.943470
                   16         17         18         19         20
    16  H    0.000000
    17  H    2.935717   0.000000
    18  H    2.405833   1.745503   0.000000
    19  H    3.928157   2.481351   3.695048   0.000000
    20  H    5.504345   4.718971   5.456240   2.451692   0.000000
    21  H    6.220339   7.123927   6.698719   5.926103   4.462085
    22  H    8.655846   9.388448   9.069962   7.899868   5.928220
    23  H   10.033189  10.123104  10.123601   8.296437   5.962465
    24  H    9.499279   8.912458   9.237244   6.928886   4.559480
    25  H    7.353954   6.482543   6.921646   4.553527   2.359998
    26  H    4.850611   5.450983   4.713594   4.945627   4.296249
    27  H    2.931621   3.690163   2.474585   4.294027   4.945570
                   21         22         23         24         25
    21  H    0.000000
    22  H    2.458711   0.000000
    23  H    4.270196   2.472171   0.000000
    24  H    4.947118   4.287531   2.472256   0.000000
    25  H    4.298331   4.947145   4.270211   2.458626   0.000000
    26  H    2.360668   4.560348   5.962841   5.927913   4.461292
    27  H    4.553939   6.929547   8.296727   7.899585   5.925456
                   26         27
    26  H    0.000000
    27  H    2.451740   0.000000
 Stoichiometry    C13H13N
 Framework group  C1[X(C13H13N)]
 Deg. of freedom    75
 Full point group                 C1      NOp   1
 Largest Abelian subgroup         C1      NOp   1
 Largest concise Abelian subgroup C1      NOp   1
                         Standard orientation:                         
 ---------------------------------------------------------------------
 Center     Atomic      Atomic             Coordinates (Angstroms)
 Number     Number       Type             X           Y           Z
 ---------------------------------------------------------------------
      1          7           0       -4.751253   -0.337858    0.872299
      2          6           0       -4.175581    0.155583   -0.364834
      3          6           0       -2.660924    0.118316   -0.280537
      4          6           0       -1.961757    1.217665    0.218525
      5          6           0       -0.572122    1.177972    0.301489
      6          6           0        0.139143    0.042881   -0.108399
      7          6           0        1.628924    0.003175   -0.017474
      8          6           0        2.291138   -1.172739    0.360825
      9          6           0        3.680620   -1.212148    0.447198
     10          6           0        4.421750   -0.071114    0.153041
     11          6           0        3.783378    1.106646   -0.225486
     12          6           0        2.393528    1.141059   -0.308840
     13          6           0       -0.576434   -1.053915   -0.605551
     14          6           0       -1.965930   -1.019278   -0.692286
     15          1           0       -4.424785    0.224616    1.645685
     16          1           0       -4.429345   -1.280233    1.043385
     17          1           0       -4.511999    1.175657   -0.562918
     18          1           0       -4.516194   -0.445012   -1.211144
     19          1           0       -2.492755    2.100620    0.543515
     20          1           0       -0.047088    2.032873    0.701378
     21          1           0        1.726204   -2.060559    0.604156
     22          1           0        4.180150   -2.123140    0.743773
     23          1           0        5.499971   -0.099769    0.218727
     24          1           0        4.362647    1.988851   -0.456704
     25          1           0        1.910186    2.056550   -0.616994
     26          1           0       -0.052834   -1.936403   -0.942570
     27          1           0       -2.499778   -1.873670   -1.082410
 ---------------------------------------------------------------------
 Rotational constants (GHZ):           2.4730552           0.3059733           0.2849392
 Standard basis: 6-31G(d,p) (6D, 7F)
 There are   275 symmetry adapted cartesian basis functions of A   symmetry.
 There are   275 symmetry adapted basis functions of A   symmetry.
   275 basis functions,   483 primitive gaussians,   275 cartesian basis functions
    49 alpha electrons       49 beta electrons
       nuclear repulsion energy       783.3691879116 Hartrees.
 NAtoms=   27 NActive=   27 NUniq=   27 SFac= 1.00D+00 NAtFMM=   60 NAOKFM=F Big=F
 Integral buffers will be    131072 words long.
 Raffenetti 2 integral format.
 Two-electron integral symmetry is turned on.
 Nuclear repulsion after empirical dispersion term =      783.3142242701 Hartrees.
 One-electron integrals computed using PRISM.
 NBasis=   275 RedAO= T EigKep=  4.14D-04  NBF=   275
 NBsUse=   275 1.00D-06 EigRej= -1.00D+00 NBFU=   275
 ExpMin= 1.61D-01 ExpMax= 4.17D+03 ExpMxC= 6.27D+02 IAcc=3 IRadAn=         5 AccDes= 0.00D+00
 Harris functional with IExCor=  402 and IRadAn=       5 diagonalized for initial guess.
 HarFok:  IExCor=  402 AccDes= 0.00D+00 IRadAn=         5 IDoV= 1 UseB2=F ITyADJ=14
 ICtDFT=  3500011 ScaDFX=  1.000000  1.000000  1.000000  1.000000
 FoFCou: FMM=F IPFlag=           0 FMFlag=      100000 FMFlg1=           0
         NFxFlg=           0 DoJE=T BraDBF=F KetDBF=T FulRan=T
         wScrn=  0.000000 ICntrl=       500 IOpCl=  0 I1Cent=   200000004 NGrid=           0
         NMat0=    1 NMatS0=      1 NMatT0=    0 NMatD0=    1 NMtDS0=    0 NMtDT0=    0
 Petite list used in FoFCou.
 Requested convergence on RMS density matrix=1.00D-08 within 128 cycles.
 Requested convergence on MAX density matrix=1.00D-06.
 Requested convergence on             energy=1.00D-06.
 No special actions if energy rises.
 Integral accuracy reduced to 1.0D-05 until final iterations.
 Initial convergence to 1.0D-05 achieved.  Increase integral accuracy.
 SCF Done:  E(RB3LYP) =  -558.038943580     A.U. after   13 cycles
            NFock= 13  Conv=0.64D-08     -V/T= 2.0095

 **********************************************************************

            Population analysis using the SCF Density.

 **********************************************************************

 Orbital symmetries:
       Occupied  (A) (A) (A) (A) (A) (A) (A) (A) (A) (A) (A) (A)
                 (A) (A) (A) (A) (A) (A) (A) (A) (A) (A) (A) (A)
                 (A) (A) (A) (A) (A) (A) (A) (A) (A) (A) (A) (A)
                 (A) (A) (A) (A) (A) (A) (A) (A) (A) (A) (A) (A)
                 (A)
       Virtual   (A) (A) (A) (A) (A) (A) (A) (A) (A) (A) (A) (A)
                 (A) (A) (A) (A) (A) (A) (A) (A) (A) (A) (A) (A)
                 (A) (A) (A) (A) (A) (A) (A) (A) (A) (A) (A) (A)
                 (A) (A) (A) (A) (A) (A) (A) (A) (A) (A) (A) (A)
                 (A) (A) (A) (A) (A) (A) (A) (A) (A) (A) (A) (A)
                 (A) (A) (A) (A) (A) (A) (A) (A) (A) (A) (A) (A)
                 (A) (A) (A) (A) (A) (A) (A) (A) (A) (A) (A) (A)
                 (A) (A) (A) (A) (A) (A) (A) (A) (A) (A) (A) (A)
                 (A) (A) (A) (A) (A) (A) (A) (A) (A) (A) (A) (A)
                 (A) (A) (A) (A) (A) (A) (A) (A) (A) (A) (A) (A)
                 (A) (A) (A) (A) (A) (A) (A) (A) (A) (A) (A) (A)
                 (A) (A) (A) (A) (A) (A) (A) (A) (A) (A) (A) (A)
                 (A) (A) (A) (A) (A) (A) (A) (A) (A) (A) (A) (A)
                 (A) (A) (A) (A) (A) (A) (A) (A) (A) (A) (A) (A)
                 (A) (A) (A) (A) (A) (A) (A) (A) (A) (A) (A) (A)
                 (A) (A) (A) (A) (A) (A) (A) (A) (A) (A) (A) (A)
                 (A) (A) (A) (A) (A) (A) (A) (A) (A) (A) (A) (A)
                 (A) (A) (A) (A) (A) (A) (A) (A) (A) (A) (A) (A)
                 (A) (A) (A) (A) (A) (A) (A) (A) (A) (A)
 The electronic state is 1-A.
 Alpha  occ. eigenvalues --  -14.30954 -10.20796 -10.19762 -10.19653 -10.18958
 Alpha  occ. eigenvalues --  -10.18860 -10.18854 -10.18824 -10.18815 -10.18722
 Alpha  occ. eigenvalues --  -10.18715 -10.18710 -10.18701 -10.18643  -0.89079
 Alpha  occ. eigenvalues --   -0.86359  -0.84211  -0.77556  -0.74900  -0.74141
 Alpha  occ. eigenvalues --   -0.72546  -0.66069  -0.61907  -0.60523  -0.59255
 Alpha  occ. eigenvalues --   -0.57142  -0.52699  -0.49682  -0.48726  -0.46723
 Alpha  occ. eigenvalues --   -0.45721  -0.44223  -0.43398  -0.42930  -0.42434
 Alpha  occ. eigenvalues --   -0.41613  -0.41319  -0.37495  -0.36694  -0.36434
 Alpha  occ. eigenvalues --   -0.35261  -0.34685  -0.33422  -0.33341  -0.27373
 Alpha  occ. eigenvalues --   -0.25181  -0.24985  -0.23743  -0.21269
 Alpha virt. eigenvalues --   -0.02376  -0.00520   0.00005   0.03049   0.09005
 Alpha virt. eigenvalues --    0.09908   0.11171   0.12031   0.13269   0.14030
 Alpha virt. eigenvalues --    0.14825   0.16064   0.16593   0.17640   0.18256
 Alpha virt. eigenvalues --    0.18415   0.19024   0.19796   0.22408   0.23765
 Alpha virt. eigenvalues --    0.26158   0.26666   0.30106   0.30135   0.30830
 Alpha virt. eigenvalues --    0.32233   0.34091   0.34911   0.36805   0.38525
 Alpha virt. eigenvalues --    0.45619   0.50208   0.50382   0.52655   0.53504
 Alpha virt. eigenvalues --    0.54231   0.54494   0.55204   0.55857   0.56161
 Alpha virt. eigenvalues --    0.57161   0.58102   0.59004   0.59467   0.59581
 Alpha virt. eigenvalues --    0.60426   0.60714   0.61161   0.61653   0.61712
 Alpha virt. eigenvalues --    0.63908   0.64445   0.65607   0.66065   0.67677
 Alpha virt. eigenvalues --    0.68696   0.71154   0.72039   0.73300   0.73785
 Alpha virt. eigenvalues --    0.76134   0.78558   0.80200   0.80404   0.81559
 Alpha virt. eigenvalues --    0.81883   0.82639   0.83118   0.84562   0.84856
 Alpha virt. eigenvalues --    0.85670   0.86825   0.88636   0.90014   0.92351
 Alpha virt. eigenvalues --    0.92824   0.93617   0.95182   0.96802   0.97743
 Alpha virt. eigenvalues --    0.98840   0.99301   1.01698   1.02970   1.03930
 Alpha virt. eigenvalues --    1.08410   1.08929   1.11381   1.14177   1.16005
 Alpha virt. eigenvalues --    1.16414   1.18438   1.19728   1.22926   1.23951
 Alpha virt. eigenvalues --    1.27816   1.29579   1.31207   1.34043   1.37157
 Alpha virt. eigenvalues --    1.38783   1.40191   1.40565   1.41652   1.42597
 Alpha virt. eigenvalues --    1.43548   1.44016   1.45093   1.46023   1.46310
 Alpha virt. eigenvalues --    1.52105   1.57031   1.65580   1.68028   1.73090
 Alpha virt. eigenvalues --    1.74974   1.77502   1.79552   1.79740   1.81492
 Alpha virt. eigenvalues --    1.84113   1.84147   1.88410   1.89054   1.89257
 Alpha virt. eigenvalues --    1.92669   1.92831   1.93817   1.95760   1.96109
 Alpha virt. eigenvalues --    1.96406   1.96892   1.98350   1.98624   1.99298
 Alpha virt. eigenvalues --    2.01385   2.04951   2.05866   2.06617   2.08348
 Alpha virt. eigenvalues --    2.09128   2.16537   2.18278   2.20855   2.22323
 Alpha virt. eigenvalues --    2.23636   2.26121   2.27081   2.28954   2.29766
 Alpha virt. eigenvalues --    2.30321   2.30816   2.31235   2.33796   2.37321
 Alpha virt. eigenvalues --    2.37802   2.38759   2.40987   2.41714   2.42137
 Alpha virt. eigenvalues --    2.42648   2.44388   2.45049   2.46812   2.48025
 Alpha virt. eigenvalues --    2.49158   2.50375   2.52480   2.52690   2.53129
 Alpha virt. eigenvalues --    2.53675   2.55783   2.60480   2.60701   2.60998
 Alpha virt. eigenvalues --    2.64380   2.65164   2.66654   2.67650   2.69903
 Alpha virt. eigenvalues --    2.71077   2.74950   2.75777   2.78633   2.80053
 Alpha virt. eigenvalues --    2.81947   2.84222   2.85011   2.88707   2.94074
 Alpha virt. eigenvalues --    2.95327   2.99020   3.05858   3.07640   3.08125
 Alpha virt. eigenvalues --    3.20056   3.21889   3.25226   3.26108   3.26689
 Alpha virt. eigenvalues --    3.27620   3.31140   3.33527   3.37713   3.40749
 Alpha virt. eigenvalues --    3.41333   3.44264   3.51965   3.52362   3.58791
 Alpha virt. eigenvalues --    3.82556   3.92347   3.97778   4.12945   4.14295
 Alpha virt. eigenvalues --    4.16355   4.16400   4.17503   4.21887   4.38333
 Alpha virt. eigenvalues --    4.44433   4.44880   4.50883   4.56955   4.78491
 Alpha virt. eigenvalues --    4.89919
          Condensed to atoms (all electrons):
               1          2          3          4          5          6
     1  N    6.721170   0.326329  -0.084622  -0.003157  -0.000143   0.000028
     2  C    0.326329   4.893248   0.357122  -0.051248   0.006048   0.000373
     3  C   -0.084622   0.357122   4.798423   0.542762  -0.032636  -0.026737
     4  C   -0.003157  -0.051248   0.542762   4.913630   0.488406  -0.026643
     5  C   -0.000143   0.006048  -0.032636   0.488406   4.941468   0.527426
     6  C    0.000028   0.000373  -0.026737  -0.026643   0.527426   4.811118
     7  C    0.000000  -0.000002   0.000811   0.006181  -0.046669   0.330605
     8  C   -0.000000   0.000000  -0.000002  -0.000174   0.004971  -0.047017
     9  C    0.000000   0.000000   0.000000   0.000002  -0.000173   0.006151
    10  C    0.000000  -0.000000   0.000000  -0.000000   0.000003   0.000722
    11  C   -0.000000  -0.000000  -0.000000  -0.000002   0.000309   0.006072
    12  C   -0.000000   0.000000   0.000003   0.000325  -0.011605  -0.046898
    13  C   -0.000115   0.006147  -0.032451  -0.048146  -0.047155   0.527099
    14  C   -0.003102  -0.051259   0.542780  -0.032280  -0.048088  -0.026214
    15  H    0.345890  -0.047940  -0.000143   0.005094  -0.000185  -0.000012
    16  H    0.345640  -0.047887  -0.000036  -0.000121  -0.000003  -0.000010
    17  H   -0.036662   0.375915  -0.041527  -0.005461   0.000120   0.000010
    18  H   -0.036452   0.375872  -0.041337   0.004431  -0.000267   0.000008
    19  H    0.000836  -0.008723  -0.048354   0.364496  -0.038003   0.003623
    20  H    0.000003  -0.000176   0.004188  -0.038450   0.360246  -0.042634
    21  H    0.000000  -0.000000  -0.000005  -0.000011   0.000064  -0.009491
    22  H   -0.000000  -0.000000  -0.000000  -0.000000   0.000001  -0.000198
    23  H    0.000000  -0.000000  -0.000000   0.000000   0.000000   0.000003
    24  H    0.000000   0.000000  -0.000000  -0.000000   0.000000  -0.000197
    25  H   -0.000000  -0.000000  -0.000006  -0.000065   0.004586  -0.009604
    26  H    0.000003  -0.000177   0.004240   0.000679   0.005822  -0.042819
    27  H    0.000765  -0.008799  -0.048230   0.005542   0.000670   0.003643
               7          8          9         10         11         12
     1  N    0.000000  -0.000000   0.000000   0.000000  -0.000000  -0.000000
     2  C   -0.000002   0.000000   0.000000  -0.000000  -0.000000   0.000000
     3  C    0.000811  -0.000002   0.000000   0.000000  -0.000000   0.000003
     4  C    0.006181  -0.000174   0.000002  -0.000000  -0.000002   0.000325
     5  C   -0.046669   0.004971  -0.000173   0.000003   0.000309  -0.011605
     6  C    0.330605  -0.047017   0.006151   0.000722   0.006072  -0.046898
     7  C    4.805278   0.525922  -0.020119  -0.034203  -0.020193   0.526369
     8  C    0.525922   4.925479   0.513080  -0.041169  -0.043461  -0.054543
     9  C   -0.020119   0.513080   4.826322   0.550428  -0.030419  -0.043497
    10  C   -0.034203  -0.041169   0.550428   4.804310   0.550302  -0.041173
    11  C   -0.020193  -0.043461  -0.030419   0.550302   4.826140   0.513475
    12  C    0.526369  -0.054543  -0.043497  -0.041173   0.513475   4.924276
    13  C   -0.046747  -0.011620   0.000313   0.000003  -0.000176   0.004937
    14  C    0.006159   0.000326  -0.000003  -0.000000   0.000002  -0.000175
    15  H   -0.000000   0.000000  -0.000000  -0.000000   0.000000   0.000000
    16  H   -0.000000   0.000000  -0.000000  -0.000000   0.000000   0.000000
    17  H   -0.000000   0.000000  -0.000000   0.000000   0.000000   0.000000
    18  H   -0.000000  -0.000000  -0.000000   0.000000   0.000000  -0.000000
    19  H   -0.000196   0.000001  -0.000000  -0.000000  -0.000000  -0.000000
    20  H   -0.009135   0.000058  -0.000010  -0.000005  -0.000085   0.004536
    21  H   -0.043461   0.363915  -0.042765   0.005056   0.000371   0.006089
    22  H    0.003620  -0.037165   0.366558  -0.041935   0.004618   0.000904
    23  H    0.000677   0.005164  -0.042858   0.368357  -0.042858   0.005161
    24  H    0.003615   0.000906   0.004615  -0.041945   0.366592  -0.037120
    25  H   -0.043078   0.006084   0.000372   0.005041  -0.042727   0.364041
    26  H   -0.009087   0.004563  -0.000072  -0.000006  -0.000011   0.000068
    27  H   -0.000199   0.000001  -0.000000  -0.000000  -0.000000   0.000001
              13         14         15         16         17         18
     1  N   -0.000115  -0.003102   0.345890   0.345640  -0.036662  -0.036452
     2  C    0.006147  -0.051259  -0.047940  -0.047887   0.375915   0.375872
     3  C   -0.032451   0.542780  -0.000143  -0.000036  -0.041527  -0.041337
     4  C   -0.048146  -0.032280   0.005094  -0.000121  -0.005461   0.004431
     5  C   -0.047155  -0.048088  -0.000185  -0.000003   0.000120  -0.000267
     6  C    0.527099  -0.026214  -0.000012  -0.000010   0.000010   0.000008
     7  C   -0.046747   0.006159  -0.000000  -0.000000  -0.000000  -0.000000
     8  C   -0.011620   0.000326   0.000000   0.000000   0.000000  -0.000000
     9  C    0.000313  -0.000003  -0.000000  -0.000000  -0.000000  -0.000000
    10  C    0.000003  -0.000000  -0.000000  -0.000000   0.000000   0.000000
    11  C   -0.000176   0.000002   0.000000   0.000000   0.000000   0.000000
    12  C    0.004937  -0.000175   0.000000   0.000000   0.000000  -0.000000
    13  C    4.941662   0.488036  -0.000005  -0.000183  -0.000271   0.000109
    14  C    0.488036   4.913600  -0.000111   0.005073   0.004451  -0.005457
    15  H   -0.000005  -0.000111   0.493224  -0.035503  -0.005538   0.007031
    16  H   -0.000183   0.005073  -0.035503   0.493655   0.007057  -0.005576
    17  H   -0.000271   0.004451  -0.005538   0.007057   0.624310  -0.035381
    18  H    0.000109  -0.005457   0.007031  -0.005576  -0.035381   0.623898
    19  H    0.000670   0.005543   0.001063   0.000054   0.005300   0.000133
    20  H    0.005853   0.000667   0.000004   0.000000  -0.000003   0.000004
    21  H    0.004594  -0.000079  -0.000000   0.000000   0.000000  -0.000000
    22  H    0.000000  -0.000000   0.000000   0.000000   0.000000   0.000000
    23  H    0.000000   0.000000  -0.000000   0.000000   0.000000   0.000000
    24  H    0.000001  -0.000000  -0.000000  -0.000000  -0.000000   0.000000
    25  H    0.000046  -0.000008   0.000000   0.000000   0.000000   0.000000
    26  H    0.360232  -0.038441   0.000000   0.000003   0.000003  -0.000002
    27  H   -0.037970   0.364479   0.000054   0.001024   0.000138   0.005415
              19         20         21         22         23         24
     1  N    0.000836   0.000003   0.000000  -0.000000   0.000000   0.000000
     2  C   -0.008723  -0.000176  -0.000000  -0.000000  -0.000000   0.000000
     3  C   -0.048354   0.004188  -0.000005  -0.000000  -0.000000  -0.000000
     4  C    0.364496  -0.038450  -0.000011  -0.000000   0.000000  -0.000000
     5  C   -0.038003   0.360246   0.000064   0.000001   0.000000   0.000000
     6  C    0.003623  -0.042634  -0.009491  -0.000198   0.000003  -0.000197
     7  C   -0.000196  -0.009135  -0.043461   0.003620   0.000677   0.003615
     8  C    0.000001   0.000058   0.363915  -0.037165   0.005164   0.000906
     9  C   -0.000000  -0.000010  -0.042765   0.366558  -0.042858   0.004615
    10  C   -0.000000  -0.000005   0.005056  -0.041935   0.368357  -0.041945
    11  C   -0.000000  -0.000085   0.000371   0.004618  -0.042858   0.366592
    12  C   -0.000000   0.004536   0.006089   0.000904   0.005161  -0.037120
    13  C    0.000670   0.005853   0.004594   0.000000   0.000000   0.000001
    14  C    0.005543   0.000667  -0.000079  -0.000000   0.000000  -0.000000
    15  H    0.001063   0.000004  -0.000000   0.000000  -0.000000  -0.000000
    16  H    0.000054   0.000000   0.000000   0.000000   0.000000  -0.000000
    17  H    0.005300  -0.000003   0.000000   0.000000   0.000000  -0.000000
    18  H    0.000133   0.000004  -0.000000   0.000000   0.000000   0.000000
    19  H    0.640610  -0.005781   0.000000   0.000000  -0.000000   0.000000
    20  H   -0.005781   0.632485   0.000004   0.000000  -0.000000   0.000006
    21  H    0.000000   0.000004   0.635478  -0.006248  -0.000203   0.000018
    22  H    0.000000   0.000000  -0.006248   0.630746  -0.006411  -0.000198
    23  H   -0.000000  -0.000000  -0.000203  -0.006411   0.637440  -0.006406
    24  H    0.000000   0.000006   0.000018  -0.000198  -0.006406   0.630483
    25  H    0.000006   0.002505  -0.000174   0.000018  -0.000202  -0.006226
    26  H    0.000021  -0.000180   0.002524   0.000006  -0.000000   0.000000
    27  H   -0.000180   0.000021   0.000007   0.000000  -0.000000   0.000000
              25         26         27
     1  N   -0.000000   0.000003   0.000765
     2  C   -0.000000  -0.000177  -0.008799
     3  C   -0.000006   0.004240  -0.048230
     4  C   -0.000065   0.000679   0.005542
     5  C    0.004586   0.005822   0.000670
     6  C   -0.009604  -0.042819   0.003643
     7  C   -0.043078  -0.009087  -0.000199
     8  C    0.006084   0.004563   0.000001
     9  C    0.000372  -0.000072  -0.000000
    10  C    0.005041  -0.000006  -0.000000
    11  C   -0.042727  -0.000011  -0.000000
    12  C    0.364041   0.000068   0.000001
    13  C    0.000046   0.360232  -0.037970
    14  C   -0.000008  -0.038441   0.364479
    15  H    0.000000   0.000000   0.000054
    16  H    0.000000   0.000003   0.001024
    17  H    0.000000   0.000003   0.000138
    18  H    0.000000  -0.000002   0.005415
    19  H    0.000006   0.000021  -0.000180
    20  H    0.002505  -0.000180   0.000021
    21  H   -0.000174   0.002524   0.000007
    22  H    0.000018   0.000006   0.000000
    23  H   -0.000202  -0.000000  -0.000000
    24  H   -0.006226   0.000000   0.000000
    25  H    0.634054   0.000003   0.000000
    26  H    0.000003   0.632468  -0.005796
    27  H    0.000000  -0.005796   0.640481
 Mulliken charges:
               1
     1  N   -0.576413
     2  C   -0.124843
     3  C    0.105757
     4  C   -0.125790
     5  C   -0.115212
     6  C    0.061592
     7  C    0.063850
     8  C   -0.115319
     9  C   -0.087922
    10  C   -0.083784
    11  C   -0.087950
    12  C   -0.115174
    13  C   -0.114863
    14  C   -0.125900
    15  H    0.237076
    16  H    0.236812
    17  H    0.107539
    18  H    0.107571
    19  H    0.078882
    20  H    0.085878
    21  H    0.084315
    22  H    0.085683
    23  H    0.082136
    24  H    0.085854
    25  H    0.085335
    26  H    0.085957
    27  H    0.078933
 Sum of Mulliken charges =  -0.00000
 Mulliken charges with hydrogens summed into heavy atoms:
               1
     1  N   -0.102525
     2  C    0.090267
     3  C    0.105757
     4  C   -0.046909
     5  C   -0.029334
     6  C    0.061592
     7  C    0.063850
     8  C   -0.031004
     9  C   -0.002239
    10  C   -0.001648
    11  C   -0.002095
    12  C   -0.029839
    13  C   -0.028906
    14  C   -0.046967
 Electronic spatial extent (au):  <R**2>=           3797.6044
 Charge=             -0.0000 electrons
 Dipole moment (field-independent basis, Debye):
    X=              1.1271    Y=             -0.0864    Z=              0.2212  Tot=              1.1519
 Quadrupole moment (field-independent basis, Debye-Ang):
   XX=            -87.2351   YY=            -73.6124   ZZ=            -83.6120
   XY=             -0.1730   XZ=              1.1253   YZ=              0.3065
 Traceless Quadrupole moment (field-independent basis, Debye-Ang):
   XX=             -5.7487   YY=              7.8741   ZZ=             -2.1255
   XY=             -0.1730   XZ=              1.1253   YZ=              0.3065
 Octapole moment (field-independent basis, Debye-Ang**2):
  XXX=            111.8820  YYY=             -2.3771  ZZZ=              6.4583  XYY=             -5.1308
  XXY=              4.6460  XXZ=             -8.6584  XZZ=            -17.0677  YZZ=             -1.6564
  YYZ=              2.4000  XYZ=             -8.8088
 Hexadecapole moment (field-independent basis, Debye-Ang**3):
 XXXX=          -4856.5580 YYYY=           -525.1270 ZZZZ=           -203.9275 XXXY=            -29.2208
 XXXZ=             98.2875 YYYX=              9.4902 YYYZ=             -2.0742 ZZZX=            -27.8245
 ZZZY=              0.9487 XXYY=           -747.6600 XXZZ=           -775.5273 YYZZ=           -124.7938
 XXYZ=            -11.6105 YYXZ=             -7.0602 ZZXY=              2.5462
 N-N= 7.833142242701D+02 E-N=-2.859316947755D+03  KE= 5.527777745659D+02
 Calling FoFJK, ICntrl=      2127 FMM=F ISym2X=0 I1Cent= 0 IOpClX= 0 NMat=1 NMatS=1 NMatT=0.
 ***** Axes restored to original set *****
 -------------------------------------------------------------------
 Center     Atomic                   Forces (Hartrees/Bohr)
 Number     Number              X              Y              Z
 -------------------------------------------------------------------
      1        7           0.021311590    0.000280955   -0.000365626
      2        6          -0.015714632    0.000338419    0.001468470
      3        6           0.009427701   -0.006500321   -0.012847434
      4        6          -0.009444177    0.005802835   -0.001888060
      5        6           0.004599350    0.000248849   -0.000126410
      6        6          -0.010222218    0.000416361    0.001298984
      7        6           0.008802696   -0.000467603   -0.001340403
      8        6          -0.003631617   -0.000075098   -0.000424921
      9        6           0.003512386   -0.004036304   -0.001701744
     10        6          -0.004225308    0.000171345    0.000545307
     11        6           0.004313412    0.003726568    0.000673906
     12        6          -0.003537975    0.000290681    0.001348730
     13        6           0.004740026    0.000789353    0.001469377
     14        6          -0.008895481   -0.004629940    0.005014569
     15        1          -0.002141728   -0.001723294    0.004484486
     16        1          -0.002345303    0.004644796    0.001071439
     17        1           0.002465332   -0.001669011    0.002871854
     18        1           0.002242078    0.003382733    0.000135648
     19        1           0.003031865   -0.003455172    0.000618666
     20        1          -0.003506586   -0.001812309    0.001941327
     21        1           0.003801103    0.002015206    0.000468385
     22        1          -0.001290941    0.003171587    0.000893355
     23        1          -0.003923750    0.000184061    0.000520520
     24        1          -0.001774818   -0.003049580   -0.000494222
     25        1           0.003345966   -0.002289855   -0.001375376
     26        1          -0.003762078    0.001941052   -0.001298312
     27        1           0.002823106    0.002303686   -0.002962516
 -------------------------------------------------------------------
 Cartesian Forces:  Max     0.021311590 RMS     0.004772254

 GradGradGradGradGradGradGradGradGradGradGradGradGradGradGradGradGradGrad
 Berny optimization.
 FormGI is forming the generalized inverse of G from B-inverse, IUseBI=4.
 Internal  Forces:  Max     0.020299742 RMS     0.003113462
 Search for a local minimum.
 Step number   1 out of a maximum of  147
 All quantities printed in internal units (Hartrees-Bohrs-Radians)
 Mixed Optimization -- RFO/linear search
 Second derivative matrix not updated -- first step.
 ITU=  0
     Eigenvalues ---    0.00535   0.00857   0.01017   0.01497   0.01694
     Eigenvalues ---    0.01711   0.02083   0.02092   0.02121   0.02125
     Eigenvalues ---    0.02131   0.02135   0.02156   0.02159   0.02163
     Eigenvalues ---    0.02170   0.02171   0.02188   0.02189   0.02191
     Eigenvalues ---    0.02194   0.04595   0.05242   0.06565   0.09662
     Eigenvalues ---    0.13075   0.15998   0.15998   0.15998   0.15998
     Eigenvalues ---    0.16000   0.16000   0.16000   0.16000   0.16000
     Eigenvalues ---    0.16000   0.16000   0.21892   0.22000   0.22000
     Eigenvalues ---    0.22000   0.22972   0.23471   0.24000   0.24999
     Eigenvalues ---    0.25000   0.25000   0.30613   0.33114   0.34556
     Eigenvalues ---    0.34556   0.35922   0.35939   0.35944   0.35950
     Eigenvalues ---    0.35951   0.35977   0.35984   0.35987   0.35993
     Eigenvalues ---    0.38115   0.41974   0.42080   0.42097   0.42139
     Eigenvalues ---    0.45699   0.45752   0.45891   0.45901   0.46001
     Eigenvalues ---    0.46281   0.46528   0.46844   0.46860   0.46939
 RFO step:  Lambda=-5.67458170D-03 EMin= 5.34993618D-03
 Linear search not attempted -- first point.
 Iteration  1 RMS(Cart)=  0.03799911 RMS(Int)=  0.00055664
 Iteration  2 RMS(Cart)=  0.00075537 RMS(Int)=  0.00030442
 Iteration  3 RMS(Cart)=  0.00000183 RMS(Int)=  0.00030442
 Iteration  4 RMS(Cart)=  0.00000000 RMS(Int)=  0.00030442
 Variable       Old X    -DE/DX   Delta X   Delta X   Delta X     New X
                                 (Linear)    (Quad)   (Total)
    R1        2.74198   0.01313   0.00000   0.03394   0.03394   2.77592
    R2        1.90954   0.00516   0.00000   0.01111   0.01111   1.92065
    R3        1.90943   0.00521   0.00000   0.01121   0.01121   1.92065
    R4        2.86758   0.00435   0.00000   0.01395   0.01395   2.88153
    R5        2.06401   0.00203   0.00000   0.00578   0.00578   2.06979
    R6        2.06402   0.00200   0.00000   0.00569   0.00569   2.06971
    R7        2.63647   0.00361   0.00000   0.00777   0.00783   2.64430
    R8        2.63661   0.00353   0.00000   0.00762   0.00768   2.64429
    R9        2.63177   0.00149   0.00000   0.00314   0.00314   2.63491
   R10        2.04159   0.00447   0.00000   0.01225   0.01225   2.05384
   R11        2.64719   0.00105   0.00000   0.00219   0.00212   2.64931
   R12        2.04093   0.00391   0.00000   0.01069   0.01069   2.05162
   R13        2.82151  -0.00547   0.00000  -0.01624  -0.01624   2.80527
   R14        2.64708   0.00109   0.00000   0.00227   0.00221   2.64929
   R15        2.64859   0.00096   0.00000   0.00185   0.00184   2.65043
   R16        2.64851   0.00104   0.00000   0.00202   0.00201   2.65053
   R17        2.63186   0.00175   0.00000   0.00370   0.00370   2.63556
   R18        2.04107   0.00378   0.00000   0.01035   0.01035   2.05141
   R19        2.63057   0.00287   0.00000   0.00629   0.00630   2.63686
   R20        2.04177   0.00352   0.00000   0.00966   0.00966   2.05143
   R21        2.63067   0.00288   0.00000   0.00630   0.00631   2.63698
   R22        2.04204   0.00396   0.00000   0.01086   0.01086   2.05290
   R23        2.63196   0.00166   0.00000   0.00350   0.00350   2.63546
   R24        2.04169   0.00355   0.00000   0.00972   0.00972   2.05142
   R25        2.04117   0.00373   0.00000   0.01021   0.01021   2.05138
   R26        2.63169   0.00159   0.00000   0.00337   0.00337   2.63506
   R27        2.04101   0.00389   0.00000   0.01064   0.01064   2.05166
   R28        2.04158   0.00446   0.00000   0.01221   0.01221   2.05379
    A1        1.91248  -0.00019   0.00000  -0.00451  -0.00454   1.90795
    A2        1.91254  -0.00025   0.00000  -0.00486  -0.00489   1.90765
    A3        1.86150  -0.00055   0.00000  -0.01036  -0.01043   1.85107
    A4        1.91803   0.02030   0.00000   0.09380   0.09403   2.01205
    A5        1.92840  -0.00819   0.00000  -0.04516  -0.04610   1.88230
    A6        1.92828  -0.00814   0.00000  -0.04500  -0.04590   1.88238
    A7        1.91820  -0.00422   0.00000  -0.00590  -0.00521   1.91299
    A8        1.91858  -0.00433   0.00000  -0.00695  -0.00625   1.91233
    A9        1.85144   0.00371   0.00000   0.00512   0.00370   1.85514
   A10        2.09524   0.00361   0.00000   0.01419   0.01370   2.10895
   A11        2.09536   0.00370   0.00000   0.01456   0.01407   2.10942
   A12        2.09256  -0.00732   0.00000  -0.02913  -0.02927   2.06329
   A13        2.09312   0.00417   0.00000   0.01785   0.01795   2.11106
   A14        2.10051  -0.00310   0.00000  -0.01507  -0.01515   2.08537
   A15        2.08955  -0.00107   0.00000  -0.00280  -0.00288   2.08667
   A16        2.10866   0.00050   0.00000   0.00119   0.00117   2.10983
   A17        2.07667   0.00179   0.00000   0.01171   0.01172   2.08839
   A18        2.09776  -0.00229   0.00000  -0.01290  -0.01289   2.08487
   A19        2.10639   0.00102   0.00000   0.00451   0.00455   2.11094
   A20        2.07023  -0.00199   0.00000  -0.00884  -0.00892   2.06131
   A21        2.10657   0.00097   0.00000   0.00433   0.00437   2.11093
   A22        2.10619   0.00033   0.00000   0.00177   0.00178   2.10797
   A23        2.10609   0.00047   0.00000   0.00232   0.00233   2.10842
   A24        2.07090  -0.00079   0.00000  -0.00409  -0.00411   2.06680
   A25        2.10814   0.00031   0.00000   0.00076   0.00075   2.10889
   A26        2.09824  -0.00224   0.00000  -0.01298  -0.01299   2.08525
   A27        2.07670   0.00192   0.00000   0.01211   0.01211   2.08881
   A28        2.08848   0.00191   0.00000   0.00893   0.00893   2.09741
   A29        2.09686  -0.00123   0.00000  -0.00610  -0.00612   2.09075
   A30        2.09784  -0.00069   0.00000  -0.00284  -0.00286   2.09498
   A31        2.10226  -0.00367   0.00000  -0.01532  -0.01530   2.08696
   A32        2.09054   0.00183   0.00000   0.00760   0.00759   2.09812
   A33        2.09039   0.00185   0.00000   0.00773   0.00772   2.09810
   A34        2.08838   0.00194   0.00000   0.00902   0.00902   2.09741
   A35        2.09804  -0.00072   0.00000  -0.00298  -0.00300   2.09504
   A36        2.09676  -0.00122   0.00000  -0.00606  -0.00607   2.09069
   A37        2.10819   0.00030   0.00000   0.00071   0.00070   2.10889
   A38        2.09823  -0.00224   0.00000  -0.01298  -0.01298   2.08524
   A39        2.07665   0.00193   0.00000   0.01216   0.01215   2.08880
   A40        2.10869   0.00049   0.00000   0.00117   0.00112   2.10981
   A41        2.09770  -0.00230   0.00000  -0.01308  -0.01312   2.08458
   A42        2.07669   0.00180   0.00000   0.01169   0.01166   2.08834
   A43        2.09312   0.00415   0.00000   0.01778   0.01791   2.11103
   A44        2.10045  -0.00311   0.00000  -0.01513  -0.01519   2.08525
   A45        2.08961  -0.00104   0.00000  -0.00266  -0.00272   2.08689
    D1        1.01778  -0.00042   0.00000  -0.00821  -0.00820   1.00958
    D2       -1.10191  -0.00318   0.00000  -0.03320  -0.03205  -1.13396
    D3        3.13787   0.00223   0.00000   0.01556   0.01446  -3.13086
    D4       -1.01910   0.00050   0.00000   0.00971   0.00969  -1.00941
    D5       -3.13878  -0.00225   0.00000  -0.01528  -0.01416   3.13024
    D6        1.10099   0.00316   0.00000   0.03348   0.03234   1.13333
    D7       -1.56024   0.00053   0.00000   0.02431   0.02467  -1.53557
    D8        1.57268  -0.00055   0.00000  -0.02668  -0.02708   1.54561
    D9        0.56555   0.00078   0.00000   0.02518   0.02600   0.59154
   D10       -2.58472  -0.00031   0.00000  -0.02581  -0.02575  -2.61047
   D11        2.59706   0.00028   0.00000   0.02388   0.02385   2.62091
   D12       -0.55320  -0.00080   0.00000  -0.02711  -0.02790  -0.58110
   D13        3.13556  -0.00151   0.00000  -0.06233  -0.06204   3.07352
   D14       -0.00391  -0.00117   0.00000  -0.05081  -0.05049  -0.05441
   D15        0.00262  -0.00048   0.00000  -0.01164  -0.01184  -0.00922
   D16       -3.13685  -0.00014   0.00000  -0.00012  -0.00029  -3.13714
   D17       -3.13424   0.00145   0.00000   0.06009   0.05982  -3.07442
   D18        0.01160   0.00147   0.00000   0.06164   0.06133   0.07292
   D19       -0.00130   0.00042   0.00000   0.00940   0.00960   0.00830
   D20       -3.13865   0.00044   0.00000   0.01095   0.01111  -3.12754
   D21       -0.00239   0.00032   0.00000   0.00943   0.00963   0.00724
   D22       -3.12875   0.00031   0.00000   0.00921   0.00938  -3.11938
   D23        3.13710  -0.00002   0.00000  -0.00203  -0.00194   3.13515
   D24        0.01073  -0.00003   0.00000  -0.00225  -0.00220   0.00853
   D25       -3.14100  -0.00023   0.00000  -0.00884  -0.00880   3.13339
   D26        0.00081  -0.00011   0.00000  -0.00491  -0.00480  -0.00399
   D27       -0.01482  -0.00018   0.00000  -0.00841  -0.00833  -0.02314
   D28        3.12699  -0.00007   0.00000  -0.00448  -0.00433   3.12266
   D29        2.47300   0.00018   0.00000   0.01066   0.01071   2.48371
   D30       -0.66871   0.00019   0.00000   0.01096   0.01101  -0.65770
   D31       -0.66881   0.00006   0.00000   0.00664   0.00660  -0.66221
   D32        2.47266   0.00007   0.00000   0.00694   0.00689   2.47956
   D33        0.00052   0.00005   0.00000   0.00262   0.00255   0.00307
   D34        3.12552  -0.00038   0.00000  -0.01326  -0.01329   3.11223
   D35       -3.14085   0.00017   0.00000   0.00656   0.00654  -3.13431
   D36       -0.01585  -0.00027   0.00000  -0.00933  -0.00930  -0.02515
   D37       -3.14089  -0.00004   0.00000  -0.00138  -0.00136   3.14093
   D38       -0.01482  -0.00024   0.00000  -0.00939  -0.00933  -0.02415
   D39        0.00082  -0.00004   0.00000  -0.00167  -0.00165  -0.00083
   D40        3.12689  -0.00025   0.00000  -0.00968  -0.00962   3.11727
   D41       -3.14103  -0.00004   0.00000  -0.00163  -0.00162   3.14054
   D42       -0.01565  -0.00024   0.00000  -0.00933  -0.00928  -0.02492
   D43        0.00045  -0.00004   0.00000  -0.00134  -0.00133  -0.00088
   D44        3.12583  -0.00023   0.00000  -0.00904  -0.00898   3.11684
   D45       -0.00132   0.00008   0.00000   0.00308   0.00307   0.00176
   D46        3.13725  -0.00011   0.00000  -0.00392  -0.00393   3.13332
   D47       -3.12757   0.00032   0.00000   0.01121   0.01127  -3.11630
   D48        0.01100   0.00012   0.00000   0.00421   0.00427   0.01527
   D49        0.00054  -0.00004   0.00000  -0.00150  -0.00149  -0.00095
   D50       -3.14080  -0.00005   0.00000  -0.00169  -0.00168   3.14070
   D51       -3.13802   0.00015   0.00000   0.00551   0.00553  -3.13249
   D52        0.00382   0.00015   0.00000   0.00532   0.00534   0.00916
   D53        0.00071  -0.00004   0.00000  -0.00146  -0.00146  -0.00075
   D54       -3.13736   0.00015   0.00000   0.00520   0.00522  -3.13214
   D55       -3.14114  -0.00003   0.00000  -0.00127  -0.00127   3.14078
   D56        0.00398   0.00015   0.00000   0.00539   0.00541   0.00939
   D57       -0.00121   0.00008   0.00000   0.00289   0.00288   0.00168
   D58       -3.12678   0.00030   0.00000   0.01073   0.01079  -3.11600
   D59        3.13686  -0.00011   0.00000  -0.00376  -0.00377   3.13309
   D60        0.01129   0.00012   0.00000   0.00408   0.00414   0.01542
   D61       -0.00028  -0.00020   0.00000  -0.00490  -0.00511  -0.00538
   D62        3.13710  -0.00023   0.00000  -0.00648  -0.00665   3.13045
   D63       -3.12547   0.00027   0.00000   0.01102   0.01100  -3.11447
   D64        0.01191   0.00024   0.00000   0.00945   0.00946   0.02137
         Item               Value     Threshold  Converged?
 Maximum Force            0.020300     0.000450     NO 
 RMS     Force            0.003113     0.000300     NO 
 Maximum Displacement     0.203173     0.001800     NO 
 RMS     Displacement     0.037873     0.001200     NO 
 Predicted change in Energy=-2.943711D-03
 GradGradGradGradGradGradGradGradGradGradGradGradGradGradGradGradGradGrad

                          Input orientation:                          
 ---------------------------------------------------------------------
 Center     Atomic      Atomic             Coordinates (Angstroms)
 Number     Number       Type             X           Y           Z
 ---------------------------------------------------------------------
      1          7           0        4.699500    0.379676    0.555024
      2          6           0        3.958694   -0.231317   -0.556605
      3          6           0        2.440061   -0.198591   -0.423106
      4          6           0        1.756260   -1.222788    0.241334
      5          6           0        0.377118   -1.155956    0.435436
      6          6           0       -0.364121   -0.064081   -0.037698
      7          6           0       -1.833949    0.003579    0.159087
      8          6           0       -2.464376    1.223398    0.445001
      9          6           0       -3.845295    1.288362    0.629311
     10          6           0       -4.620868    0.132409    0.532832
     11          6           0       -4.006002   -1.087857    0.249780
     12          6           0       -2.625259   -1.150555    0.063780
     13          6           0        0.321605    0.959603   -0.706505
     14          6           0        1.701055    0.890542   -0.898181
     15          1           0        4.446515   -0.084551    1.423060
     16          1           0        4.409976    1.348313    0.659482
     17          1           0        4.296686   -1.268456   -0.655401
     18          1           0        4.256912    0.278222   -1.479101
     19          1           0        2.310579   -2.076430    0.622461
     20          1           0       -0.129070   -1.952550    0.971987
     21          1           0       -1.865794    2.123459    0.545158
     22          1           0       -4.314782    2.240175    0.857556
     23          1           0       -5.696445    0.182114    0.677093
     24          1           0       -4.603210   -1.990347    0.164330
     25          1           0       -2.158243   -2.099790   -0.179639
     26          1           0       -0.234705    1.802005   -1.106006
     27          1           0        2.209558    1.691215   -1.428767
 ---------------------------------------------------------------------
                    Distance matrix (angstroms):
                    1          2          3          4          5
     1  N    0.000000
     2  C    1.468954   0.000000
     3  C    2.529070   1.524840   0.000000
     4  C    3.365852   2.543706   1.399302   0.000000
     5  C    4.588623   3.829725   2.430921   1.394337   0.000000
     6  C    5.117470   4.357059   2.833738   2.432381   1.401956
     7  C    6.556231   5.841412   4.318215   3.794777   2.511912
     8  C    7.214229   6.661474   5.179688   4.882527   3.706143
     9  C    8.593297   8.038537   6.544029   6.150920   4.882729
    10  C    9.323674   8.656099   7.133029   6.526047   5.162289
    11  C    8.833607   8.051106   6.541812   5.763848   4.387579
    12  C    7.499002   6.676699   5.176945   4.385710   3.025297
    13  C    4.592792   3.830036   2.430964   2.778392   2.404724
    14  C    3.370973   2.544047   1.399299   2.401605   2.778398
    15  H    1.016364   2.044159   2.728954   3.151116   4.322418
    16  H    1.016363   2.043956   2.728639   3.718551   4.752421
    17  H    2.084161   1.095288   2.155372   2.694437   4.070086
    18  H    2.084189   1.095245   2.154861   3.386177   4.557974
    19  H    3.426945   2.740606   2.153197   1.086845   2.149541
    20  H    5.378497   4.691380   3.409265   2.149621   1.085668
    21  H    6.792934   6.378362   4.986966   4.940541   3.974575
    22  H    9.209249   8.749773   7.294901   7.016366   5.807393
    23  H   10.398539   9.742415   8.219374   7.596476   6.223905
    24  H    9.607813   8.770412   7.291306   6.406085   5.057012
    25  H    7.329129   6.407044   4.981791   4.033570   2.774382
    26  H    5.397075   4.692636   3.409268   3.863760   3.391150
    27  H    3.443163   2.741582   2.153103   3.389120   3.865162
                    6          7          8          9         10
     6  C    0.000000
     7  C    1.484485   0.000000
     8  C    2.510313   1.402549   0.000000
     9  C    3.793755   2.432549   1.394679   0.000000
    10  C    4.299303   2.814818   2.418352   1.395367   0.000000
    11  C    3.793951   2.432545   2.785071   2.411698   1.395431
    12  C    2.510671   1.402598   2.409743   2.785072   2.418359
    13  C    1.401945   2.511900   3.026094   4.388114   5.162194
    14  C    2.432424   3.794835   4.389277   5.766584   6.526046
    15  H    5.027569   6.406997   7.101249   8.442099   9.113562
    16  H    5.027217   6.406660   6.878831   8.255544   9.113210
    17  H    4.853370   6.313965   7.289183   8.630160   9.104784
    18  H    4.852706   6.313294   7.054874   8.432767   9.104072
    19  H    3.411654   4.660286   5.806940   7.015459   7.275436
    20  H    2.154305   2.719165   3.977187   4.942800   4.971535
    21  H    2.716628   2.154984   1.085561   2.150092   3.399245
    22  H    4.660343   3.412441   2.151288   1.085570   2.154487
    23  H    5.385650   3.901165   3.403588   2.157040   1.086346
    24  H    4.660600   3.412415   3.870600   3.397142   2.154576
    25  H    2.717193   2.155009   3.395213   3.870416   3.399242
    26  H    2.154137   2.718892   2.777020   4.038752   4.971093
    27  H    3.411739   4.660402   5.057225   6.407748   7.275471
                   11         12         13         14         15
    11  C    0.000000
    12  C    1.394625   0.000000
    13  C    4.882086   3.705416   0.000000
    14  C    6.148364   4.879389   1.394414   0.000000
    15  H    8.592337   7.279697   4.758170   3.725119   0.000000
    16  H    8.771059   7.489575   4.328024   3.158183   1.624034
    17  H    8.353838   6.960205   4.557206   3.384895   2.396681
    18  H    8.551664   7.196261   4.067902   2.691618   2.930886
    19  H    6.404325   5.052907   3.865186   3.389217   3.028326
    20  H    4.037312   2.774707   3.391324   3.863943   4.962747
    21  H    3.870438   3.395243   2.775956   4.040510   6.744720
    22  H    3.397136   3.870609   5.057889   6.410493   9.082096
    23  H    2.157087   3.403578   6.223806   7.596471  10.173849
    24  H    1.085562   2.151197   5.806407   7.012290   9.333486
    25  H    2.150028   1.085543   3.973301   4.934832   7.088911
    26  H    4.940865   3.975017   1.085690   2.149680   5.645271
    27  H    7.012415   5.803345   2.149718   1.086819   4.036117
                   16         17         18         19         20
    16  H    0.000000
    17  H    2.930739   0.000000
    18  H    2.396260   1.752791   0.000000
    19  H    4.017176   2.496072   3.707986   0.000000
    20  H    5.621058   4.764839   5.497364   2.467671   0.000000
    21  H    6.324492   7.136006   6.707462   5.923439   4.451094
    22  H    8.772460   9.421089   9.098526   7.910990   5.925557
    23  H   10.173499  10.185400  10.184682   8.319642   5.969877
    24  H    9.624414   8.966674   9.292418   6.929486   4.546611
    25  H    7.465591   6.525610   6.964034   4.540296   2.337834
    26  H    4.989573   5.492202   4.757703   4.950589   4.292540
    27  H    3.052901   3.703222   2.488120   4.291025   4.950740
                   21         22         23         24         25
    21  H    0.000000
    22  H    2.471591   0.000000
    23  H    4.296524   2.485392   0.000000
    24  H    4.955994   4.296635   2.485494   0.000000
    25  H    4.294961   4.955979   4.296504   2.471468   0.000000
    26  H    2.343101   4.549131   5.969430   5.922797   4.447714
    27  H    4.548814   6.935103   8.319671   7.906053   5.916902
                   26         27
    26  H    0.000000
    27  H    2.467969   0.000000
 Stoichiometry    C13H13N
 Framework group  C1[X(C13H13N)]
 Deg. of freedom    75
 Full point group                 C1      NOp   1
 Largest Abelian subgroup         C1      NOp   1
 Largest concise Abelian subgroup C1      NOp   1
                         Standard orientation:                         
 ---------------------------------------------------------------------
 Center     Atomic      Atomic             Coordinates (Angstroms)
 Number     Number       Type             X           Y           Z
 ---------------------------------------------------------------------
      1          7           0       -4.845771   -0.340974    0.885898
      2          6           0       -4.191953    0.144144   -0.336808
      3          6           0       -2.667422    0.129714   -0.309696
      4          6           0       -1.948544    1.222927    0.186433
      5          6           0       -0.558498    1.181046    0.287395
      6          6           0        0.158260    0.044900   -0.113741
      7          6           0        1.638957    0.002689   -0.016528
      8          6           0        2.300367   -1.176403    0.356865
      9          6           0        3.691471   -1.217512    0.447786
     10          6           0        4.446535   -0.077813    0.168475
     11          6           0        3.800846    1.102075   -0.203247
     12          6           0        2.409820    1.140744   -0.295605
     13          6           0       -0.562853   -1.048293   -0.614119
     14          6           0       -1.953056   -1.003928   -0.712900
     15          1           0       -4.536496    0.217476    1.676770
     16          1           0       -4.539803   -1.291358    1.076023
     17          1           0       -4.546553    1.163130   -0.525438
     18          1           0       -4.549753   -0.465491   -1.173401
     19          1           0       -2.482993    2.112484    0.509367
     20          1           0       -0.023560    2.033464    0.694704
     21          1           0        1.719516   -2.061011    0.598782
     22          1           0        4.185556   -2.137021    0.745853
     23          1           0        5.530087   -0.108866    0.239891
     24          1           0        4.381344    1.990730   -0.430756
     25          1           0        1.917148    2.056008   -0.608604
     26          1           0       -0.027837   -1.928719   -0.956653
     27          1           0       -2.489839   -1.859741   -1.113679
 ---------------------------------------------------------------------
 Rotational constants (GHZ):           2.4685976           0.3016360           0.2812484
 Standard basis: 6-31G(d,p) (6D, 7F)
 There are   275 symmetry adapted cartesian basis functions of A   symmetry.
 There are   275 symmetry adapted basis functions of A   symmetry.
   275 basis functions,   483 primitive gaussians,   275 cartesian basis functions
    49 alpha electrons       49 beta electrons
       nuclear repulsion energy       780.0439469963 Hartrees.
 NAtoms=   27 NActive=   27 NUniq=   27 SFac= 1.00D+00 NAtFMM=   60 NAOKFM=F Big=F
 Integral buffers will be    131072 words long.
 Raffenetti 2 integral format.
 Two-electron integral symmetry is turned on.
 Nuclear repulsion after empirical dispersion term =      779.9893380198 Hartrees.
 One-electron integrals computed using PRISM.
 NBasis=   275 RedAO= T EigKep=  4.15D-04  NBF=   275
 NBsUse=   275 1.00D-06 EigRej= -1.00D+00 NBFU=   275
 Initial guess from the checkpoint file:  "N4_conf-3.chk"
 B after Tr=     0.000000    0.000000   -0.000000
         Rot=    0.999999   -0.001070    0.000930    0.000459 Ang=  -0.17 deg.
 ExpMin= 1.61D-01 ExpMax= 4.17D+03 ExpMxC= 6.27D+02 IAcc=3 IRadAn=         5 AccDes= 0.00D+00
 Harris functional with IExCor=  402 and IRadAn=       5 diagonalized for initial guess.
 HarFok:  IExCor=  402 AccDes= 0.00D+00 IRadAn=         5 IDoV= 1 UseB2=F ITyADJ=14
 ICtDFT=  3500011 ScaDFX=  1.000000  1.000000  1.000000  1.000000
 FoFCou: FMM=F IPFlag=           0 FMFlag=      100000 FMFlg1=           0
         NFxFlg=           0 DoJE=T BraDBF=F KetDBF=T FulRan=T
         wScrn=  0.000000 ICntrl=       500 IOpCl=  0 I1Cent=   200000004 NGrid=           0
         NMat0=    1 NMatS0=      1 NMatT0=    0 NMatD0=    1 NMtDS0=    0 NMtDT0=    0
 Petite list used in FoFCou.
 Requested convergence on RMS density matrix=1.00D-08 within 128 cycles.
 Requested convergence on MAX density matrix=1.00D-06.
 Requested convergence on             energy=1.00D-06.
 No special actions if energy rises.
 Integral accuracy reduced to 1.0D-05 until final iterations.
 Initial convergence to 1.0D-05 achieved.  Increase integral accuracy.
 SCF Done:  E(RB3LYP) =  -558.041707234     A.U. after   11 cycles
            NFock= 11  Conv=0.93D-08     -V/T= 2.0099
 Calling FoFJK, ICntrl=      2127 FMM=F ISym2X=0 I1Cent= 0 IOpClX= 0 NMat=1 NMatS=1 NMatT=0.
 ***** Axes restored to original set *****
 -------------------------------------------------------------------
 Center     Atomic                   Forces (Hartrees/Bohr)
 Number     Number              X              Y              Z
 -------------------------------------------------------------------
      1        7           0.002378876   -0.000820486   -0.001706692
      2        6          -0.004586568   -0.000661659   -0.000992006
      3        6           0.005320093    0.000063455   -0.000107928
      4        6          -0.002537601    0.000947605    0.000624028
      5        6           0.002794474   -0.001567616   -0.000512376
      6        6          -0.002873285    0.000145900    0.000541751
      7        6           0.002761400   -0.000063863   -0.000233308
      8        6          -0.002181916    0.001046572    0.000125841
      9        6           0.001275432   -0.000550651   -0.000253986
     10        6          -0.000630034   -0.000012473    0.000079177
     11        6           0.001298371    0.000496955   -0.000080917
     12        6          -0.002130934   -0.000856421    0.000445764
     13        6           0.002815029    0.000875895   -0.001167780
     14        6          -0.002499101   -0.000062546    0.001305165
     15        1          -0.001116311   -0.000121873    0.001151385
     16        1          -0.001148491    0.000981112    0.000577705
     17        1          -0.000083295   -0.000357305    0.000703283
     18        1          -0.000097683    0.000768869    0.000071319
     19        1           0.000200902   -0.000398968   -0.000049102
     20        1          -0.000004392    0.000199215    0.000074482
     21        1           0.000158838   -0.000226216    0.000115195
     22        1           0.000083033    0.000246436    0.000013353
     23        1           0.000474935   -0.000019560   -0.000068599
     24        1           0.000052423   -0.000250327   -0.000027768
     25        1           0.000134511    0.000231946   -0.000170594
     26        1          -0.000036427   -0.000232210   -0.000101293
     27        1           0.000177719    0.000198213   -0.000356099
 -------------------------------------------------------------------
 Cartesian Forces:  Max     0.005320093 RMS     0.001294460

 GradGradGradGradGradGradGradGradGradGradGradGradGradGradGradGradGradGrad
 Berny optimization.
 Using GEDIIS/GDIIS optimizer.
 FormGI is forming the generalized inverse of G from B-inverse, IUseBI=4.
 Internal  Forces:  Max     0.004612952 RMS     0.000596114
 Search for a local minimum.
 Step number   2 out of a maximum of  147
 All quantities printed in internal units (Hartrees-Bohrs-Radians)
 Mixed Optimization -- En-DIIS/RFO-DIIS
 Update second derivatives using D2CorX and points    1    2
 DE= -2.76D-03 DEPred=-2.94D-03 R= 9.39D-01
 TightC=F SS=  1.41D+00  RLast= 2.09D-01 DXNew= 5.0454D-01 6.2760D-01
 Trust test= 9.39D-01 RLast= 2.09D-01 DXMaxT set to 5.05D-01
 ITU=  1  0
 Use linear search instead of GDIIS.
     Eigenvalues ---    0.00535   0.00858   0.01017   0.01515   0.01692
     Eigenvalues ---    0.01711   0.02083   0.02089   0.02119   0.02125
[...]
 Alpha virt. eigenvalues --    0.97915   0.99899   1.00738   1.01788   1.03901
 Alpha virt. eigenvalues --    1.04580   1.05287   1.06561   1.07030   1.08343
 Alpha virt. eigenvalues --    1.11184   1.11677   1.12861   1.14257   1.15391
 Alpha virt. eigenvalues --    1.18848   1.19314   1.20242   1.21503   1.22663
 Alpha virt. eigenvalues --    1.23022   1.24079   1.24920   1.25129   1.25952
 Alpha virt. eigenvalues --    1.27913   1.29854   1.30073   1.30930   1.32445
 Alpha virt. eigenvalues --    1.33250   1.33451   1.33992   1.35432   1.36953
 Alpha virt. eigenvalues --    1.38056   1.38293   1.40392   1.41104   1.42675
 Alpha virt. eigenvalues --    1.44253   1.45069   1.46298   1.47846   1.48555
 Alpha virt. eigenvalues --    1.49548   1.49916   1.50542   1.53737   1.55190
 Alpha virt. eigenvalues --    1.55451   1.55938   1.57510   1.58029   1.59064
 Alpha virt. eigenvalues --    1.59390   1.60071   1.61311   1.61977   1.64002
 Alpha virt. eigenvalues --    1.64252   1.64991   1.67855   1.69311   1.69804
 Alpha virt. eigenvalues --    1.71400   1.71917   1.73422   1.74649   1.75039
 Alpha virt. eigenvalues --    1.75168   1.76570   1.77613   1.78275   1.78937
 Alpha virt. eigenvalues --    1.80059   1.80428   1.85315   1.86000   1.89399
 Alpha virt. eigenvalues --    1.90127   1.90902   1.91380   1.93222   1.94777
 Alpha virt. eigenvalues --    1.95251   1.95631   1.99318   2.00011   2.00670
 Alpha virt. eigenvalues --    2.01450   2.02455   2.05348   2.05680   2.06026
 Alpha virt. eigenvalues --    2.07479   2.08601   2.10404   2.11293   2.13948
 Alpha virt. eigenvalues --    2.14874   2.15502   2.18599   2.19719   2.20649
 Alpha virt. eigenvalues --    2.21076   2.21449   2.23225   2.25117   2.26026
 Alpha virt. eigenvalues --    2.27088   2.27602   2.28843   2.30913   2.34008
 Alpha virt. eigenvalues --    2.34560   2.37934   2.39877   2.42254   2.43624
 Alpha virt. eigenvalues --    2.46392   2.47764   2.48652   2.50060   2.50853
 Alpha virt. eigenvalues --    2.53099   2.53830   2.54587   2.55808   2.56159
 Alpha virt. eigenvalues --    2.58391   2.59787   2.61107   2.61822   2.62630
 Alpha virt. eigenvalues --    2.62963   2.64833   2.65414   2.67161   2.67345
 Alpha virt. eigenvalues --    2.67640   2.68762   2.69149   2.69838   2.70863
 Alpha virt. eigenvalues --    2.71146   2.72336   2.73729   2.74369   2.74771
 Alpha virt. eigenvalues --    2.75198   2.76626   2.77341   2.77691   2.78648
 Alpha virt. eigenvalues --    2.79489   2.80997   2.81578   2.82166   2.83341
 Alpha virt. eigenvalues --    2.83442   2.83950   2.85140   2.85847   2.86629
 Alpha virt. eigenvalues --    2.86999   2.87484   2.90661   2.91126   2.92835
 Alpha virt. eigenvalues --    2.95379   2.95652   2.98511   2.98580   3.00521
 Alpha virt. eigenvalues --    3.01840   3.02536   3.03666   3.04461   3.05151
 Alpha virt. eigenvalues --    3.06223   3.07423   3.08384   3.09423   3.10945
 Alpha virt. eigenvalues --    3.12481   3.13628   3.13868   3.14478   3.14694
 Alpha virt. eigenvalues --    3.14997   3.16484   3.17022   3.17962   3.18716
 Alpha virt. eigenvalues --    3.19126   3.20540   3.21233   3.23140   3.24089
 Alpha virt. eigenvalues --    3.25632   3.26506   3.26897   3.27506   3.28830
 Alpha virt. eigenvalues --    3.29364   3.30711   3.31873   3.32634   3.34811
 Alpha virt. eigenvalues --    3.35560   3.35824   3.36972   3.38358   3.38715
 Alpha virt. eigenvalues --    3.39070   3.40258   3.41356   3.42293   3.42724
 Alpha virt. eigenvalues --    3.43945   3.44579   3.45445   3.47011   3.48221
 Alpha virt. eigenvalues --    3.48536   3.49183   3.49961   3.50102   3.52324
 Alpha virt. eigenvalues --    3.54243   3.54838   3.56558   3.58134   3.58730
 Alpha virt. eigenvalues --    3.60231   3.60772   3.61875   3.62488   3.64731
 Alpha virt. eigenvalues --    3.67840   3.68794   3.73810   3.74664   3.75200
 Alpha virt. eigenvalues --    3.76652   3.79157   3.80752   3.82126   3.84292
 Alpha virt. eigenvalues --    3.86965   3.89263   3.91772   3.92845   3.93540
 Alpha virt. eigenvalues --    3.95474   3.97109   4.00369   4.00873   4.02439
 Alpha virt. eigenvalues --    4.03606   4.04580   4.07919   4.08865   4.10470
 Alpha virt. eigenvalues --    4.11837   4.12383   4.13811   4.14992   4.15465
 Alpha virt. eigenvalues --    4.17374   4.18463   4.19030   4.19402   4.20405
 Alpha virt. eigenvalues --    4.21531   4.22000   4.23412   4.25886   4.28132
 Alpha virt. eigenvalues --    4.29290   4.30686   4.34580   4.35545   4.37875
 Alpha virt. eigenvalues --    4.38304   4.41626   4.46392   4.48939   4.50595
 Alpha virt. eigenvalues --    4.55797   4.58223   4.58619   4.61476   4.61774
 Alpha virt. eigenvalues --    4.65646   4.67306   4.68192   4.68548   4.71281
 Alpha virt. eigenvalues --    4.77745   4.82525   4.84580   4.84994   4.86922
 Alpha virt. eigenvalues --    4.88263   4.88827   4.92268   4.94056   4.96104
 Alpha virt. eigenvalues --    5.02992   5.06071   5.07841   5.13159   5.16108
 Alpha virt. eigenvalues --    5.17334   5.21715   5.22568   5.24784   5.30433
 Alpha virt. eigenvalues --    5.33217   5.36826   5.39771   5.45313   5.48971
 Alpha virt. eigenvalues --    5.56330   5.56675   5.72340   5.73330  22.03159
 Alpha virt. eigenvalues --   22.40545  22.59391  22.66053  22.69521  22.79546
 Alpha virt. eigenvalues --   22.79746  22.81758  22.86146  22.92561  23.00729
 Alpha virt. eigenvalues --   23.28225  23.47467  32.09031
          Condensed to atoms (all electrons):
               1          2          3          4          5          6
     1  N    6.642739   0.239189  -0.068953   0.004286   0.000203  -0.000187
     2  C    0.239189   5.097403   0.324159  -0.077388   0.008666  -0.001032
     3  C   -0.068953   0.324159   5.110126   0.461416  -0.043572  -0.030198
     4  C    0.004286  -0.077388   0.461416   5.057904   0.476620  -0.060569
     5  C    0.000203   0.008666  -0.043572   0.476620   5.027249   0.511070
     6  C   -0.000187  -0.001032  -0.030198  -0.060569   0.511070   4.957859
     7  C   -0.000015  -0.000062  -0.001529   0.005120  -0.072213   0.267694
     8  C    0.000001   0.000005   0.000030  -0.001212   0.008761  -0.072098
     9  C    0.000000  -0.000000  -0.000023   0.000064  -0.000461   0.006020
    10  C    0.000000  -0.000000   0.000006  -0.000031  -0.000119  -0.001858
    11  C   -0.000000   0.000000  -0.000030   0.000032   0.002084   0.005086
    12  C   -0.000000   0.000008  -0.000206   0.002860  -0.004986  -0.074719
    13  C    0.001983   0.005329  -0.041570  -0.036739  -0.034717   0.490816
    14  C    0.005064  -0.077971   0.450246  -0.056038  -0.042811  -0.045664
    15  H    0.378880  -0.065148   0.001242   0.005550  -0.000704  -0.000029
    16  H    0.379426  -0.064794  -0.000017   0.001650   0.000351   0.000058
    17  H   -0.035834   0.435011  -0.070845  -0.010876   0.002045   0.000054
    18  H   -0.036455   0.433800  -0.068395   0.014578  -0.001382  -0.000185
    19  H    0.000938  -0.000952  -0.043145   0.400814  -0.022180   0.003826
    20  H    0.000025  -0.000151   0.001160  -0.012533   0.386515  -0.031498
    21  H    0.000000   0.000004  -0.000088  -0.000194   0.000319   0.004252
    22  H   -0.000000   0.000000  -0.000000   0.000000   0.000032  -0.000147
    23  H    0.000000  -0.000000   0.000000  -0.000000  -0.000006   0.000112
    24  H   -0.000000   0.000000  -0.000000   0.000002   0.000037  -0.000143
    25  H   -0.000000   0.000003  -0.000079   0.000930   0.002270   0.003572
    26  H    0.000019  -0.000111   0.001191   0.000623   0.004784  -0.032447
    27  H    0.000716  -0.000544  -0.043219   0.007492  -0.001288   0.004177
               7          8          9         10         11         12
     1  N   -0.000015   0.000001   0.000000   0.000000  -0.000000  -0.000000
     2  C   -0.000062   0.000005  -0.000000  -0.000000   0.000000   0.000008
     3  C   -0.001529   0.000030  -0.000023   0.000006  -0.000030  -0.000206
     4  C    0.005120  -0.001212   0.000064  -0.000031   0.000032   0.002860
     5  C   -0.072213   0.008761  -0.000461  -0.000119   0.002084  -0.004986
     6  C    0.267694  -0.072098   0.006020  -0.001858   0.005086  -0.074719
     7  C    4.967122   0.496552  -0.058781  -0.040732  -0.058039   0.503153
     8  C    0.496552   5.021119   0.507184  -0.039531  -0.050244  -0.025432
     9  C   -0.058781   0.507184   4.901963   0.521304  -0.038087  -0.050952
    10  C   -0.040732  -0.039531   0.521304   4.880616   0.521103  -0.038955
    11  C   -0.058039  -0.050244  -0.038087   0.521103   4.901255   0.506768
    12  C    0.503153  -0.025432  -0.050952  -0.038955   0.506768   5.017998
    13  C   -0.065344  -0.006541   0.001946  -0.000074  -0.000687   0.007456
    14  C    0.001617   0.003665   0.000020  -0.000042   0.000144  -0.000587
    15  H    0.000008  -0.000001  -0.000000   0.000000  -0.000000  -0.000000
    16  H   -0.000006   0.000002   0.000000  -0.000000   0.000000   0.000000
    17  H   -0.000020   0.000002   0.000000  -0.000000   0.000000   0.000001
    18  H   -0.000001  -0.000002  -0.000000   0.000000  -0.000000  -0.000000
    19  H   -0.000090   0.000035   0.000000  -0.000000  -0.000001   0.000011
    20  H    0.000786  -0.000098  -0.000067  -0.000112   0.000899   0.002640
    21  H   -0.037938   0.391929  -0.016939   0.001871   0.000108   0.004906
    22  H    0.005004  -0.031516   0.406670  -0.031934   0.003915  -0.000145
    23  H    0.000626   0.004439  -0.034517   0.410183  -0.034548   0.004487
    24  H    0.004901  -0.000126   0.003910  -0.031862   0.406780  -0.031585
    25  H   -0.036702   0.004985   0.000097   0.001806  -0.016383   0.390996
    26  H    0.001897   0.002121   0.000854  -0.000102  -0.000090  -0.000137
    27  H   -0.000188   0.000040   0.000002  -0.000000  -0.000000   0.000039
              13         14         15         16         17         18
     1  N    0.001983   0.005064   0.378880   0.379426  -0.035834  -0.036455
     2  C    0.005329  -0.077971  -0.065148  -0.064794   0.435011   0.433800
     3  C   -0.041570   0.450246   0.001242  -0.000017  -0.070845  -0.068395
     4  C   -0.036739  -0.056038   0.005550   0.001650  -0.010876   0.014578
     5  C   -0.034717  -0.042811  -0.000704   0.000351   0.002045  -0.001382
     6  C    0.490816  -0.045664  -0.000029   0.000058   0.000054  -0.000185
     7  C   -0.065344   0.001617   0.000008  -0.000006  -0.000020  -0.000001
     8  C   -0.006541   0.003665  -0.000001   0.000002   0.000002  -0.000002
     9  C    0.001946   0.000020  -0.000000   0.000000   0.000000  -0.000000
    10  C   -0.000074  -0.000042   0.000000  -0.000000  -0.000000   0.000000
    11  C   -0.000687   0.000144  -0.000000   0.000000   0.000000  -0.000000
    12  C    0.007456  -0.000587  -0.000000   0.000000   0.000001  -0.000000
    13  C    5.045473   0.464378   0.000410  -0.000479  -0.001399   0.002302
    14  C    0.464378   5.078812   0.001603   0.005962   0.015202  -0.011660
    15  H    0.000410   0.001603   0.487025  -0.037430  -0.007385   0.009021
    16  H   -0.000479   0.005962  -0.037430   0.486934   0.008938  -0.007382
    17  H   -0.001399   0.015202  -0.007385   0.008938   0.537021  -0.024337
    18  H    0.002302  -0.011660   0.009021  -0.007382  -0.024337   0.537129
    19  H   -0.001331   0.007853   0.001066   0.000038   0.000325   0.000363
    20  H    0.005293   0.000230  -0.000001   0.000002  -0.000009   0.000011
    21  H    0.002124   0.001221  -0.000000   0.000001   0.000000  -0.000000
    22  H    0.000040   0.000001   0.000000  -0.000000  -0.000000   0.000000
    23  H   -0.000006  -0.000000   0.000000  -0.000000  -0.000000   0.000000
    24  H    0.000033   0.000000  -0.000000  -0.000000  -0.000000  -0.000000
    25  H    0.000057  -0.000066  -0.000000  -0.000000   0.000000  -0.000000
    26  H    0.387035  -0.012739   0.000003  -0.000010   0.000003   0.000002
    27  H   -0.020891   0.399838   0.000040   0.001102   0.000386   0.000251
              19         20         21         22         23         24
     1  N    0.000938   0.000025   0.000000  -0.000000   0.000000  -0.000000
     2  C   -0.000952  -0.000151   0.000004   0.000000  -0.000000   0.000000
     3  C   -0.043145   0.001160  -0.000088  -0.000000   0.000000  -0.000000
     4  C    0.400814  -0.012533  -0.000194   0.000000  -0.000000   0.000002
     5  C   -0.022180   0.386515   0.000319   0.000032  -0.000006   0.000037
     6  C    0.003826  -0.031498   0.004252  -0.000147   0.000112  -0.000143
     7  C   -0.000090   0.000786  -0.037938   0.005004   0.000626   0.004901
     8  C    0.000035  -0.000098   0.391929  -0.031516   0.004439  -0.000126
     9  C    0.000000  -0.000067  -0.016939   0.406670  -0.034517   0.003910
    10  C   -0.000000  -0.000112   0.001871  -0.031934   0.410183  -0.031862
    11  C   -0.000001   0.000899   0.000108   0.003915  -0.034548   0.406780
    12  C    0.000011   0.002640   0.004906  -0.000145   0.004487  -0.031585
    13  C   -0.001331   0.005293   0.002124   0.000040  -0.000006   0.000033
    14  C    0.007853   0.000230   0.001221   0.000001  -0.000000   0.000000
    15  H    0.001066  -0.000001  -0.000000   0.000000   0.000000  -0.000000
    16  H    0.000038   0.000002   0.000001  -0.000000  -0.000000  -0.000000
    17  H    0.000325  -0.000009   0.000000  -0.000000  -0.000000  -0.000000
    18  H    0.000363   0.000011  -0.000000   0.000000   0.000000  -0.000000
    19  H    0.503830  -0.002971   0.000002   0.000000  -0.000000   0.000000
    20  H   -0.002971   0.486588   0.000035   0.000002  -0.000000   0.000058
    21  H    0.000002   0.000035   0.489789  -0.003502  -0.000272   0.000067
    22  H    0.000000   0.000002  -0.003502   0.511605  -0.003895  -0.000278
    23  H   -0.000000  -0.000000  -0.000272  -0.003895   0.513569  -0.003894
    24  H    0.000000   0.000058   0.000067  -0.000278  -0.003894   0.511444
    25  H    0.000044  -0.002637  -0.000251   0.000067  -0.000271  -0.003446
    26  H    0.000065  -0.000250  -0.002796   0.000061   0.000000   0.000002
    27  H   -0.000238   0.000065   0.000059   0.000000  -0.000000   0.000000
              25         26         27
     1  N   -0.000000   0.000019   0.000716
     2  C    0.000003  -0.000111  -0.000544
     3  C   -0.000079   0.001191  -0.043219
     4  C    0.000930   0.000623   0.007492
     5  C    0.002270   0.004784  -0.001288
     6  C    0.003572  -0.032447   0.004177
     7  C   -0.036702   0.001897  -0.000188
     8  C    0.004985   0.002121   0.000040
     9  C    0.000097   0.000854   0.000002
    10  C    0.001806  -0.000102  -0.000000
    11  C   -0.016383  -0.000090  -0.000000
    12  C    0.390996  -0.000137   0.000039
    13  C    0.000057   0.387035  -0.020891
    14  C   -0.000066  -0.012739   0.399838
    15  H   -0.000000   0.000003   0.000040
    16  H   -0.000000  -0.000010   0.001102
    17  H    0.000000   0.000003   0.000386
    18  H   -0.000000   0.000002   0.000251
    19  H    0.000044   0.000065  -0.000238
    20  H   -0.002637  -0.000250   0.000065
    21  H   -0.000251  -0.002796   0.000059
    22  H    0.000067   0.000061   0.000000
    23  H   -0.000271   0.000000  -0.000000
    24  H   -0.003446   0.000002   0.000000
    25  H    0.489348   0.000027   0.000002
    26  H    0.000027   0.485872  -0.003072
    27  H    0.000002  -0.003072   0.503358
 Mulliken charges:
               1
     1  N   -0.512027
     2  C   -0.255423
     3  C    0.062291
     4  C   -0.184362
     5  C   -0.206561
     6  C    0.096177
     7  C    0.117179
     8  C   -0.214066
     9  C   -0.150209
    10  C   -0.151535
    11  C   -0.150066
    12  C   -0.213615
    13  C   -0.204898
    14  C   -0.188278
    15  H    0.225850
    16  H    0.225653
    17  H    0.151716
    18  H    0.152343
    19  H    0.151699
    20  H    0.166018
    21  H    0.165294
    22  H    0.144020
    23  H    0.143996
    24  H    0.144103
    25  H    0.165634
    26  H    0.167195
    27  H    0.151873
 Sum of Mulliken charges =  -0.00000
 Mulliken charges with hydrogens summed into heavy atoms:
               1
     1  N   -0.060524
     2  C    0.048636
     3  C    0.062291
     4  C   -0.032663
     5  C   -0.040543
     6  C    0.096177
     7  C    0.117179
     8  C   -0.048772
     9  C   -0.006189
    10  C   -0.007539
    11  C   -0.005963
    12  C   -0.047982
    13  C   -0.037704
    14  C   -0.036405
 Electronic spatial extent (au):  <R**2>=           3841.8919
 Charge=              0.0000 electrons
 Dipole moment (field-independent basis, Debye):
    X=              1.3333    Y=             -0.0767    Z=              0.1839  Tot=              1.3481
 Quadrupole moment (field-independent basis, Debye-Ang):
   XX=            -88.8827   YY=            -74.4822   ZZ=            -86.4903
   XY=             -0.2342   XZ=              1.4075   YZ=              0.4912
 Traceless Quadrupole moment (field-independent basis, Debye-Ang):
   XX=             -5.5976   YY=              8.8029   ZZ=             -3.2052
   XY=             -0.2342   XZ=              1.4075   YZ=              0.4912
 Octapole moment (field-independent basis, Debye-Ang**2):
  XXX=            125.8229  YYY=             -2.2094  ZZZ=              6.6754  XYY=             -4.8094
  XXY=              5.2514  XXZ=             -8.9358  XZZ=            -18.9358  YZZ=             -2.2097
  YYZ=              2.4356  XYZ=            -10.5831
 Hexadecapole moment (field-independent basis, Debye-Ang**3):
 XXXX=          -5033.4246 YYYY=           -535.0774 ZZZZ=           -221.2966 XXXY=            -33.1837
 XXXZ=            112.4478 YYYX=              8.9465 YYYZ=             -1.7814 ZZZX=            -30.0192
 ZZZY=              1.9124 XXYY=           -766.0641 XXZZ=           -812.6825 YYZZ=           -130.5583
 XXYZ=            -12.8856 YYXZ=             -6.3843 ZZXY=              3.4687
 N-N= 7.805305531694D+02 E-N=-2.855087884268D+03  KE= 5.548573001897D+02
 Unable to Open any file for archive entry.
 1\1\GINC-NOTCH318\SP\RM062X\def2TZVP\C13H13N1\U6032257\21-Feb-2022\0\\
 # M062X/def2tzvp int=(grid=ultrafine) nmr=giao guess=read geom=check\\
 N4.xyz\\0,1\N,0,4.690155435,0.3892961522,0.5556787329\C,0,3.9533140602
 ,-0.2343245858,-0.5570758759\C,0,2.4448872367,-0.2005296231,-0.4220423
 369\C,0,1.7571150143,-1.2279915413,0.2343969273\C,0,0.3799987617,-1.16
 39629295,0.4251211349\C,0,-0.3623977322,-0.0670872465,-0.0394988808\C,
 0,-1.8288434478,0.0021559012,0.1584860273\C,0,-2.4601026896,1.22380328
 04,0.4416031392\C,0,-3.8390974508,1.2901195421,0.6270770846\C,0,-4.616
 7539574,0.1351044563,0.5358098014\C,0,-4.0025666948,-1.0862280975,0.25
 59919957\C,0,-2.6238442718,-1.1514755194,0.0681664556\C,0,0.3273202204
 ,0.9600217494,-0.702918704\C,0,1.7046971178,0.8921565635,-0.8893127265
 \H,0,4.4151618978,-0.0665563615,1.4244304512\H,0,4.3787921469,1.354638
 9674,0.6521320107\H,0,4.2950928397,-1.2717602284,-0.6409470579\H,0,4.2
 543598061,0.2737365401,-1.4798220652\H,0,2.310282372,-2.0875325585,0.6
 058130368\H,0,-0.1267616714,-1.9624304794,0.9580155162\H,0,-1.85900272
 75,2.1220398042,0.5418672922\H,0,-4.3060067884,2.24417328,0.8527793753
 \H,0,-5.6913290192,0.1863220405,0.6812058977\H,0,-4.5996575319,-1.9895
 031334,0.1739477407\H,0,-2.1577539251,-2.1004672717,-0.1773762687\H,0,
 -0.2286870608,1.8022767349,-1.1026524048\H,0,2.21402806,1.6938045639,-
 1.419176299\\Version=ES64L-G16RevC.01\State=1-A\HF=-557.9249157\RMSD=2
 .700e-09\Dipole=-0.5179101,0.0430398,0.105965\Quadrupole=-4.3037978,6.
 3678324,-2.0640347,-0.2729629,-0.8840667,-1.2854177\PG=C01 [X(C13H13N1
 )]\\@
 The archive entry for this job was punched.


 Everywhere is walking distance if you have the time.
                                    -- Steven Wright
 Job cpu time:       0 days  0 hours 49 minutes 37.2 seconds.
 Elapsed time:       0 days  0 hours  0 minutes 55.2 seconds.
 File lengths (MBytes):  RWF=    149 Int=      0 D2E=      0 Chk=     25 Scr=      1
 Normal termination of Gaussian 16 at Mon Feb 21 19:34:37 2022.
