 Entering Gaussian System, Link 0=/uufs/chpc.utah.edu/sys/installdir/gaussian16/C01/AVX2/g16/g16
 Input=N4_conf-2.com
 Output=N4_conf-2.log
 Initial command:
 /uufs/chpc.utah.edu/sys/installdir/gaussian16/C01/AVX2/g16/l1.exe "/scratch/local/u6032257/4038753/notchpeak.peaks/Gau-44116.inp" -scrdir="/scratch/local/u6032257/4038753/notchpeak.peaks/"
 Entering Link 1 = /uufs/chpc.utah.edu/sys/installdir/gaussian16/C01/AVX2/g16/l1.exe PID=     44118.
  
 Copyright (c) 1988-2019, Gaussian, Inc.  All Rights Reserved.
  
 This is part of the Gaussian(R) 16 program.  It is based on
 the Gaussian(R) 09 system (copyright 2009, Gaussian, Inc.),
 the Gaussian(R) 03 system (copyright 2003, Gaussian, Inc.),
 the Gaussian(R) 98 system (copyright 1998, Gaussian, Inc.),
 the Gaussian(R) 94 system (copyright 1995, Gaussian, Inc.),
 the Gaussian 92(TM) system (copyright 1992, Gaussian, Inc.),
 the Gaussian 90(TM) system (copyright 1990, Gaussian, Inc.),
 the Gaussian 88(TM) system (copyright 1988, Gaussian, Inc.),
 the Gaussian 86(TM) system (copyright 1986, Carnegie Mellon
 University), and the Gaussian 82(TM) system (copyright 1983,
 Carnegie Mellon University). Gaussian is a federally registered
 trademark of Gaussian, Inc.
  
 This software contains proprietary and confidential information,
 including trade secrets, belonging to Gaussian, Inc.
  
 This software is provided under written license and may be
 used, copied, transmitted, or stored only in accord with that
 written license.
  
 The following legend is applicable only to US Government
 contracts under FAR:
  
                    RESTRICTED RIGHTS LEGEND
  
 Use, reproduction and disclosure by the US Government is
 subject to restrictions as set forth in subparagraphs (a)
 and (c) of the Commercial Computer Software - Restricted
 Rights clause in FAR 52.227-19.
  
 Gaussian, Inc.
 340 Quinnipiac St., Bldg. 40, Wallingford CT 06492
  
  
 ---------------------------------------------------------------
 Warning -- This program may not be used in any manner that
 competes with the business of Gaussian, Inc. or will provide
 assistance to any competitor of Gaussian, Inc.  The licensee
 of this program is prohibited from giving any competitor of
 Gaussian, Inc. access to this program.  By using this program,
 the user acknowledges that Gaussian, Inc. is engaged in the
 business of creating and licensing software in the field of
 computational chemistry and represents and warrants to the
 licensee that it is not a competitor of Gaussian, Inc. and that
 it will not use this program in any manner prohibited above.
 ---------------------------------------------------------------
  

 Cite this work as:
 Gaussian 16, Revision C.01,
 M. J. Frisch, G. W. Trucks, H. B. Schlegel, G. E. Scuseria, 
 M. A. Robb, J. R. Cheeseman, G. Scalmani, V. Barone, 
 G. A. Petersson, H. Nakatsuji, X. Li, M. Caricato, A. V. Marenich, 
 J. Bloino, B. G. Janesko, R. Gomperts, B. Mennucci, H. P. Hratchian, 
 J. V. Ortiz, A. F. Izmaylov, J. L. Sonnenberg, D. Williams-Young, 
 F. Ding, F. Lipparini, F. Egidi, J. Goings, B. Peng, A. Petrone, 
 T. Henderson, D. Ranasinghe, V. G. Zakrzewski, J. Gao, N. Rega, 
 G. Zheng, W. Liang, M. Hada, M. Ehara, K. Toyota, R. Fukuda, 
 J. Hasegawa, M. Ishida, T. Nakajima, Y. Honda, O. Kitao, H. Nakai, 
 T. Vreven, K. Throssell, J. A. Montgomery, Jr., J. E. Peralta, 
 F. Ogliaro, M. J. Bearpark, J. J. Heyd, E. N. Brothers, K. N. Kudin, 
 V. N. Staroverov, T. A. Keith, R. Kobayashi, J. Normand, 
 K. Raghavachari, A. P. Rendell, J. C. Burant, S. S. Iyengar, 
 J. Tomasi, M. Cossi, J. M. Millam, M. Klene, C. Adamo, R. Cammi, 
 J. W. Ochterski, R. L. Martin, K. Morokuma, O. Farkas, 
 J. B. Foresman, and D. J. Fox, Gaussian, Inc., Wallingford CT, 2019.
 
 ******************************************
 Gaussian 16:  ES64L-G16RevC.01  3-Jul-2019
                21-Feb-2022 
 ******************************************
 %NProcShared=64
 Will use up to   64 processors via shared memory.
 %mem=16GB
 %chk=N4_conf-2.chk
 ----------------------------------------------------------------------
 # B3LYP/6-31G(d,p) empiricaldispersion=GD3BJ int=(grid=ultrafine) opt 
 freq=noraman
 ----------------------------------------------------------------------
 1/18=20,19=15,26=4,38=1/1,3;
 2/9=110,12=2,17=6,18=5,40=1/2;
 3/5=1,6=6,7=101,11=2,25=1,30=1,71=1,74=-5,75=-5,124=41/1,2,3;
 4//1;
 5/5=2,38=5/2;
 6/7=2,8=2,9=2,10=2,28=1/1;
 7//1,2,3,16;
 1/18=20,19=15,26=4/3(2);
 2/9=110/2;
 99//99;
 2/9=110/2;
 3/5=1,6=6,7=101,11=2,25=1,30=1,71=1,74=-5,75=-5,124=41/1,2,3;
 4/5=5,16=3,69=1/1;
 5/5=2,38=5/2;
 7//1,2,3,16;
 1/18=20,19=15,26=4/3(-5);
 2/9=110/2;
 6/7=2,8=2,9=2,10=2,19=2,28=1/1;
 99/9=1/99;
 ------
 N4.xyz
 ------
 Symbolic Z-matrix:
 Charge =  0 Multiplicity = 1
 N                     4.6826   -0.9893   -0.0221 
 C                     3.9745    0.2311   -0.3862 
 C                     2.4573    0.1386   -0.2264 
 C                     1.7823   -1.086    -0.1755 
 C                     0.3962   -1.1193   -0.0459 
 C                    -0.3461    0.0655    0.0261 
 C                    -1.8323    0.0274    0.1655 
 C                    -2.4498   -0.9388    0.9713 
 C                    -3.8358   -0.9764    1.1043 
 C                    -4.6181   -0.0446    0.4279 
 C                    -4.0245    0.9226   -0.3783 
 C                    -2.638     0.9567   -0.5066 
 C                     0.3359    1.2866   -0.0395 
 C                     1.7222    1.3238   -0.1682 
 H                     5.6675   -0.896    -0.2277 
 H                     4.6186   -1.1194    0.9784 
 H                     4.192     0.4739   -1.4284 
 H                     4.3523    1.0546    0.2236 
 H                     2.331    -2.014    -0.2465 
 H                    -0.1022   -2.0768   -0.0204 
 H                    -1.8519   -1.6587    1.5106 
 H                    -4.3002   -1.7237    1.7313 
 H                    -5.6936   -0.0726    0.529 
 H                    -4.6356    1.6413   -0.9048 
 H                    -2.1893    1.7025   -1.146 
 H                    -0.2092    2.2167    0.0219 
 H                     2.2235    2.2793   -0.2173 
 

 GradGradGradGradGradGradGradGradGradGradGradGradGradGradGradGradGradGrad
 Berny optimization.
 Initialization pass.
                           ----------------------------
                           !    Initial Parameters    !
                           ! (Angstroms and Degrees)  !
 --------------------------                            --------------------------
 ! Name  Definition              Value          Derivative Info.                !
 --------------------------------------------------------------------------------
 ! R1    R(1,2)                  1.4572         estimate D2E/DX2                !
 ! R2    R(1,15)                 1.0104         estimate D2E/DX2                !
 ! R3    R(1,16)                 1.011          estimate D2E/DX2                !
 ! R4    R(2,3)                  1.5284         estimate D2E/DX2                !
 ! R5    R(2,17)                 1.092          estimate D2E/DX2                !
 ! R6    R(2,18)                 1.0921         estimate D2E/DX2                !
 ! R7    R(3,4)                  1.3992         estimate D2E/DX2                !
 ! R8    R(3,14)                 1.3959         estimate D2E/DX2                !
 ! R9    R(4,5)                  1.3925         estimate D2E/DX2                !
 ! R10   R(4,19)                 1.0804         estimate D2E/DX2                !
 ! R11   R(5,6)                  1.4            estimate D2E/DX2                !
 ! R12   R(5,20)                 1.0797         estimate D2E/DX2                !
 ! R13   R(6,7)                  1.4932         estimate D2E/DX2                !
 ! R14   R(6,13)                 1.4002         estimate D2E/DX2                !
 ! R15   R(7,8)                  1.4015         estimate D2E/DX2                !
 ! R16   R(7,12)                 1.4016         estimate D2E/DX2                !
 ! R17   R(8,9)                  1.3929         estimate D2E/DX2                !
 ! R18   R(8,21)                 1.0801         estimate D2E/DX2                !
 ! R19   R(9,10)                 1.392          estimate D2E/DX2                !
 ! R20   R(9,22)                 1.0804         estimate D2E/DX2                !
 ! R21   R(10,11)                1.392          estimate D2E/DX2                !
 ! R22   R(10,23)                1.0806         estimate D2E/DX2                !
 ! R23   R(11,12)                1.3928         estimate D2E/DX2                !
 ! R24   R(11,24)                1.0804         estimate D2E/DX2                !
 ! R25   R(12,25)                1.08           estimate D2E/DX2                !
 ! R26   R(13,14)                1.3928         estimate D2E/DX2                !
 ! R27   R(13,26)                1.0798         estimate D2E/DX2                !
 ! R28   R(14,27)                1.0801         estimate D2E/DX2                !
 ! A1    A(2,1,15)             110.2112         estimate D2E/DX2                !
 ! A2    A(2,1,16)             108.9232         estimate D2E/DX2                !
 ! A3    A(15,1,16)            105.9596         estimate D2E/DX2                !
 ! A4    A(1,2,3)              113.9269         estimate D2E/DX2                !
 ! A5    A(1,2,17)             109.1416         estimate D2E/DX2                !
 ! A6    A(1,2,18)             108.8986         estimate D2E/DX2                !
 ! A7    A(3,2,17)             108.1173         estimate D2E/DX2                !
 ! A8    A(3,2,18)             109.3084         estimate D2E/DX2                !
 ! A9    A(17,2,18)            107.2381         estimate D2E/DX2                !
 ! A10   A(2,3,4)              122.3876         estimate D2E/DX2                !
 ! A11   A(2,3,14)             118.4075         estimate D2E/DX2                !
 ! A12   A(4,3,14)             119.179          estimate D2E/DX2                !
 ! A13   A(3,4,5)              120.2974         estimate D2E/DX2                !
 ! A14   A(3,4,19)             120.2877         estimate D2E/DX2                !
 ! A15   A(5,4,19)             119.412          estimate D2E/DX2                !
 ! A16   A(4,5,6)              120.8183         estimate D2E/DX2                !
 ! A17   A(4,5,20)             118.8721         estimate D2E/DX2                !
 ! A18   A(6,5,20)             120.2995         estimate D2E/DX2                !
 ! A19   A(5,6,7)              120.7265         estimate D2E/DX2                !
 ! A20   A(5,6,13)             118.5149         estimate D2E/DX2                !
 ! A21   A(7,6,13)             120.7584         estimate D2E/DX2                !
 ! A22   A(6,7,8)              120.6507         estimate D2E/DX2                !
 ! A23   A(6,7,12)             120.6946         estimate D2E/DX2                !
 ! A24   A(8,7,12)             118.6547         estimate D2E/DX2                !
 ! A25   A(7,8,9)              120.7932         estimate D2E/DX2                !
 ! A26   A(7,8,21)             120.178          estimate D2E/DX2                !
 ! A27   A(9,8,21)             119.0233         estimate D2E/DX2                !
 ! A28   A(8,9,10)             119.6528         estimate D2E/DX2                !
 ! A29   A(8,9,22)             120.1197         estimate D2E/DX2                !
 ! A30   A(10,9,22)            120.2274         estimate D2E/DX2                !
 ! A31   A(9,10,11)            120.4547         estimate D2E/DX2                !
 ! A32   A(9,10,23)            119.7702         estimate D2E/DX2                !
 ! A33   A(11,10,23)           119.775          estimate D2E/DX2                !
 ! A34   A(10,11,12)           119.6591         estimate D2E/DX2                !
 ! A35   A(10,11,24)           120.2152         estimate D2E/DX2                !
 ! A36   A(12,11,24)           120.1253         estimate D2E/DX2                !
 ! A37   A(7,12,11)            120.7854         estimate D2E/DX2                !
 ! A38   A(7,12,25)            120.1942         estimate D2E/DX2                !
 ! A39   A(11,12,25)           119.0136         estimate D2E/DX2                !
 ! A40   A(6,13,14)            120.8267         estimate D2E/DX2                !
 ! A41   A(6,13,26)            120.1749         estimate D2E/DX2                !
 ! A42   A(14,13,26)           118.994          estimate D2E/DX2                !
 ! A43   A(3,14,13)            120.355          estimate D2E/DX2                !
 ! A44   A(3,14,27)            120.3178         estimate D2E/DX2                !
 ! A45   A(13,14,27)           119.3264         estimate D2E/DX2                !
 ! D1    D(15,1,2,3)           174.8537         estimate D2E/DX2                !
 ! D2    D(15,1,2,17)           53.9154         estimate D2E/DX2                !
 ! D3    D(15,1,2,18)          -62.8532         estimate D2E/DX2                !
 ! D4    D(16,1,2,3)           -69.3003         estimate D2E/DX2                !
 ! D5    D(16,1,2,17)          169.7614         estimate D2E/DX2                !
 ! D6    D(16,1,2,18)           52.9928         estimate D2E/DX2                !
 ! D7    D(1,2,3,4)            -20.0935         estimate D2E/DX2                !
 ! D8    D(1,2,3,14)           161.7726         estimate D2E/DX2                !
 ! D9    D(17,2,3,4)           101.4144         estimate D2E/DX2                !
 ! D10   D(17,2,3,14)          -76.7194         estimate D2E/DX2                !
 ! D11   D(18,2,3,4)          -142.1611         estimate D2E/DX2                !
 ! D12   D(18,2,3,14)           39.7051         estimate D2E/DX2                !
 ! D13   D(2,3,4,5)           -179.1819         estimate D2E/DX2                !
 ! D14   D(2,3,4,19)             0.1953         estimate D2E/DX2                !
 ! D15   D(14,3,4,5)            -1.062          estimate D2E/DX2                !
 ! D16   D(14,3,4,19)          178.3153         estimate D2E/DX2                !
 ! D17   D(2,3,14,13)          179.2142         estimate D2E/DX2                !
 ! D18   D(2,3,14,27)           -1.1096         estimate D2E/DX2                !
 ! D19   D(4,3,14,13)            1.0191         estimate D2E/DX2                !
 ! D20   D(4,3,14,27)         -179.3047         estimate D2E/DX2                !
 ! D21   D(3,4,5,6)              0.4535         estimate D2E/DX2                !
 ! D22   D(3,4,5,20)           179.3035         estimate D2E/DX2                !
 ! D23   D(19,4,5,6)          -178.9292         estimate D2E/DX2                !
 ! D24   D(19,4,5,20)           -0.0792         estimate D2E/DX2                !
 ! D25   D(4,5,6,7)           -179.9802         estimate D2E/DX2                !
 ! D26   D(4,5,6,13)             0.2055         estimate D2E/DX2                !
 ! D27   D(20,5,6,7)             1.1862         estimate D2E/DX2                !
 ! D28   D(20,5,6,13)         -178.6281         estimate D2E/DX2                !
 ! D29   D(5,6,7,8)             38.2525         estimate D2E/DX2                !
 ! D30   D(5,6,7,12)          -141.7431         estimate D2E/DX2                !
 ! D31   D(13,6,7,8)          -141.9374         estimate D2E/DX2                !
 ! D32   D(13,6,7,12)           38.067          estimate D2E/DX2                !
 ! D33   D(5,6,13,14)           -0.2493         estimate D2E/DX2                !
 ! D34   D(5,6,13,26)         -179.4799         estimate D2E/DX2                !
 ! D35   D(7,6,13,14)          179.9365         estimate D2E/DX2                !
 ! D36   D(7,6,13,26)            0.7059         estimate D2E/DX2                !
 ! D37   D(6,7,8,9)            179.9485         estimate D2E/DX2                !
 ! D38   D(6,7,8,21)             0.809          estimate D2E/DX2                !
 ! D39   D(12,7,8,9)            -0.0558         estimate D2E/DX2                !
 ! D40   D(12,7,8,21)         -179.1953         estimate D2E/DX2                !
 ! D41   D(6,7,12,11)          179.977          estimate D2E/DX2                !
 ! D42   D(6,7,12,25)            0.9331         estimate D2E/DX2                !
 ! D43   D(8,7,12,11)           -0.0187         estimate D2E/DX2                !
 ! D44   D(8,7,12,25)         -179.0626         estimate D2E/DX2                !
 ! D45   D(7,8,9,10)             0.0786         estimate D2E/DX2                !
 ! D46   D(7,8,9,22)          -179.7717         estimate D2E/DX2                !
 ! D47   D(21,8,9,10)          179.2279         estimate D2E/DX2                !
 ! D48   D(21,8,9,22)           -0.6224         estimate D2E/DX2                !
 ! D49   D(8,9,10,11)           -0.0267         estimate D2E/DX2                !
 ! D50   D(8,9,10,23)          179.9437         estimate D2E/DX2                !
 ! D51   D(22,9,10,11)         179.8234         estimate D2E/DX2                !
 ! D52   D(22,9,10,23)          -0.2063         estimate D2E/DX2                !
 ! D53   D(9,10,11,12)          -0.0468         estimate D2E/DX2                !
 ! D54   D(9,10,11,24)         179.742          estimate D2E/DX2                !
 ! D55   D(23,10,11,12)        179.9829         estimate D2E/DX2                !
 ! D56   D(23,10,11,24)         -0.2283         estimate D2E/DX2                !
 ! D57   D(10,11,12,7)           0.0696         estimate D2E/DX2                !
 ! D58   D(10,11,12,25)        179.1247         estimate D2E/DX2                !
 ! D59   D(24,11,12,7)        -179.7193         estimate D2E/DX2                !
 ! D60   D(24,11,12,25)         -0.6643         estimate D2E/DX2                !
 ! D61   D(6,13,14,3)           -0.3673         estimate D2E/DX2                !
 ! D62   D(6,13,14,27)         179.9533         estimate D2E/DX2                !
 ! D63   D(26,13,14,3)         178.8722         estimate D2E/DX2                !
 ! D64   D(26,13,14,27)         -0.8072         estimate D2E/DX2                !
 --------------------------------------------------------------------------------
 Trust Radius=3.00D-01 FncErr=1.00D-07 GrdErr=1.00D-06 EigMax=2.50D+02 EigMin=1.00D-04
 Number of steps in this run=    147 maximum allowed number of steps=    162.
 GradGradGradGradGradGradGradGradGradGradGradGradGradGradGradGradGradGrad

                          Input orientation:                          
 ---------------------------------------------------------------------
 Center     Atomic      Atomic             Coordinates (Angstroms)
 Number     Number       Type             X           Y           Z
 ---------------------------------------------------------------------
      1          7           0        4.682600   -0.989300   -0.022100
      2          6           0        3.974500    0.231100   -0.386200
      3          6           0        2.457300    0.138600   -0.226400
      4          6           0        1.782300   -1.086000   -0.175500
      5          6           0        0.396200   -1.119300   -0.045900
      6          6           0       -0.346100    0.065500    0.026100
      7          6           0       -1.832300    0.027400    0.165500
      8          6           0       -2.449800   -0.938800    0.971300
      9          6           0       -3.835800   -0.976400    1.104300
     10          6           0       -4.618100   -0.044600    0.427900
     11          6           0       -4.024500    0.922600   -0.378300
     12          6           0       -2.638000    0.956700   -0.506600
     13          6           0        0.335900    1.286600   -0.039500
     14          6           0        1.722200    1.323800   -0.168200
     15          1           0        5.667500   -0.896000   -0.227700
     16          1           0        4.618600   -1.119400    0.978400
     17          1           0        4.192000    0.473900   -1.428400
     18          1           0        4.352300    1.054600    0.223600
     19          1           0        2.331000   -2.014000   -0.246500
     20          1           0       -0.102200   -2.076800   -0.020400
     21          1           0       -1.851900   -1.658700    1.510600
     22          1           0       -4.300200   -1.723700    1.731300
     23          1           0       -5.693600   -0.072600    0.529000
     24          1           0       -4.635600    1.641300   -0.904800
     25          1           0       -2.189300    1.702500   -1.146000
     26          1           0       -0.209200    2.216700    0.021900
     27          1           0        2.223500    2.279300   -0.217300
 ---------------------------------------------------------------------
                    Distance matrix (angstroms):
                    1          2          3          4          5
     1  N    0.000000
     2  C    1.457172   0.000000
     3  C    2.503169   1.528394   0.000000
     4  C    2.905963   2.566104   1.399236   0.000000
     5  C    4.288437   3.839742   2.421369   1.392544   0.000000
     6  C    5.138361   4.343386   2.815697   2.428308   1.399980
     7  C    6.596423   5.836505   4.308900   3.797535   2.515119
     8  C    7.201425   6.669565   5.164776   4.387196   3.027704
     9  C    8.592560   8.042415   6.528177   5.763068   4.387847
    10  C    9.359379   8.635482   7.107950   6.512582   5.150017
    11  C    8.921650   8.028838   6.530809   6.147725   4.880823
    12  C    7.590312   6.653281   5.168160   4.880707   3.705184
    13  C    4.906508   3.804430   2.419333   2.782050   2.406664
    14  C    3.759753   2.512842   1.395872   2.410560   2.782440
    15  H    1.010448   2.040031   3.372800   3.890193   5.279159
    16  H    1.010951   2.025055   2.775847   3.062221   4.344865
    17  H    2.087899   1.091989   2.136917   3.132044   4.342544
    18  H    2.084945   1.092127   2.152343   3.368434   4.522079
    19  H    2.574954   2.785872   2.156396   1.080415   2.141070
    20  H    4.906829   4.698904   3.391382   2.134732   1.079750
    21  H    6.745143   6.412186   4.981632   4.047015   2.787041
    22  H    9.181746   8.762175   7.277675   6.406197   5.057659
    23  H   10.431183   9.716068   8.188553   7.577096   6.205784
    24  H    9.722555   8.740219   7.282003   7.011382   5.803243
    25  H    7.465383   6.382378   4.988220   4.948859   3.982158
    26  H    5.848938   4.648924   3.389746   3.861718   3.391165
    27  H    4.095000   2.699935   2.153449   3.394355   3.862497
                    6          7          8          9         10
     6  C    0.000000
     7  C    1.493209   0.000000
     8  C    2.515467   1.401486   0.000000
     9  C    3.798168   2.429603   1.392874   0.000000
    10  C    4.292266   2.799057   2.407572   1.392035   0.000000
    11  C    3.798524   2.429577   2.786738   2.416591   1.392047
    12  C    2.516111   1.401595   2.410918   2.786862   2.407631
    13  C    1.400183   2.515691   3.705974   4.881857   5.150987
    14  C    2.428773   3.798220   4.880922   6.148296   6.513621
    15  H    6.095267   7.566655   8.205485   9.596531  10.341579
    16  H    5.192216   6.602277   7.070710   8.456547   9.315303
    17  H    4.782961   6.247565   7.201930   8.541868   9.018456
    18  H    4.805444   6.269593   7.127500   8.482074   9.039804
    19  H    3.400808   4.655118   5.049271   6.397710   7.254195
    20  H    2.156641   2.730469   2.791010   4.051617   4.972340
    21  H    2.728377   2.156991   1.080086   2.136931   3.380743
    22  H    4.663030   3.407141   2.148871   1.080395   2.149253
    23  H    5.372870   3.879661   3.386469   2.144585   1.080604
    24  H    4.663639   3.407155   3.867090   3.395367   2.149105
    25  H    2.729647   2.157184   3.395186   3.866693   3.380620
    26  H    2.155556   2.729122   3.984825   4.951738   4.971591
    27  H    3.400441   4.654794   5.797299   7.004379   7.254260
                   11         12         13         14         15
    11  C    0.000000
    12  C    1.392841   0.000000
    13  C    4.388664   3.028382   0.000000
    14  C    5.764518   4.388692   1.392758   0.000000
    15  H    9.862294   8.514201   5.764124   4.527300   0.000000
    16  H    8.984073   7.692442   5.016620   3.958920   1.613932
    17  H    8.295476   6.908814   4.178401   2.900060   2.344228
    18  H    8.399434   7.029016   4.031689   2.672714   2.395467
    19  H    7.002383   5.795142   3.862283   3.393770   3.518879
    20  H    4.950649   3.983566   3.391866   3.861912   5.892936
    21  H    3.866684   3.395198   3.982973   4.948522   7.755306
    22  H    3.395486   3.867253   5.804400   7.011751  10.192046
    23  H    2.144647   3.386535   6.206890   7.578266  11.416005
    24  H    1.080359   2.148871   5.058692   6.408198  10.632508
    25  H    2.136719   1.079992   2.788180   4.049610   8.326151
    26  H    4.048626   2.786751   1.079810   2.136285   6.654833
    27  H    6.395628   5.046499   2.140117   1.080136   4.684418
                   16         17         18         19         20
    16  H    0.000000
    17  H    2.917752   0.000000
    18  H    2.316660   1.758412   0.000000
    19  H    2.744777   3.324132   3.704451   0.000000
    20  H    4.919367   5.189286   5.450484   2.444489   0.000000
    21  H    6.514710   7.050846   6.892783   4.550856   2.362249
    22  H    8.970899   9.323659   9.211833   6.925950   4.562492
    23  H   10.374932  10.092332  10.113553   8.292445   5.965099
    24  H    9.839112   8.919838   9.077436   7.894814   5.929431
    25  H    7.669661   6.504629   6.714768   5.920691   4.461622
    26  H    5.945764   4.950887   4.711522   4.942011   4.295041
    27  H    4.326357   2.932784   2.495210   4.294745   4.941989
                   21         22         23         24         25
    21  H    0.000000
    22  H    2.459086   0.000000
    23  H    4.270587   2.472493   0.000000
    24  H    4.947034   4.287743   2.472367   0.000000
    25  H    4.297561   4.947080   4.270448   2.458924   0.000000
    26  H    4.464685   5.931701   5.964620   4.558824   2.355671
    27  H    5.924725   7.898083   8.292700   6.922930   4.546206
                   26         27
    26  H    0.000000
    27  H    2.445233   0.000000
 Stoichiometry    C13H13N
 Framework group  C1[X(C13H13N)]
 Deg. of freedom    75
 Full point group                 C1      NOp   1
 Largest Abelian subgroup         C1      NOp   1
 Largest concise Abelian subgroup C1      NOp   1
                         Standard orientation:                         
 ---------------------------------------------------------------------
 Center     Atomic      Atomic             Coordinates (Angstroms)
 Number     Number       Type             X           Y           Z
 ---------------------------------------------------------------------
      1          7           0        4.880478   -0.851624   -0.033941
      2          6           0        4.161126    0.415472   -0.015175
      3          6           0        2.640186    0.264792   -0.010244
      4          6           0        2.001883   -0.908281   -0.427772
      5          6           0        0.611886   -0.992212   -0.421300
      6          6           0       -0.170259    0.092905   -0.008122
      7          6           0       -1.660593    0.000511   -0.001580
      8          6           0       -2.301222   -1.185905    0.380747
      9          6           0       -3.691217   -1.275035    0.388960
     10          6           0       -4.454199   -0.173600    0.011519
     11          6           0       -3.837407    1.013745   -0.372635
     12          6           0       -2.447124    1.097988   -0.377587
     13          6           0        0.476138    1.267729    0.394957
     14          6           0        1.866151    1.355022    0.390665
     15          1           0        5.873728   -0.687901   -0.121422
     16          1           0        4.752352   -1.314571    0.855601
     17          1           0        4.441646    0.999527   -0.894167
     18          1           0        4.470452    0.984859    0.863948
     19          1           0        2.582883   -1.753439   -0.767544
     20          1           0        0.143073   -1.904381   -0.758970
     21          1           0       -1.719371   -2.042589    0.687550
     22          1           0       -4.173800   -2.193857    0.689183
     23          1           0       -5.532692   -0.240941    0.016316
     24          1           0       -4.433257    1.864866   -0.668827
     25          1           0       -1.979303    2.019519   -0.691124
     26          1           0       -0.100682    2.118147    0.726706
     27          1           0        2.339531    2.273353    0.705740
 ---------------------------------------------------------------------
 Rotational constants (GHZ):           2.5453592           0.3016625           0.2759972
 Standard basis: 6-31G(d,p) (6D, 7F)
 There are   275 symmetry adapted cartesian basis functions of A   symmetry.
 There are   275 symmetry adapted basis functions of A   symmetry.
   275 basis functions,   483 primitive gaussians,   275 cartesian basis functions
    49 alpha electrons       49 beta electrons
       nuclear repulsion energy       780.0395229066 Hartrees.
 NAtoms=   27 NActive=   27 NUniq=   27 SFac= 1.00D+00 NAtFMM=   60 NAOKFM=F Big=F
 Integral buffers will be    131072 words long.
 Raffenetti 2 integral format.
 Two-electron integral symmetry is turned on.
 Nuclear repulsion after empirical dispersion term =      779.9851326113 Hartrees.
 One-electron integrals computed using PRISM.
 NBasis=   275 RedAO= T EigKep=  4.11D-04  NBF=   275
 NBsUse=   275 1.00D-06 EigRej= -1.00D+00 NBFU=   275
 ExpMin= 1.61D-01 ExpMax= 4.17D+03 ExpMxC= 6.27D+02 IAcc=3 IRadAn=         5 AccDes= 0.00D+00
 Harris functional with IExCor=  402 and IRadAn=       5 diagonalized for initial guess.
 HarFok:  IExCor=  402 AccDes= 0.00D+00 IRadAn=         5 IDoV= 1 UseB2=F ITyADJ=14
 ICtDFT=  3500011 ScaDFX=  1.000000  1.000000  1.000000  1.000000
 FoFCou: FMM=F IPFlag=           0 FMFlag=      100000 FMFlg1=           0
         NFxFlg=           0 DoJE=T BraDBF=F KetDBF=T FulRan=T
         wScrn=  0.000000 ICntrl=       500 IOpCl=  0 I1Cent=   200000004 NGrid=           0
         NMat0=    1 NMatS0=      1 NMatT0=    0 NMatD0=    1 NMtDS0=    0 NMtDT0=    0
 Petite list used in FoFCou.
 Requested convergence on RMS density matrix=1.00D-08 within 128 cycles.
 Requested convergence on MAX density matrix=1.00D-06.
 Requested convergence on             energy=1.00D-06.
 No special actions if energy rises.
 Integral accuracy reduced to 1.0D-05 until final iterations.
 Initial convergence to 1.0D-05 achieved.  Increase integral accuracy.
 SCF Done:  E(RB3LYP) =  -558.038931880     A.U. after   14 cycles
            NFock= 14  Conv=0.37D-08     -V/T= 2.0096

 **********************************************************************

            Population analysis using the SCF Density.

 **********************************************************************

 Orbital symmetries:
       Occupied  (A) (A) (A) (A) (A) (A) (A) (A) (A) (A) (A) (A)
                 (A) (A) (A) (A) (A) (A) (A) (A) (A) (A) (A) (A)
                 (A) (A) (A) (A) (A) (A) (A) (A) (A) (A) (A) (A)
                 (A) (A) (A) (A) (A) (A) (A) (A) (A) (A) (A) (A)
                 (A)
       Virtual   (A) (A) (A) (A) (A) (A) (A) (A) (A) (A) (A) (A)
                 (A) (A) (A) (A) (A) (A) (A) (A) (A) (A) (A) (A)
                 (A) (A) (A) (A) (A) (A) (A) (A) (A) (A) (A) (A)
                 (A) (A) (A) (A) (A) (A) (A) (A) (A) (A) (A) (A)
                 (A) (A) (A) (A) (A) (A) (A) (A) (A) (A) (A) (A)
                 (A) (A) (A) (A) (A) (A) (A) (A) (A) (A) (A) (A)
                 (A) (A) (A) (A) (A) (A) (A) (A) (A) (A) (A) (A)
                 (A) (A) (A) (A) (A) (A) (A) (A) (A) (A) (A) (A)
                 (A) (A) (A) (A) (A) (A) (A) (A) (A) (A) (A) (A)
                 (A) (A) (A) (A) (A) (A) (A) (A) (A) (A) (A) (A)
                 (A) (A) (A) (A) (A) (A) (A) (A) (A) (A) (A) (A)
                 (A) (A) (A) (A) (A) (A) (A) (A) (A) (A) (A) (A)
                 (A) (A) (A) (A) (A) (A) (A) (A) (A) (A) (A) (A)
                 (A) (A) (A) (A) (A) (A) (A) (A) (A) (A) (A) (A)
                 (A) (A) (A) (A) (A) (A) (A) (A) (A) (A) (A) (A)
                 (A) (A) (A) (A) (A) (A) (A) (A) (A) (A) (A) (A)
                 (A) (A) (A) (A) (A) (A) (A) (A) (A) (A) (A) (A)
                 (A) (A) (A) (A) (A) (A) (A) (A) (A) (A) (A) (A)
                 (A) (A) (A) (A) (A) (A) (A) (A) (A) (A)
 The electronic state is 1-A.
 Alpha  occ. eigenvalues --  -14.31280 -10.21150 -10.19349 -10.19063 -10.18955
 Alpha  occ. eigenvalues --  -10.18485 -10.18475 -10.18337 -10.18328 -10.18308
 Alpha  occ. eigenvalues --  -10.18277 -10.18187 -10.18109 -10.17795  -0.88796
 Alpha  occ. eigenvalues --   -0.85959  -0.83821  -0.77251  -0.74352  -0.73588
 Alpha  occ. eigenvalues --   -0.72318  -0.65916  -0.61263  -0.60039  -0.58616
 Alpha  occ. eigenvalues --   -0.56478  -0.52273  -0.49726  -0.47388  -0.46783
 Alpha  occ. eigenvalues --   -0.45557  -0.44044  -0.43585  -0.41918  -0.41646
 Alpha  occ. eigenvalues --   -0.41176  -0.40659  -0.39205  -0.36656  -0.35105
 Alpha  occ. eigenvalues --   -0.34677  -0.34271  -0.32937  -0.32470  -0.26483
 Alpha  occ. eigenvalues --   -0.24645  -0.24451  -0.23638  -0.21425
 Alpha virt. eigenvalues --   -0.01945   0.00104   0.00505   0.03520   0.08336
 Alpha virt. eigenvalues --    0.10222   0.11590   0.13080   0.13517   0.14610
 Alpha virt. eigenvalues --    0.15397   0.16228   0.16646   0.17731   0.18432
 Alpha virt. eigenvalues --    0.19225   0.20175   0.20683   0.21977   0.24290
 Alpha virt. eigenvalues --    0.24828   0.26803   0.29342   0.30615   0.31238
 Alpha virt. eigenvalues --    0.32595   0.34614   0.36020   0.37834   0.39100
 Alpha virt. eigenvalues --    0.46668   0.49241   0.51069   0.52564   0.53745
 Alpha virt. eigenvalues --    0.54860   0.55262   0.55487   0.56440   0.57039
 Alpha virt. eigenvalues --    0.57707   0.58905   0.59570   0.59951   0.60083
 Alpha virt. eigenvalues --    0.60439   0.61151   0.61849   0.62007   0.62881
 Alpha virt. eigenvalues --    0.63464   0.64683   0.65921   0.67067   0.67900
 Alpha virt. eigenvalues --    0.69612   0.71410   0.72094   0.73616   0.74464
 Alpha virt. eigenvalues --    0.77314   0.79146   0.80648   0.81014   0.82092
 Alpha virt. eigenvalues --    0.82454   0.82948   0.83986   0.85649   0.86106
 Alpha virt. eigenvalues --    0.86394   0.87998   0.89518   0.90116   0.90884
 Alpha virt. eigenvalues --    0.92815   0.93636   0.94950   0.97049   0.98135
 Alpha virt. eigenvalues --    0.99644   0.99867   1.02420   1.03604   1.08243
 Alpha virt. eigenvalues --    1.09235   1.11030   1.11882   1.13811   1.16115
 Alpha virt. eigenvalues --    1.17426   1.18017   1.19477   1.22419   1.24009
 Alpha virt. eigenvalues --    1.26640   1.28787   1.31742   1.34404   1.36952
 Alpha virt. eigenvalues --    1.38866   1.40575   1.40770   1.41349   1.42253
 Alpha virt. eigenvalues --    1.43398   1.44818   1.44976   1.47004   1.48880
 Alpha virt. eigenvalues --    1.54369   1.57630   1.66032   1.71561   1.73853
 Alpha virt. eigenvalues --    1.76368   1.77375   1.77868   1.80094   1.81231
 Alpha virt. eigenvalues --    1.81873   1.84488   1.87113   1.89158   1.89679
 Alpha virt. eigenvalues --    1.89822   1.93255   1.94194   1.96188   1.96240
 Alpha virt. eigenvalues --    1.96902   1.98110   1.98746   1.99006   2.01112
 Alpha virt. eigenvalues --    2.02518   2.04563   2.06695   2.08090   2.08528
 Alpha virt. eigenvalues --    2.09582   2.11895   2.17139   2.18383   2.19307
 Alpha virt. eigenvalues --    2.22905   2.26207   2.27968   2.30164   2.30503
 Alpha virt. eigenvalues --    2.30936   2.31644   2.33209   2.34931   2.37704
 Alpha virt. eigenvalues --    2.38136   2.39069   2.41893   2.42651   2.42765
 Alpha virt. eigenvalues --    2.43603   2.45495   2.47176   2.48984   2.49167
 Alpha virt. eigenvalues --    2.50255   2.50763   2.53270   2.53441   2.54400
 Alpha virt. eigenvalues --    2.55245   2.58961   2.61082   2.61346   2.61588
 Alpha virt. eigenvalues --    2.63303   2.65563   2.66141   2.67438   2.68308
 Alpha virt. eigenvalues --    2.72913   2.74161   2.77310   2.78909   2.80084
 Alpha virt. eigenvalues --    2.83327   2.84638   2.85552   2.90617   2.94400
 Alpha virt. eigenvalues --    2.96270   2.99307   3.06313   3.07305   3.08538
 Alpha virt. eigenvalues --    3.20513   3.22315   3.25539   3.26476   3.26848
 Alpha virt. eigenvalues --    3.27581   3.30020   3.35026   3.37448   3.42271
 Alpha virt. eigenvalues --    3.44364   3.46241   3.52480   3.53017   3.53352
 Alpha virt. eigenvalues --    3.82687   3.92688   4.05103   4.13369   4.14442
 Alpha virt. eigenvalues --    4.15571   4.16747   4.16948   4.19800   4.34833
 Alpha virt. eigenvalues --    4.44708   4.45081   4.45544   4.56502   4.78625
 Alpha virt. eigenvalues --    4.90153
          Condensed to atoms (all electrons):
               1          2          3          4          5          6
     1  N    6.757694   0.293036  -0.047151  -0.004525   0.000295  -0.000001
     2  C    0.293036   4.915868   0.336206  -0.059929   0.007239   0.000254
     3  C   -0.047151   0.336206   4.794079   0.545310  -0.033680  -0.026640
     4  C   -0.004525  -0.059929   0.545310   4.920377   0.469178  -0.023413
     5  C    0.000295   0.007239  -0.033680   0.469178   4.971870   0.523096
     6  C   -0.000001   0.000254  -0.026640  -0.023413   0.523096   4.810254
     7  C    0.000000  -0.000001   0.000797   0.005926  -0.047034   0.330914
     8  C    0.000000   0.000000  -0.000001   0.000310  -0.011655  -0.046837
     9  C    0.000000   0.000000  -0.000000  -0.000003   0.000306   0.006138
    10  C   -0.000000  -0.000000   0.000000  -0.000000   0.000003   0.000725
    11  C   -0.000000   0.000000  -0.000000   0.000002  -0.000176   0.006101
    12  C    0.000000   0.000000   0.000000  -0.000171   0.005007  -0.046892
    13  C   -0.000114   0.006570  -0.028817  -0.049698  -0.046695   0.525358
    14  C    0.002495  -0.057281   0.524626  -0.025167  -0.050548  -0.024595
    15  H    0.336519  -0.030773   0.005363   0.000341   0.000003  -0.000000
    16  H    0.342024  -0.044159   0.001055   0.000318  -0.000191  -0.000006
    17  H   -0.036529   0.371606  -0.023757  -0.002760  -0.000241   0.000052
    18  H   -0.052824   0.383767  -0.055180   0.005283  -0.000084   0.000012
    19  H    0.016158  -0.012251  -0.039877   0.365441  -0.041353   0.003628
    20  H    0.000003  -0.000191   0.003789  -0.038310   0.361773  -0.043472
    21  H    0.000000  -0.000000  -0.000006  -0.000063   0.004733  -0.009606
    22  H   -0.000000  -0.000000  -0.000000  -0.000000   0.000001  -0.000198
    23  H    0.000000  -0.000000  -0.000000   0.000000   0.000000   0.000003
    24  H    0.000000  -0.000000  -0.000000  -0.000000   0.000001  -0.000198
    25  H    0.000000  -0.000000  -0.000010  -0.000009   0.000059  -0.009550
    26  H    0.000001  -0.000184   0.003978   0.000617   0.005918  -0.042788
    27  H    0.000058  -0.009153  -0.051122   0.006090   0.000656   0.003930
               7          8          9         10         11         12
     1  N    0.000000   0.000000   0.000000  -0.000000  -0.000000   0.000000
     2  C   -0.000001   0.000000   0.000000  -0.000000   0.000000   0.000000
     3  C    0.000797  -0.000001  -0.000000   0.000000  -0.000000   0.000000
     4  C    0.005926   0.000310  -0.000003  -0.000000   0.000002  -0.000171
     5  C   -0.047034  -0.011655   0.000306   0.000003  -0.000176   0.005007
     6  C    0.330914  -0.046837   0.006138   0.000725   0.006101  -0.046892
     7  C    4.804469   0.526357  -0.020075  -0.034238  -0.020011   0.525738
     8  C    0.526357   4.925765   0.512351  -0.041124  -0.043520  -0.054839
     9  C   -0.020075   0.512351   4.828080   0.550342  -0.030403  -0.043500
    10  C   -0.034238  -0.041124   0.550342   4.805215   0.550377  -0.041139
    11  C   -0.020011  -0.043520  -0.030403   0.550377   4.827591   0.512846
    12  C    0.525738  -0.054839  -0.043500  -0.041139   0.512846   4.926136
    13  C   -0.046395   0.004939  -0.000176   0.000003   0.000311  -0.011761
    14  C    0.006254  -0.000169   0.000002  -0.000000  -0.000002   0.000322
    15  H   -0.000000   0.000000  -0.000000  -0.000000   0.000000   0.000000
    16  H    0.000000  -0.000000  -0.000000  -0.000000   0.000000   0.000000
    17  H    0.000000  -0.000000  -0.000000   0.000000   0.000000  -0.000000
    18  H   -0.000000  -0.000000   0.000000   0.000000  -0.000000  -0.000000
    19  H   -0.000180  -0.000000  -0.000000  -0.000000  -0.000000   0.000001
    20  H   -0.009058   0.004488  -0.000075  -0.000006  -0.000011   0.000061
    21  H   -0.042889   0.363857  -0.043078   0.005051   0.000369   0.006140
    22  H    0.003620  -0.037169   0.366299  -0.042153   0.004629   0.000905
    23  H    0.000674   0.005166  -0.043010   0.368106  -0.043023   0.005170
    24  H    0.003619   0.000906   0.004629  -0.042143   0.366294  -0.037231
    25  H   -0.042996   0.006131   0.000369   0.005053  -0.043092   0.363745
    26  H   -0.009213   0.000056  -0.000010  -0.000006  -0.000079   0.004623
    27  H   -0.000200   0.000001  -0.000000  -0.000000  -0.000000   0.000000
              13         14         15         16         17         18
     1  N   -0.000114   0.002495   0.336519   0.342024  -0.036529  -0.052824
     2  C    0.006570  -0.057281  -0.030773  -0.044159   0.371606   0.383767
     3  C   -0.028817   0.524626   0.005363   0.001055  -0.023757  -0.055180
     4  C   -0.049698  -0.025167   0.000341   0.000318  -0.002760   0.005283
     5  C   -0.046695  -0.050548   0.000003  -0.000191  -0.000241  -0.000084
     6  C    0.525358  -0.024595  -0.000000  -0.000006   0.000052   0.000012
     7  C   -0.046395   0.006254  -0.000000   0.000000   0.000000  -0.000000
     8  C    0.004939  -0.000169   0.000000  -0.000000  -0.000000  -0.000000
     9  C   -0.000176   0.000002  -0.000000  -0.000000  -0.000000   0.000000
    10  C    0.000003  -0.000000  -0.000000  -0.000000   0.000000   0.000000
    11  C    0.000311  -0.000002   0.000000   0.000000   0.000000  -0.000000
    12  C   -0.011761   0.000322   0.000000   0.000000  -0.000000  -0.000000
    13  C    4.944596   0.486726   0.000003  -0.000009  -0.000262   0.000135
    14  C    0.486726   4.931716  -0.000208   0.000170  -0.002117  -0.002097
    15  H    0.000003  -0.000208   0.491304  -0.033680  -0.005061  -0.002955
    16  H   -0.000009   0.000170  -0.033680   0.496891   0.007120  -0.008291
    17  H   -0.000262  -0.002117  -0.005061   0.007120   0.614360  -0.045929
    18  H    0.000135  -0.002097  -0.002955  -0.008291  -0.045929   0.684459
    19  H    0.000588   0.006241  -0.000327  -0.000872   0.000098   0.000540
    20  H    0.005772   0.000742  -0.000000   0.000002   0.000003   0.000003
    21  H    0.000046  -0.000008  -0.000000  -0.000000  -0.000000   0.000000
    22  H    0.000001  -0.000000   0.000000   0.000000   0.000000  -0.000000
    23  H    0.000000   0.000000  -0.000000   0.000000   0.000000  -0.000000
    24  H    0.000000  -0.000000  -0.000000  -0.000000  -0.000000   0.000000
    25  H    0.004596  -0.000060   0.000000   0.000000   0.000000  -0.000000
    26  H    0.360592  -0.038820  -0.000000   0.000000   0.000002  -0.000004
    27  H   -0.039177   0.365255  -0.000012  -0.000007   0.001019   0.005666
              19         20         21         22         23         24
     1  N    0.016158   0.000003   0.000000  -0.000000   0.000000   0.000000
     2  C   -0.012251  -0.000191  -0.000000  -0.000000  -0.000000  -0.000000
     3  C   -0.039877   0.003789  -0.000006  -0.000000  -0.000000  -0.000000
     4  C    0.365441  -0.038310  -0.000063  -0.000000   0.000000  -0.000000
     5  C   -0.041353   0.361773   0.004733   0.000001   0.000000   0.000001
     6  C    0.003628  -0.043472  -0.009606  -0.000198   0.000003  -0.000198
     7  C   -0.000180  -0.009058  -0.042889   0.003620   0.000674   0.003619
     8  C   -0.000000   0.004488   0.363857  -0.037169   0.005166   0.000906
     9  C   -0.000000  -0.000075  -0.043078   0.366299  -0.043010   0.004629
    10  C   -0.000000  -0.000006   0.005051  -0.042153   0.368106  -0.042143
    11  C   -0.000000  -0.000011   0.000369   0.004629  -0.043023   0.366294
    12  C    0.000001   0.000061   0.006140   0.000905   0.005170  -0.037231
    13  C    0.000588   0.005772   0.000046   0.000001   0.000000   0.000000
    14  C    0.006241   0.000742  -0.000008  -0.000000   0.000000  -0.000000
    15  H   -0.000327  -0.000000  -0.000000   0.000000  -0.000000  -0.000000
    16  H   -0.000872   0.000002  -0.000000   0.000000   0.000000  -0.000000
    17  H    0.000098   0.000003  -0.000000   0.000000   0.000000  -0.000000
    18  H    0.000540   0.000003   0.000000  -0.000000  -0.000000   0.000000
    19  H    0.604422  -0.005530   0.000006   0.000000  -0.000000   0.000000
    20  H   -0.005530   0.632724   0.002519   0.000006  -0.000000   0.000000
    21  H    0.000006   0.002519   0.634756  -0.006241  -0.000203   0.000018
    22  H    0.000000   0.000006  -0.006241   0.632426  -0.006436  -0.000199
    23  H   -0.000000  -0.000000  -0.000203  -0.006436   0.639554  -0.006440
    24  H    0.000000   0.000000   0.000018  -0.000199  -0.006440   0.632621
    25  H    0.000000   0.000003  -0.000174   0.000018  -0.000203  -0.006244
    26  H    0.000019  -0.000185   0.000003   0.000000  -0.000000   0.000006
    27  H   -0.000158   0.000021   0.000000   0.000000  -0.000000   0.000000
              25         26         27
     1  N    0.000000   0.000001   0.000058
     2  C   -0.000000  -0.000184  -0.009153
     3  C   -0.000010   0.003978  -0.051122
     4  C   -0.000009   0.000617   0.006090
     5  C    0.000059   0.005918   0.000656
     6  C   -0.009550  -0.042788   0.003930
     7  C   -0.042996  -0.009213  -0.000200
     8  C    0.006131   0.000056   0.000001
     9  C    0.000369  -0.000010  -0.000000
    10  C    0.005053  -0.000006  -0.000000
    11  C   -0.043092  -0.000079  -0.000000
    12  C    0.363745   0.004623   0.000000
    13  C    0.004596   0.360592  -0.039177
    14  C   -0.000060  -0.038820   0.365255
    15  H    0.000000  -0.000000  -0.000012
    16  H    0.000000   0.000000  -0.000007
    17  H    0.000000   0.000002   0.001019
    18  H   -0.000000  -0.000004   0.005666
    19  H    0.000000   0.000019  -0.000158
    20  H    0.000003  -0.000185   0.000021
    21  H   -0.000174   0.000003   0.000000
    22  H    0.000018   0.000000   0.000000
    23  H   -0.000203  -0.000000  -0.000000
    24  H   -0.006244   0.000006   0.000000
    25  H    0.635449   0.002550   0.000007
    26  H    0.002550   0.635906  -0.006132
    27  H    0.000007  -0.006132   0.648424
 Mulliken charges:
               1
     1  N   -0.607141
     2  C   -0.100623
     3  C    0.091035
     4  C   -0.115146
     5  C   -0.118482
     6  C    0.063730
     7  C    0.063921
     8  C   -0.115012
     9  C   -0.088186
    10  C   -0.084069
    11  C   -0.088204
    12  C   -0.115162
    13  C   -0.117132
    14  C   -0.123475
    15  H    0.239482
    16  H    0.239635
    17  H    0.122395
    18  H    0.087497
    19  H    0.103405
    20  H    0.084930
    21  H    0.084769
    22  H    0.084490
    23  H    0.080642
    24  H    0.084359
    25  H    0.084357
    26  H    0.083150
    27  H    0.074835
 Sum of Mulliken charges =  -0.00000
 Mulliken charges with hydrogens summed into heavy atoms:
               1
     1  N   -0.128025
     2  C    0.109269
     3  C    0.091035
     4  C   -0.011741
     5  C   -0.033552
     6  C    0.063730
     7  C    0.063921
     8  C   -0.030244
     9  C   -0.003695
    10  C   -0.003426
    11  C   -0.003845
    12  C   -0.030804
    13  C   -0.033982
    14  C   -0.048640
 Electronic spatial extent (au):  <R**2>=           3878.4287
 Charge=             -0.0000 electrons
 Dipole moment (field-independent basis, Debye):
    X=              1.1778    Y=              0.5724    Z=              0.9773  Tot=              1.6340
 Quadrupole moment (field-independent basis, Debye-Ang):
   XX=            -65.0982   YY=            -76.2106   ZZ=            -85.0560
   XY=              2.5039   XZ=              4.7450   YZ=             -2.1721
 Traceless Quadrupole moment (field-independent basis, Debye-Ang):
   XX=             10.3567   YY=             -0.7557   ZZ=             -9.6011
   XY=              2.5039   XZ=              4.7450   YZ=             -2.1721
 Octapole moment (field-independent basis, Debye-Ang**2):
  XXX=             70.0075  YYY=             -0.5471  ZZZ=              1.1706  XYY=             -4.5917
  XXY=              7.7274  XXZ=             21.1447  XZZ=             12.3668  YZZ=             -1.1321
  YYZ=              3.5843  XYZ=             -1.1872
 Hexadecapole moment (field-independent basis, Debye-Ang**3):
 XXXX=          -3719.5802 YYYY=           -567.7651 ZZZZ=           -157.5836 XXXY=             11.3954
 XXXZ=            103.2647 YYYX=             -0.5628 YYYZ=             -5.0193 ZZZX=              6.2990
 ZZZY=             -2.8276 XXYY=           -822.2134 XXZZ=           -801.4021 YYZZ=           -123.3147
 XXYZ=            -65.8513 YYXZ=             12.2135 ZZXY=             -5.2792
 N-N= 7.799851326113D+02 E-N=-2.852979912405D+03  KE= 5.527170821995D+02
 Calling FoFJK, ICntrl=      2127 FMM=F ISym2X=0 I1Cent= 0 IOpClX= 0 NMat=1 NMatS=1 NMatT=0.
 ***** Axes restored to original set *****
 -------------------------------------------------------------------
 Center     Atomic                   Forces (Hartrees/Bohr)
 Number     Number              X              Y              Z
 -------------------------------------------------------------------
      1        7          -0.006001637   -0.010129256   -0.005618556
      2        6          -0.003339040   -0.002113104    0.005914451
      3        6           0.012232886   -0.001779543   -0.001162463
      4        6          -0.001445664    0.003571974    0.000710168
      5        6           0.004666648    0.003444603    0.000251715
      6        6          -0.011054739   -0.000968163    0.001049498
      7        6           0.009124464    0.000473237   -0.000727651
      8        6          -0.003824720   -0.000336431   -0.000500167
      9        6           0.003789556    0.002924595   -0.003334423
     10        6          -0.004324642   -0.000126685    0.000418484
     11        6           0.004451461   -0.002751122    0.002498698
     12        6          -0.003675025    0.000012742    0.001296839
     13        6           0.005192791   -0.000556677   -0.002313063
     14        6          -0.007967563   -0.005284034    0.001518954
     15        1           0.004192832    0.001008117   -0.002613113
     16        1          -0.001310713   -0.001771526    0.005325087
     17        1           0.002616137   -0.000521898   -0.003160025
     18        1          -0.003995540    0.012046955   -0.000892553
     19        1           0.004328674   -0.000763092    0.000075553
     20        1          -0.003428989   -0.002684036   -0.000204005
     21        1           0.003776235   -0.001349802    0.001521599
     22        1          -0.001354381   -0.002457890    0.002269093
     23        1          -0.003980145   -0.000090437    0.000377751
     24        1          -0.001885486    0.002407787   -0.001976253
     25        1           0.003380615    0.001623252   -0.002203377
     26        1          -0.003388413    0.002571065    0.000918733
     27        1           0.003224400    0.003599367    0.000559023
 -------------------------------------------------------------------
 Cartesian Forces:  Max     0.012232886 RMS     0.003965094

 GradGradGradGradGradGradGradGradGradGradGradGradGradGradGradGradGradGrad
 Berny optimization.
 FormGI is forming the generalized inverse of G from B-inverse, IUseBI=4.
 Internal  Forces:  Max     0.012560467 RMS     0.002659535
 Search for a local minimum.
 Step number   1 out of a maximum of  147
 All quantities printed in internal units (Hartrees-Bohrs-Radians)
 Mixed Optimization -- RFO/linear search
 Second derivative matrix not updated -- first step.
 ITU=  0
     Eigenvalues ---    0.00390   0.00856   0.00936   0.01417   0.01694
     Eigenvalues ---    0.01713   0.02083   0.02097   0.02120   0.02123
     Eigenvalues ---    0.02130   0.02132   0.02140   0.02147   0.02161
     Eigenvalues ---    0.02162   0.02165   0.02188   0.02189   0.02191
     Eigenvalues ---    0.02194   0.04576   0.04788   0.06441   0.10179
     Eigenvalues ---    0.13402   0.15997   0.15998   0.15998   0.15999
     Eigenvalues ---    0.15999   0.16000   0.16000   0.16000   0.16000
     Eigenvalues ---    0.16000   0.16000   0.21999   0.22000   0.22000
     Eigenvalues ---    0.22029   0.22966   0.23471   0.23997   0.24986
     Eigenvalues ---    0.25000   0.25000   0.29572   0.33100   0.34568
     Eigenvalues ---    0.34584   0.35921   0.35944   0.35947   0.35951
     Eigenvalues ---    0.35978   0.35984   0.35995   0.36017   0.36025
     Eigenvalues ---    0.37321   0.41951   0.41977   0.42105   0.42131
     Eigenvalues ---    0.45666   0.45696   0.45814   0.45886   0.45898
     Eigenvalues ---    0.46284   0.46328   0.46825   0.46861   0.46939
 RFO step:  Lambda=-4.85520106D-03 EMin= 3.90349727D-03
 Linear search not attempted -- first point.
 Iteration  1 RMS(Cart)=  0.03711273 RMS(Int)=  0.00081681
 Iteration  2 RMS(Cart)=  0.00114820 RMS(Int)=  0.00018631
 Iteration  3 RMS(Cart)=  0.00000113 RMS(Int)=  0.00018631
 Iteration  4 RMS(Cart)=  0.00000000 RMS(Int)=  0.00018631
 Variable       Old X    -DE/DX   Delta X   Delta X   Delta X     New X
                                 (Linear)    (Quad)   (Total)
    R1        2.75366   0.00688   0.00000   0.01820   0.01820   2.77186
    R2        1.90947   0.00471   0.00000   0.01016   0.01016   1.91963
    R3        1.91042   0.00558   0.00000   0.01205   0.01205   1.92248
    R4        2.88825  -0.00776   0.00000  -0.02582  -0.02582   2.86243
    R5        2.06356   0.00342   0.00000   0.00975   0.00975   2.07331
    R6        2.06382   0.00720   0.00000   0.02055   0.02055   2.08437
    R7        2.64417  -0.00343   0.00000  -0.00768  -0.00770   2.63648
    R8        2.63782   0.00261   0.00000   0.00540   0.00539   2.64320
    R9        2.63153   0.00204   0.00000   0.00420   0.00420   2.63572
   R10        2.04169   0.00285   0.00000   0.00782   0.00782   2.04951
   R11        2.64558   0.00168   0.00000   0.00382   0.00383   2.64941
   R12        2.04043   0.00396   0.00000   0.01084   0.01084   2.05127
   R13        2.82176  -0.00549   0.00000  -0.01636  -0.01636   2.80540
   R14        2.64596   0.00164   0.00000   0.00382   0.00384   2.64980
   R15        2.64842   0.00109   0.00000   0.00213   0.00212   2.65054
   R16        2.64863   0.00104   0.00000   0.00202   0.00201   2.65064
   R17        2.63215   0.00165   0.00000   0.00348   0.00348   2.63563
   R18        2.04107   0.00375   0.00000   0.01028   0.01028   2.05135
   R19        2.63056   0.00289   0.00000   0.00634   0.00635   2.63692
   R20        2.04165   0.00360   0.00000   0.00988   0.00988   2.05153
   R21        2.63059   0.00289   0.00000   0.00634   0.00635   2.63693
   R22        2.04205   0.00400   0.00000   0.01098   0.01098   2.05303
   R23        2.63209   0.00166   0.00000   0.00351   0.00351   2.63560
   R24        2.04158   0.00363   0.00000   0.00997   0.00997   2.05155
   R25        2.04089   0.00383   0.00000   0.01050   0.01050   2.05139
   R26        2.63193   0.00037   0.00000   0.00088   0.00089   2.63282
   R27        2.04055   0.00398   0.00000   0.01090   0.01090   2.05144
   R28        2.04116   0.00466   0.00000   0.01277   0.01277   2.05393
    A1        1.92355  -0.00171   0.00000  -0.00652  -0.00653   1.91701
    A2        1.90107   0.00126   0.00000   0.01160   0.01159   1.91266
    A3        1.84934   0.00107   0.00000   0.01485   0.01483   1.86417
    A4        1.98840  -0.00946   0.00000  -0.04047  -0.04090   1.94750
    A5        1.90488  -0.00145   0.00000  -0.03068  -0.03142   1.87346
    A6        1.90064   0.01256   0.00000   0.10587   0.10628   2.00692
    A7        1.88700   0.00460   0.00000   0.00237   0.00098   1.88798
    A8        1.90779  -0.00341   0.00000  -0.02042  -0.02005   1.88774
    A9        1.87166  -0.00265   0.00000  -0.01700  -0.01685   1.85480
   A10        2.13607  -0.00423   0.00000  -0.01591  -0.01592   2.12015
   A11        2.06660   0.00616   0.00000   0.02487   0.02487   2.09147
   A12        2.08007  -0.00193   0.00000  -0.00856  -0.00864   2.07142
   A13        2.09959   0.00109   0.00000   0.00371   0.00368   2.10326
   A14        2.09942  -0.00392   0.00000  -0.02235  -0.02233   2.07709
   A15        2.08413   0.00283   0.00000   0.01862   0.01864   2.10277
   A16        2.10868   0.00133   0.00000   0.00569   0.00569   2.11436
   A17        2.07471   0.00114   0.00000   0.00806   0.00806   2.08277
   A18        2.09962  -0.00247   0.00000  -0.01384  -0.01384   2.08578
   A19        2.10707   0.00136   0.00000   0.00507   0.00506   2.11213
   A20        2.06847  -0.00230   0.00000  -0.00848  -0.00847   2.06000
   A21        2.10763   0.00094   0.00000   0.00343   0.00341   2.11105
   A22        2.10575   0.00045   0.00000   0.00226   0.00227   2.10802
   A23        2.10652   0.00047   0.00000   0.00234   0.00234   2.10886
   A24        2.07092  -0.00091   0.00000  -0.00459  -0.00461   2.06631
   A25        2.10824   0.00036   0.00000   0.00095   0.00094   2.10918
   A26        2.09750  -0.00223   0.00000  -0.01299  -0.01300   2.08451
   A27        2.07735   0.00188   0.00000   0.01194   0.01193   2.08928
   A28        2.08833   0.00196   0.00000   0.00915   0.00915   2.09749
   A29        2.09648  -0.00119   0.00000  -0.00583  -0.00585   2.09064
   A30        2.09836  -0.00077   0.00000  -0.00333  -0.00335   2.09502
   A31        2.10233  -0.00372   0.00000  -0.01561  -0.01559   2.08674
   A32        2.09038   0.00187   0.00000   0.00786   0.00785   2.09823
   A33        2.09047   0.00185   0.00000   0.00775   0.00774   2.09821
   A34        2.08845   0.00193   0.00000   0.00903   0.00904   2.09748
   A35        2.09815  -0.00075   0.00000  -0.00319  -0.00321   2.09495
   A36        2.09658  -0.00119   0.00000  -0.00586  -0.00587   2.09071
   A37        2.10810   0.00039   0.00000   0.00108   0.00107   2.10917
   A38        2.09779  -0.00224   0.00000  -0.01301  -0.01302   2.08477
   A39        2.07718   0.00185   0.00000   0.01182   0.01181   2.08899
   A40        2.10882  -0.00019   0.00000  -0.00045  -0.00051   2.10832
   A41        2.09745  -0.00162   0.00000  -0.01026  -0.01031   2.08714
   A42        2.07684   0.00180   0.00000   0.01049   0.01044   2.08727
   A43        2.10059   0.00201   0.00000   0.00843   0.00839   2.10898
   A44        2.09994  -0.00215   0.00000  -0.01116  -0.01114   2.08880
   A45        2.08264   0.00014   0.00000   0.00272   0.00273   2.08537
    D1        3.05177  -0.00050   0.00000  -0.03352  -0.03290   3.01888
    D2        0.94100   0.00100   0.00000   0.01282   0.01222   0.95322
    D3       -1.09700  -0.00207   0.00000  -0.00914  -0.00918  -1.10618
    D4       -1.20952   0.00056   0.00000  -0.01263  -0.01199  -1.22151
    D5        2.96290   0.00206   0.00000   0.03372   0.03312   2.99602
    D6        0.92490  -0.00101   0.00000   0.01175   0.01172   0.93662
    D7       -0.35070   0.00392   0.00000   0.03917   0.03906  -0.31164
    D8        2.82347   0.00367   0.00000   0.02477   0.02462   2.84808
    D9        1.77002  -0.00082   0.00000  -0.02478  -0.02470   1.74532
   D10       -1.33901  -0.00107   0.00000  -0.03918  -0.03914  -1.37815
   D11       -2.48118  -0.00326   0.00000  -0.05470  -0.05460  -2.53578
   D12        0.69298  -0.00352   0.00000  -0.06909  -0.06904   0.62394
   D13       -3.12731   0.00009   0.00000   0.00475   0.00489  -3.12243
   D14        0.00341   0.00008   0.00000   0.00313   0.00325   0.00666
   D15       -0.01854   0.00049   0.00000   0.01985   0.01977   0.00124
   D16        3.11219   0.00048   0.00000   0.01823   0.01814   3.13033
   D17        3.12788  -0.00037   0.00000  -0.00995  -0.00985   3.11803
   D18       -0.01937  -0.00047   0.00000  -0.01375  -0.01366  -0.03302
   D19        0.01779  -0.00057   0.00000  -0.02371  -0.02373  -0.00594
   D20       -3.12946  -0.00066   0.00000  -0.02751  -0.02754   3.12619
   D21        0.00792  -0.00015   0.00000  -0.00601  -0.00602   0.00189
   D22        3.12944  -0.00030   0.00000  -0.01118  -0.01125   3.11819
   D23       -3.12290  -0.00010   0.00000  -0.00415  -0.00411  -3.12701
   D24       -0.00138  -0.00025   0.00000  -0.00932  -0.00933  -0.01072
   D25       -3.14125   0.00008   0.00000   0.00322   0.00318  -3.13807
   D26        0.00359  -0.00007   0.00000  -0.00392  -0.00395  -0.00037
   D27        0.02070   0.00019   0.00000   0.00821   0.00816   0.02887
   D28       -3.11765   0.00005   0.00000   0.00107   0.00103  -3.11662
   D29        0.66763  -0.00020   0.00000  -0.01306  -0.01308   0.65455
   D30       -2.47388  -0.00018   0.00000  -0.01215  -0.01218  -2.48606
   D31       -2.47728  -0.00006   0.00000  -0.00578  -0.00576  -2.48304
   D32        0.66439  -0.00004   0.00000  -0.00488  -0.00485   0.65954
   D33       -0.00435  -0.00002   0.00000   0.00001   0.00003  -0.00433
   D34       -3.13252   0.00046   0.00000   0.01931   0.01925  -3.11327
   D35        3.14048  -0.00016   0.00000  -0.00713  -0.00711   3.13338
   D36        0.01232   0.00031   0.00000   0.01217   0.01211   0.02443
   D37        3.14069   0.00007   0.00000   0.00286   0.00285  -3.13964
   D38        0.01412   0.00027   0.00000   0.01081   0.01075   0.02487
   D39       -0.00097   0.00005   0.00000   0.00198   0.00196   0.00099
   D40       -3.12755   0.00025   0.00000   0.00992   0.00986  -3.11769
   D41        3.14119   0.00001   0.00000   0.00037   0.00036   3.14155
   D42        0.01629   0.00020   0.00000   0.00818   0.00813   0.02441
   D43       -0.00033   0.00003   0.00000   0.00126   0.00125   0.00092
   D44       -3.12523   0.00022   0.00000   0.00907   0.00901  -3.11622
   D45        0.00137  -0.00009   0.00000  -0.00343  -0.00343  -0.00206
   D46       -3.13761   0.00011   0.00000   0.00401   0.00402  -3.13359
   D47        3.12812  -0.00032   0.00000  -0.01150  -0.01156   3.11656
   D48       -0.01086  -0.00012   0.00000  -0.00405  -0.00411  -0.01497
   D49       -0.00047   0.00004   0.00000   0.00167   0.00166   0.00120
   D50        3.14061   0.00005   0.00000   0.00194   0.00194  -3.14064
   D51        3.13851  -0.00016   0.00000  -0.00579  -0.00581   3.13270
   D52       -0.00360  -0.00015   0.00000  -0.00551  -0.00553  -0.00913
   D53       -0.00082   0.00004   0.00000   0.00152   0.00151   0.00070
   D54        3.13709  -0.00014   0.00000  -0.00523  -0.00525   3.13184
   D55        3.14129   0.00003   0.00000   0.00124   0.00124  -3.14066
   D56       -0.00398  -0.00015   0.00000  -0.00550  -0.00552  -0.00951
   D57        0.00122  -0.00008   0.00000  -0.00299  -0.00298  -0.00177
   D58        3.12632  -0.00030   0.00000  -0.01094  -0.01100   3.11531
   D59       -3.13669   0.00010   0.00000   0.00374   0.00375  -3.13294
   D60       -0.01159  -0.00012   0.00000  -0.00421  -0.00427  -0.01586
   D61       -0.00641   0.00034   0.00000   0.01393   0.01400   0.00759
   D62        3.14078   0.00044   0.00000   0.01774   0.01785  -3.12456
   D63        3.12191  -0.00016   0.00000  -0.00530  -0.00538   3.11653
   D64       -0.01409  -0.00006   0.00000  -0.00149  -0.00153  -0.01562
         Item               Value     Threshold  Converged?
 Maximum Force            0.012560     0.000450     NO 
 RMS     Force            0.002660     0.000300     NO 
 Maximum Displacement     0.182902     0.001800     NO 
 RMS     Displacement     0.037398     0.001200     NO 
 Predicted change in Energy=-2.516057D-03
 GradGradGradGradGradGradGradGradGradGradGradGradGradGradGradGradGradGrad

                          Input orientation:                          
 ---------------------------------------------------------------------
 Center     Atomic      Atomic             Coordinates (Angstroms)
 Number     Number       Type             X           Y           Z
 ---------------------------------------------------------------------
      1          7           0        4.617711   -1.032095   -0.031797
      2          6           0        3.977099    0.240765   -0.379585
      3          6           0        2.472452    0.169072   -0.220515
      4          6           0        1.804359   -1.053945   -0.154491
      5          6           0        0.415743   -1.096441   -0.030754
      6          6           0       -0.343357    0.080814    0.028129
      7          6           0       -1.820853    0.032308    0.164316
      8          6           0       -2.436204   -0.939833    0.966557
      9          6           0       -3.824276   -0.988115    1.093657
     10          6           0       -4.622822   -0.061980    0.421548
     11          6           0       -4.023409    0.911080   -0.379085
     12          6           0       -2.635301    0.956338   -0.506725
     13          6           0        0.334748    1.306233   -0.040631
     14          6           0        1.722339    1.348025   -0.158635
     15          1           0        5.607442   -0.992788   -0.257149
     16          1           0        4.550324   -1.184823    0.971744
     17          1           0        4.200454    0.441706   -1.434798
     18          1           0        4.341223    1.115319    0.185376
     19          1           0        2.379814   -1.971402   -0.212629
     20          1           0       -0.086489   -2.058356   -0.003125
     21          1           0       -1.821133   -1.649333    1.511227
     22          1           0       -4.282041   -1.743272    1.725136
     23          1           0       -5.704086   -0.098401    0.520767
     24          1           0       -4.637809    1.629730   -0.912614
     25          1           0       -2.178588    1.701191   -1.150946
     26          1           0       -0.225492    2.233445    0.029252
     27          1           0        2.227454    2.309758   -0.194131
 ---------------------------------------------------------------------
                    Distance matrix (angstroms):
                    1          2          3          4          5
     1  N    0.000000
     2  C    1.466803   0.000000
     3  C    2.465878   1.514730   0.000000
     4  C    2.816111   2.539241   1.395163   0.000000
     5  C    4.202461   3.820087   2.422310   1.394766   0.000000
     6  C    5.084717   4.342598   2.828142   2.435921   1.402009
     7  C    6.528899   5.827138   4.312687   3.797861   2.512865
     8  C    7.124812   6.658556   5.170465   4.387726   3.025352
     9  C    8.516791   8.033807   6.535665   5.765738   4.387915
    10  C    9.302371   8.642460   7.128011   6.528742   5.163509
    11  C    8.863718   8.028540   6.540025   6.154238   4.884418
    12  C    7.535623   6.652222   5.175987   4.886296   3.708008
    13  C    4.879716   3.810096   2.428018   2.782653   2.404059
    14  C    3.750232   2.521664   1.398724   2.403374   2.774701
    15  H    1.015823   2.048087   3.343565   3.804960   5.197667
    16  H    1.017330   2.046210   2.751739   2.970835   4.255299
    17  H    2.077162   1.097150   2.129508   3.101198   4.319870
    18  H    2.176005   1.103001   2.133644   3.355130   4.510875
    19  H    2.433759   2.733657   2.142493   1.084553   2.157825
    20  H    4.814929   4.684062   3.399540   2.146406   1.085486
    21  H    6.649859   6.384915   4.973972   4.034017   2.772545
    22  H    9.099350   8.750980   7.284627   6.407217   5.056749
    23  H   10.378661   9.728875   8.214427   7.599064   6.225155
    24  H    9.670874   8.742425   7.291661   7.019857   5.809309
    25  H    7.410332   6.373408   4.984502   4.944448   3.976447
    26  H    5.841583   4.669014   3.406306   3.867944   3.391597
    27  H    4.111893   2.715950   2.154822   3.390440   3.861501
                    6          7          8          9         10
     6  C    0.000000
     7  C    1.484553   0.000000
     8  C    2.510454   1.402606   0.000000
     9  C    3.794043   2.432826   1.394715   0.000000
    10  C    4.299883   2.815331   2.418462   1.395397   0.000000
    11  C    3.794463   2.432853   2.784932   2.411548   1.395405
    12  C    2.511100   1.402659   2.409494   2.784920   2.418450
    13  C    1.402214   2.512271   3.706402   4.883454   5.163634
    14  C    2.430597   3.793365   4.877892   6.147416   6.525780
    15  H    6.053595   7.510528   8.136369   9.527960  10.294918
    16  H    5.142018   6.536455   6.990824   8.377797   9.257975
    17  H    4.787130   6.243470   7.191689   8.534270   9.030500
    18  H    4.800022   6.256560   7.125125   8.480848   9.044109
    19  H    3.418364   4.669320   5.064449   6.415915   7.285944
    20  H    2.154764   2.721568   2.777145   4.039728   4.974352
    21  H    2.716029   2.154550   1.085527   2.150385   3.399493
    22  H    4.660511   3.412666   2.151295   1.085623   2.154581
    23  H    5.386300   3.901748   3.403790   2.157192   1.086417
    24  H    4.661165   3.412737   3.870530   3.397068   2.154552
    25  H    2.717335   2.154775   3.394877   3.870258   3.399380
    26  H    2.155856   2.721843   3.979382   4.945974   4.975881
    27  H    3.409789   4.658762   5.801444   7.011263   7.275335
                   11         12         13         14         15
    11  C    0.000000
    12  C    1.394698   0.000000
    13  C    4.389104   3.026692   0.000000
    14  C    5.766553   4.389033   1.393226   0.000000
    15  H    9.817987   8.473736   5.756186   4.536864   0.000000
    16  H    8.928966   7.642228   5.000134   3.961133   1.632346
    17  H    8.304623   6.917638   4.199380   2.931051   2.329000
    18  H    8.386143   7.012572   4.017383   2.651612   2.498651
    19  H    7.024078   5.814597   3.867140   3.384344   3.373019
    20  H    4.945526   3.979753   3.391063   3.859984   5.798346
    21  H    3.870273   3.394778   3.973847   4.932422   7.664329
    22  H    3.397090   3.870510   5.807939   7.011226  10.114077
    23  H    2.157188   3.403770   6.225406   7.596415  11.373467
    24  H    1.085633   2.151334   5.058787   6.410875  10.595867
    25  H    2.150211   1.085547   2.775905   4.040624   8.287259
    26  H    4.042223   2.779471   1.085576   2.147863   6.671860
    27  H    6.408104   5.057258   2.147781   1.086891   4.726002
                   16         17         18         19         20
    16  H    0.000000
    17  H    2.925653   0.000000
    18  H    2.439826   1.760265   0.000000
    19  H    2.594718   3.260601   3.678775   0.000000
    20  H    4.818036   5.165063   5.450907   2.476712   0.000000
    21  H    6.411106   7.022181   6.883009   4.552292   2.338707
    22  H    8.882012   9.311930   9.214287   6.941706   4.548496
    23  H   10.321657  10.110186  10.123923   8.330392   5.972711
    24  H    9.792563   8.933027   9.060530   7.918659   5.928209
    25  H    7.623197   6.508383   6.681088   5.928525   4.452927
    26  H    5.948215   4.994274   4.704196   4.952461   4.294174
    27  H    4.355121   2.986905   2.457382   4.283911   4.946842
                   21         22         23         24         25
    21  H    0.000000
    22  H    2.471972   0.000000
    23  H    4.296943   2.485622   0.000000
    24  H    4.955898   4.296678   2.485551   0.000000
    25  H    4.294292   4.955874   4.296776   2.471776   0.000000
    26  H    4.451774   5.928398   5.974453   4.551937   2.343235
    27  H    5.913858   7.904693   8.319834   6.936173   4.549622
                   26         27
    26  H    0.000000
    27  H    2.464278   0.000000
 Stoichiometry    C13H13N
 Framework group  C1[X(C13H13N)]
 Deg. of freedom    75
 Full point group                 C1      NOp   1
 Largest Abelian subgroup         C1      NOp   1
 Largest concise Abelian subgroup C1      NOp   1
                         Standard orientation:                         
 ---------------------------------------------------------------------
 Center     Atomic      Atomic             Coordinates (Angstroms)
 Number     Number       Type             X           Y           Z
 ---------------------------------------------------------------------
      1          7           0        4.816583   -0.893947   -0.065147
      2          6           0        4.162363    0.417792   -0.011766
      3          6           0        2.653292    0.287680    0.001825
      4          6           0        2.020041   -0.889936   -0.396536
      5          6           0        0.628184   -0.979955   -0.397702
      6          6           0       -0.168871    0.103944   -0.003370
      7          6           0       -1.650023    0.003538   -0.001462
      8          6           0       -2.288338   -1.185838    0.379646
      9          6           0       -3.679704   -1.282435    0.379734
     10          6           0       -4.458783   -0.188689    0.000409
     11          6           0       -3.836498    1.000915   -0.380064
     12          6           0       -2.444968    1.094847   -0.381672
     13          6           0        0.474477    1.284802    0.393973
     14          6           0        1.864944    1.372219    0.400209
     15          1           0        5.817658   -0.775046   -0.190077
     16          1           0        4.685942   -1.376524    0.820862
     17          1           0        4.450568    0.964113   -0.918524
     18          1           0        4.460333    1.052777    0.839480
     19          1           0        2.625951   -1.730604   -0.716546
     20          1           0        0.154940   -1.897829   -0.732110
     21          1           0       -1.690211   -2.033764    0.698447
     22          1           0       -4.155927   -2.209018    0.685073
     23          1           0       -5.542663   -0.262886    0.001076
     24          1           0       -4.434993    1.853702   -0.685281
     25          1           0       -1.968613    2.016020   -0.702515
     26          1           0       -0.117357    2.130784    0.729417
     27          1           0        2.341603    2.292592    0.727383
 ---------------------------------------------------------------------
 Rotational constants (GHZ):           2.5269650           0.3035198           0.2771855
 Standard basis: 6-31G(d,p) (6D, 7F)
 There are   275 symmetry adapted cartesian basis functions of A   symmetry.
 There are   275 symmetry adapted basis functions of A   symmetry.
   275 basis functions,   483 primitive gaussians,   275 cartesian basis functions
    49 alpha electrons       49 beta electrons
       nuclear repulsion energy       780.5038317439 Hartrees.
 NAtoms=   27 NActive=   27 NUniq=   27 SFac= 1.00D+00 NAtFMM=   60 NAOKFM=F Big=F
 Integral buffers will be    131072 words long.
 Raffenetti 2 integral format.
 Two-electron integral symmetry is turned on.
 Nuclear repulsion after empirical dispersion term =      780.4493302069 Hartrees.
 One-electron integrals computed using PRISM.
 NBasis=   275 RedAO= T EigKep=  4.08D-04  NBF=   275
 NBsUse=   275 1.00D-06 EigRej= -1.00D+00 NBFU=   275
 Initial guess from the checkpoint file:  "N4_conf-2.chk"
 B after Tr=    -0.000000    0.000000    0.000000
         Rot=    1.000000    0.000793    0.000119   -0.000033 Ang=   0.09 deg.
 ExpMin= 1.61D-01 ExpMax= 4.17D+03 ExpMxC= 6.27D+02 IAcc=3 IRadAn=         5 AccDes= 0.00D+00
 Harris functional with IExCor=  402 and IRadAn=       5 diagonalized for initial guess.
 HarFok:  IExCor=  402 AccDes= 0.00D+00 IRadAn=         5 IDoV= 1 UseB2=F ITyADJ=14
 ICtDFT=  3500011 ScaDFX=  1.000000  1.000000  1.000000  1.000000
 FoFCou: FMM=F IPFlag=           0 FMFlag=      100000 FMFlg1=           0
         NFxFlg=           0 DoJE=T BraDBF=F KetDBF=T FulRan=T
         wScrn=  0.000000 ICntrl=       500 IOpCl=  0 I1Cent=   200000004 NGrid=           0
         NMat0=    1 NMatS0=      1 NMatT0=    0 NMatD0=    1 NMtDS0=    0 NMtDT0=    0
 Petite list used in FoFCou.
 Requested convergence on RMS density matrix=1.00D-08 within 128 cycles.
 Requested convergence on MAX density matrix=1.00D-06.
 Requested convergence on             energy=1.00D-06.
 No special actions if energy rises.
 Integral accuracy reduced to 1.0D-05 until final iterations.
 Initial convergence to 1.0D-05 achieved.  Increase integral accuracy.
 SCF Done:  E(RB3LYP) =  -558.041117722     A.U. after   11 cycles
            NFock= 11  Conv=0.93D-08     -V/T= 2.0099
 Calling FoFJK, ICntrl=      2127 FMM=F ISym2X=0 I1Cent= 0 IOpClX= 0 NMat=1 NMatS=1 NMatT=0.
 ***** Axes restored to original set *****
 -------------------------------------------------------------------
 Center     Atomic                   Forces (Hartrees/Bohr)
 Number     Number              X              Y              Z
 -------------------------------------------------------------------
      1        7           0.000819979    0.003092888   -0.000097292
      2        6          -0.001847922   -0.003766529   -0.000784161
      3        6           0.001655061    0.001670608    0.000468517
      4        6          -0.003707021   -0.001505562   -0.000055861
      5        6           0.001992712    0.000079092    0.000161100
      6        6          -0.002997820   -0.001167274    0.000333107
      7        6           0.003003808    0.000076821   -0.000371057
      8        6          -0.002250623   -0.000945635    0.000552102
      9        6           0.001323057    0.000462340   -0.000451708
     10        6          -0.000719397   -0.000027550    0.000061093
     11        6           0.001380715   -0.000352883    0.000206288
     12        6          -0.002302773    0.000760178   -0.000103026
     13        6           0.003073957    0.001294414   -0.000552200
     14        6          -0.003506636   -0.000493480    0.000480782
     15        1           0.000325168    0.000053561    0.000276830
     16        1           0.000102494   -0.000042502    0.000251163
     17        1           0.001393359    0.000213833   -0.000515326
     18        1           0.001430506   -0.000262254    0.000162910
     19        1           0.000160313    0.000610504   -0.000189244
     20        1          -0.000387615    0.000066439   -0.000098015
     21        1           0.000128716    0.000286749   -0.000008131
     22        1           0.000066857   -0.000212091    0.000133157
     23        1           0.000482270    0.000016638   -0.000045871
     24        1           0.000034432    0.000217261   -0.000138666
     25        1           0.000172353   -0.000236741   -0.000012843
     26        1          -0.000141903   -0.000145860    0.000181511
     27        1           0.000315952    0.000257035    0.000154839
 -------------------------------------------------------------------
 Cartesian Forces:  Max     0.003766529 RMS     0.001222466

 GradGradGradGradGradGradGradGradGradGradGradGradGradGradGradGradGradGrad
 Berny optimization.
 Using GEDIIS/GDIIS optimizer.
 FormGI is forming the generalized inverse of G from B-inverse, IUseBI=4.
 Internal  Forces:  Max     0.003168905 RMS     0.000671537
 Search for a local minimum.
 Step number   2 out of a maximum of  147
 All quantities printed in internal units (Hartrees-Bohrs-Radians)
 Mixed Optimization -- En-DIIS/RFO-DIIS
 Update second derivatives using D2CorX and points    1    2
 DE= -2.19D-03 DEPred=-2.52D-03 R= 8.69D-01
 TightC=F SS=  1.41D+00  RLast= 2.05D-01 DXNew= 5.0454D-01 6.1468D-01
 Trust test= 8.69D-01 RLast= 2.05D-01 DXMaxT set to 5.05D-01
 ITU=  1  0
 Use linear search instead of GDIIS.
     Eigenvalues ---    0.00384   0.00856   0.00935   0.01413   0.01692
     Eigenvalues ---    0.01710   0.02083   0.02097   0.02117   0.02125
[...]
 Alpha virt. eigenvalues --    1.27963   1.28860   1.30915   1.31316   1.31620
 Alpha virt. eigenvalues --    1.32763   1.33324   1.34716   1.36367   1.37136
 Alpha virt. eigenvalues --    1.37539   1.38500   1.39856   1.42671   1.44192
 Alpha virt. eigenvalues --    1.44618   1.44786   1.47100   1.47969   1.49012
 Alpha virt. eigenvalues --    1.49612   1.50414   1.51836   1.53582   1.55099
 Alpha virt. eigenvalues --    1.55643   1.56371   1.58045   1.59205   1.59668
 Alpha virt. eigenvalues --    1.60283   1.60871   1.61561   1.63434   1.63980
 Alpha virt. eigenvalues --    1.64416   1.67171   1.68234   1.70097   1.70163
 Alpha virt. eigenvalues --    1.71530   1.72761   1.73333   1.74734   1.75623
 Alpha virt. eigenvalues --    1.76051   1.77404   1.77945   1.78913   1.79727
 Alpha virt. eigenvalues --    1.80324   1.84681   1.85756   1.86535   1.89451
 Alpha virt. eigenvalues --    1.90648   1.91627   1.91897   1.93592   1.95214
 Alpha virt. eigenvalues --    1.95426   1.96615   1.97615   1.98766   2.02798
 Alpha virt. eigenvalues --    2.03501   2.03676   2.05613   2.05987   2.06516
 Alpha virt. eigenvalues --    2.08177   2.09132   2.09484   2.11708   2.12482
 Alpha virt. eigenvalues --    2.14866   2.16929   2.18156   2.20080   2.20740
 Alpha virt. eigenvalues --    2.22074   2.22108   2.23643   2.25647   2.27096
 Alpha virt. eigenvalues --    2.27376   2.27578   2.29854   2.31078   2.34781
 Alpha virt. eigenvalues --    2.36831   2.37478   2.42361   2.43170   2.44346
 Alpha virt. eigenvalues --    2.45868   2.48034   2.48635   2.49696   2.51455
 Alpha virt. eigenvalues --    2.52437   2.54238   2.55438   2.56242   2.58170
 Alpha virt. eigenvalues --    2.60004   2.60436   2.61030   2.62834   2.63469
 Alpha virt. eigenvalues --    2.63764   2.64357   2.65922   2.66619   2.67216
 Alpha virt. eigenvalues --    2.68299   2.68751   2.69732   2.69864   2.70707
 Alpha virt. eigenvalues --    2.71551   2.73230   2.73387   2.74848   2.75152
 Alpha virt. eigenvalues --    2.76180   2.76945   2.77882   2.78078   2.79239
 Alpha virt. eigenvalues --    2.79455   2.81231   2.82573   2.83506   2.83670
 Alpha virt. eigenvalues --    2.84329   2.85111   2.86302   2.86834   2.87598
 Alpha virt. eigenvalues --    2.87926   2.89222   2.89853   2.91981   2.92857
 Alpha virt. eigenvalues --    2.94009   2.96020   2.97169   2.98409   3.02013
 Alpha virt. eigenvalues --    3.02800   3.03315   3.04525   3.05349   3.05911
 Alpha virt. eigenvalues --    3.07298   3.07745   3.09180   3.10286   3.11725
 Alpha virt. eigenvalues --    3.13190   3.14026   3.14916   3.15074   3.16043
 Alpha virt. eigenvalues --    3.16280   3.17230   3.17361   3.18126   3.18617
 Alpha virt. eigenvalues --    3.19596   3.20860   3.21900   3.24024   3.25044
 Alpha virt. eigenvalues --    3.25204   3.26573   3.27531   3.28877   3.28903
 Alpha virt. eigenvalues --    3.29648   3.31430   3.32003   3.32466   3.34537
 Alpha virt. eigenvalues --    3.35266   3.36887   3.38023   3.38790   3.39096
 Alpha virt. eigenvalues --    3.39154   3.40746   3.41749   3.42908   3.43646
 Alpha virt. eigenvalues --    3.44417   3.44811   3.45885   3.46625   3.47890
 Alpha virt. eigenvalues --    3.48308   3.49402   3.49455   3.51331   3.52582
 Alpha virt. eigenvalues --    3.53514   3.54727   3.55922   3.56819   3.58734
 Alpha virt. eigenvalues --    3.59503   3.60732   3.62880   3.63468   3.64429
 Alpha virt. eigenvalues --    3.69140   3.69405   3.70403   3.75040   3.76171
 Alpha virt. eigenvalues --    3.77201   3.80174   3.81437   3.81505   3.86436
 Alpha virt. eigenvalues --    3.88111   3.89764   3.92321   3.93317   3.94975
 Alpha virt. eigenvalues --    3.95846   3.97343   4.00983   4.01406   4.03243
 Alpha virt. eigenvalues --    4.03933   4.06511   4.07985   4.10675   4.12426
 Alpha virt. eigenvalues --    4.13296   4.14394   4.15122   4.16500   4.17588
 Alpha virt. eigenvalues --    4.18534   4.19011   4.19930   4.20456   4.21948
 Alpha virt. eigenvalues --    4.22367   4.23564   4.24548   4.26022   4.28833
 Alpha virt. eigenvalues --    4.29927   4.31493   4.32361   4.35320   4.36277
 Alpha virt. eigenvalues --    4.40698   4.41784   4.42281   4.50772   4.54900
 Alpha virt. eigenvalues --    4.57344   4.58505   4.59301   4.60789   4.61865
 Alpha virt. eigenvalues --    4.63771   4.67187   4.67622   4.71489   4.74543
 Alpha virt. eigenvalues --    4.81078   4.82728   4.84521   4.84675   4.86959
 Alpha virt. eigenvalues --    4.88787   4.89614   4.91099   4.94524   4.96767
 Alpha virt. eigenvalues --    5.05758   5.07343   5.11008   5.11707   5.16467
 Alpha virt. eigenvalues --    5.19457   5.22233   5.25046   5.25767   5.28712
 Alpha virt. eigenvalues --    5.33284   5.37014   5.40278   5.44728   5.53060
 Alpha virt. eigenvalues --    5.56492   5.56793   5.72211   5.78196  22.03107
 Alpha virt. eigenvalues --   22.40973  22.59076  22.66462  22.69888  22.80303
 Alpha virt. eigenvalues --   22.81067  22.82841  22.86891  22.92998  23.01698
 Alpha virt. eigenvalues --   23.28918  23.48402  32.04781
          Condensed to atoms (all electrons):
               1          2          3          4          5          6
     1  N    6.730677   0.243503  -0.082017   0.012425  -0.015567   0.001918
     2  C    0.243503   5.025515   0.294190  -0.085144   0.019414  -0.005565
     3  C   -0.082017   0.294190   5.408810   0.127097   0.174291  -0.152136
     4  C    0.012425  -0.085144   0.127097   5.442752   0.174149   0.114031
     5  C   -0.015567   0.019414   0.174291   0.174149   5.314891   0.326311
     6  C    0.001918  -0.005565  -0.152136   0.114031   0.326311   5.095061
     7  C   -0.000014  -0.000167  -0.000329   0.003579  -0.070397   0.276264
     8  C    0.000001  -0.000004  -0.000454   0.003692  -0.007016  -0.073326
     9  C    0.000000   0.000000  -0.000024   0.000051   0.001959   0.005921
    10  C    0.000000  -0.000000  -0.000000  -0.000025  -0.000167  -0.001886
    11  C   -0.000000  -0.000000  -0.000016   0.000103  -0.000449   0.005436
    12  C    0.000000   0.000002  -0.000125  -0.000297   0.006995  -0.073432
    13  C   -0.001621   0.018434   0.053802  -0.166121   0.084634   0.407856
    14  C    0.012232  -0.083043   0.328450   0.127873  -0.170346   0.030577
    15  H    0.366533  -0.045477   0.011840   0.001156   0.000384  -0.000032
    16  H    0.362042  -0.039835   0.006586  -0.008935   0.001235  -0.000470
    17  H   -0.039360   0.384478  -0.000422  -0.018131   0.000277  -0.000016
    18  H   -0.052470   0.466727  -0.124058   0.030882  -0.004106   0.001669
    19  H    0.027274  -0.007151  -0.044291   0.427362  -0.053561   0.010336
    20  H   -0.000296  -0.000143   0.005536  -0.021590   0.398104  -0.041304
    21  H    0.000001  -0.000001  -0.000159   0.001631   0.001538   0.004558
    22  H   -0.000000  -0.000000   0.000000   0.000001   0.000044  -0.000154
    23  H   -0.000000  -0.000000   0.000000  -0.000000  -0.000006   0.000115
    24  H   -0.000000   0.000000   0.000001  -0.000001   0.000037  -0.000148
    25  H    0.000000  -0.000000  -0.000090  -0.000076   0.000121   0.004230
    26  H    0.000006  -0.000269   0.004380  -0.002359   0.008146  -0.037440
    27  H   -0.000355  -0.008152  -0.048936   0.017857  -0.005639   0.007657
               7          8          9         10         11         12
     1  N   -0.000014   0.000001   0.000000   0.000000  -0.000000   0.000000
     2  C   -0.000167  -0.000004   0.000000  -0.000000  -0.000000   0.000002
     3  C   -0.000329  -0.000454  -0.000024  -0.000000  -0.000016  -0.000125
     4  C    0.003579   0.003692   0.000051  -0.000025   0.000103  -0.000297
     5  C   -0.070397  -0.007016   0.001959  -0.000167  -0.000449   0.006995
     6  C    0.276264  -0.073326   0.005921  -0.001886   0.005436  -0.073432
     7  C    4.951791   0.502439  -0.057434  -0.040993  -0.058093   0.503036
     8  C    0.502439   5.017209   0.508186  -0.039941  -0.050472  -0.024407
     9  C   -0.057434   0.508186   4.900966   0.522016  -0.038848  -0.050939
    10  C   -0.040993  -0.039941   0.522016   4.881701   0.521756  -0.039636
    11  C   -0.058093  -0.050472  -0.038848   0.521756   4.901183   0.508559
    12  C    0.503036  -0.024407  -0.050939  -0.039636   0.508559   5.016769
    13  C   -0.069896   0.006762  -0.000467  -0.000140   0.002062  -0.005845
    14  C    0.003194  -0.000685   0.000099  -0.000027   0.000035   0.003020
    15  H    0.000001   0.000000  -0.000000  -0.000000   0.000000  -0.000000
    16  H   -0.000004  -0.000000  -0.000000  -0.000000   0.000000   0.000000
    17  H    0.000000  -0.000001  -0.000000   0.000000   0.000000  -0.000001
    18  H    0.000002   0.000001   0.000000   0.000000  -0.000000  -0.000000
    19  H   -0.000089   0.000038   0.000002   0.000000  -0.000000   0.000030
    20  H    0.001762   0.002079   0.000885  -0.000120  -0.000075  -0.000087
    21  H   -0.036924   0.392142  -0.017954   0.001946   0.000082   0.004965
    22  H    0.004931  -0.031481   0.406621  -0.032299   0.003958  -0.000156
    23  H    0.000599   0.004410  -0.034632   0.410243  -0.034744   0.004453
    24  H    0.004951  -0.000129   0.003916  -0.032218   0.406640  -0.031637
    25  H   -0.036472   0.005049   0.000070   0.001872  -0.017534   0.391250
    26  H    0.002399  -0.000218  -0.000064  -0.000121   0.000917   0.002423
    27  H    0.000080   0.000047   0.000000  -0.000000   0.000000   0.000017
              13         14         15         16         17         18
     1  N   -0.001621   0.012232   0.366533   0.362042  -0.039360  -0.052470
     2  C    0.018434  -0.083043  -0.045477  -0.039835   0.384478   0.466727
     3  C    0.053802   0.328450   0.011840   0.006586  -0.000422  -0.124058
     4  C   -0.166121   0.127873   0.001156  -0.008935  -0.018131   0.030882
     5  C    0.084634  -0.170346   0.000384   0.001235   0.000277  -0.004106
     6  C    0.407856   0.030577  -0.000032  -0.000470  -0.000016   0.001669
     7  C   -0.069896   0.003194   0.000001  -0.000004   0.000000   0.000002
     8  C    0.006762  -0.000685   0.000000  -0.000000  -0.000001   0.000001
     9  C   -0.000467   0.000099  -0.000000  -0.000000  -0.000000   0.000000
    10  C   -0.000140  -0.000027  -0.000000  -0.000000   0.000000   0.000000
    11  C    0.002062   0.000035   0.000000   0.000000   0.000000  -0.000000
    12  C   -0.005845   0.003020  -0.000000   0.000000  -0.000001  -0.000000
    13  C    5.102234   0.405893   0.000101  -0.000008  -0.001149  -0.000393
    14  C    0.405893   5.130046  -0.001952   0.000822   0.001799   0.008141
    15  H    0.000101  -0.001952   0.478263  -0.032762  -0.005482  -0.003428
    16  H   -0.000008   0.000822  -0.032762   0.475513   0.009059  -0.008743
    17  H   -0.001149   0.001799  -0.005482   0.009059   0.569347  -0.045567
    18  H   -0.000393   0.008141  -0.003428  -0.008743  -0.045567   0.596030
    19  H   -0.004126   0.013113  -0.000860  -0.001820  -0.001052   0.001555
    20  H    0.007519  -0.001283   0.000001   0.000040   0.000028  -0.000016
    21  H   -0.000002  -0.000091  -0.000000  -0.000000  -0.000000   0.000000
    22  H    0.000036  -0.000000   0.000000   0.000000   0.000000  -0.000000
    23  H   -0.000006  -0.000000  -0.000000  -0.000000  -0.000000   0.000000
    24  H    0.000054  -0.000002   0.000000  -0.000000  -0.000000   0.000000
    25  H    0.002169   0.001035   0.000000   0.000000   0.000000  -0.000000
    26  H    0.392084  -0.018029  -0.000000   0.000004   0.000024  -0.000116
    27  H   -0.023987   0.399528  -0.000098  -0.000131   0.000186   0.006931
              19         20         21         22         23         24
     1  N    0.027274  -0.000296   0.000001  -0.000000  -0.000000  -0.000000
     2  C   -0.007151  -0.000143  -0.000001  -0.000000  -0.000000   0.000000
     3  C   -0.044291   0.005536  -0.000159   0.000000   0.000000   0.000001
     4  C    0.427362  -0.021590   0.001631   0.000001  -0.000000  -0.000001
     5  C   -0.053561   0.398104   0.001538   0.000044  -0.000006   0.000037
     6  C    0.010336  -0.041304   0.004558  -0.000154   0.000115  -0.000148
     7  C   -0.000089   0.001762  -0.036924   0.004931   0.000599   0.004951
     8  C    0.000038   0.002079   0.392142  -0.031481   0.004410  -0.000129
     9  C    0.000002   0.000885  -0.017954   0.406621  -0.034632   0.003916
    10  C    0.000000  -0.000120   0.001946  -0.032299   0.410243  -0.032218
    11  C   -0.000000  -0.000075   0.000082   0.003958  -0.034744   0.406640
    12  C    0.000030  -0.000087   0.004965  -0.000156   0.004453  -0.031637
    13  C   -0.004126   0.007519  -0.000002   0.000036  -0.000006   0.000054
    14  C    0.013113  -0.001283  -0.000091  -0.000000  -0.000000  -0.000002
    15  H   -0.000860   0.000001  -0.000000   0.000000  -0.000000   0.000000
    16  H   -0.001820   0.000040  -0.000000   0.000000  -0.000000  -0.000000
    17  H   -0.001052   0.000028  -0.000000   0.000000  -0.000000  -0.000000
    18  H    0.001555  -0.000016   0.000000  -0.000000   0.000000   0.000000
    19  H    0.465987  -0.003599   0.000069   0.000000  -0.000000   0.000000
    20  H   -0.003599   0.490136  -0.002859   0.000063   0.000000   0.000002
    21  H    0.000069  -0.002859   0.489749  -0.003512  -0.000272   0.000068
    22  H    0.000000   0.000063  -0.003512   0.513124  -0.003941  -0.000282
    23  H   -0.000000   0.000000  -0.000272  -0.003941   0.515266  -0.003943
    24  H    0.000000   0.000002   0.000068  -0.000282  -0.003943   0.513346
    25  H    0.000001   0.000032  -0.000254   0.000068  -0.000273  -0.003528
    26  H    0.000023  -0.000212   0.000026   0.000002   0.000000   0.000065
    27  H   -0.000009   0.000037   0.000003   0.000000  -0.000000   0.000000
              25         26         27
     1  N    0.000000   0.000006  -0.000355
     2  C   -0.000000  -0.000269  -0.008152
     3  C   -0.000090   0.004380  -0.048936
     4  C   -0.000076  -0.002359   0.017857
     5  C    0.000121   0.008146  -0.005639
     6  C    0.004230  -0.037440   0.007657
     7  C   -0.036472   0.002399   0.000080
     8  C    0.005049  -0.000218   0.000047
     9  C    0.000070  -0.000064   0.000000
    10  C    0.001872  -0.000121  -0.000000
    11  C   -0.017534   0.000917   0.000000
    12  C    0.391250   0.002423   0.000017
    13  C    0.002169   0.392084  -0.023987
    14  C    0.001035  -0.018029   0.399528
    15  H    0.000000  -0.000000  -0.000098
    16  H    0.000000   0.000004  -0.000131
    17  H    0.000000   0.000024   0.000186
    18  H   -0.000000  -0.000116   0.006931
    19  H    0.000001   0.000023  -0.000009
    20  H    0.000032  -0.000212   0.000037
    21  H   -0.000254   0.000026   0.000003
    22  H    0.000068   0.000002   0.000000
    23  H   -0.000273   0.000000  -0.000000
    24  H   -0.003528   0.000065   0.000000
    25  H    0.490051  -0.002770   0.000052
    26  H   -0.002770   0.489915  -0.003490
    27  H    0.000052  -0.003490   0.516540
 Mulliken charges:
               1
     1  N   -0.564914
     2  C   -0.177313
     3  C    0.038073
     4  C   -0.181963
     5  C   -0.185277
     6  C    0.093968
     7  C    0.115783
     8  C   -0.213920
     9  C   -0.150331
    10  C   -0.151962
    11  C   -0.150498
    12  C   -0.214960
    13  C   -0.209878
    14  C   -0.190397
    15  H    0.231812
    16  H    0.237408
    17  H    0.145983
    18  H    0.126960
    19  H    0.170768
    20  H    0.165359
    21  H    0.165249
    22  H    0.142978
    23  H    0.142729
    24  H    0.142808
    25  H    0.164998
    26  H    0.164672
    27  H    0.141864
 Sum of Mulliken charges =  -0.00000
 Mulliken charges with hydrogens summed into heavy atoms:
               1
     1  N   -0.095694
     2  C    0.095630
     3  C    0.038073
     4  C   -0.011194
     5  C   -0.019918
     6  C    0.093968
     7  C    0.115783
     8  C   -0.048671
     9  C   -0.007354
    10  C   -0.009232
    11  C   -0.007689
    12  C   -0.049962
    13  C   -0.045206
    14  C   -0.048534
 Electronic spatial extent (au):  <R**2>=           3863.9673
 Charge=              0.0000 electrons
 Dipole moment (field-independent basis, Debye):
    X=              1.0910    Y=              0.7047    Z=              0.7520  Tot=              1.5008
 Quadrupole moment (field-independent basis, Debye-Ang):
   XX=            -66.2952   YY=            -78.1416   ZZ=            -87.0404
   XY=              3.1374   XZ=              3.3825   YZ=             -1.3699
 Traceless Quadrupole moment (field-independent basis, Debye-Ang):
   XX=             10.8639   YY=             -0.9825   ZZ=             -9.8813
   XY=              3.1374   XZ=              3.3825   YZ=             -1.3699
 Octapole moment (field-independent basis, Debye-Ang**2):
  XXX=             61.6708  YYY=              1.5277  ZZZ=              1.9333  XYY=             -9.5774
  XXY=             10.3055  XXZ=             15.7084  XZZ=             18.5270  YZZ=             -2.2047
  YYZ=              3.9527  XYZ=              2.4518
 Hexadecapole moment (field-independent basis, Debye-Ang**3):
 XXXX=          -3775.3210 YYYY=           -585.6890 ZZZZ=           -173.8128 XXXY=             20.8381
 XXXZ=             75.8771 YYYX=             10.4481 YYYZ=             -2.2613 ZZZX=              9.6908
 ZZZY=             -3.7011 XXYY=           -847.1974 XXZZ=           -809.8039 YYZZ=           -129.0125
 XXYZ=            -55.4234 YYXZ=             11.6245 ZZXY=             -9.8310
 N-N= 7.803845321533D+02 E-N=-2.855191991940D+03  KE= 5.548593625428D+02
 Unable to Open any file for archive entry.
 1\1\GINC-NOTCH280\SP\RM062X\def2TZVP\C13H13N1\U6032257\21-Feb-2022\0\\
 # M062X/def2tzvp int=(grid=ultrafine) nmr=giao guess=read geom=check\\
 N4.xyz\\0,1\N,0,4.6308609818,-0.9442709225,0.1923320854\C,0,3.97244963
 2,0.1861844328,-0.4681986053\C,0,2.471001295,0.1409965032,-0.280166017
 \C,0,1.7871243584,-1.0798365857,-0.2480743318\C,0,0.4035998082,-1.1152
 953649,-0.1063397343\C,0,-0.3457669061,0.0667085967,0.0082522714\C,0,-
 1.8187365169,0.0269160593,0.1606013925\C,0,-2.4381004776,-0.9760863185
 ,0.9232612866\C,0,-3.8233556281,-1.0144204333,1.0651030594\C,0,-4.6200
 885297,-0.0483120122,0.4494309333\C,0,-4.0181670374,0.955364837,-0.310
 544344\C,0,-2.6330664393,0.9913597311,-0.4542588045\C,0,0.3455555624,1
 .2870998923,-0.0208135871\C,0,1.7305364741,1.3207085543,-0.158993048\H
 ,0,5.6297975615,-0.9208734815,0.0057606243\H,0,4.5169687176,-0.8627553
 651,1.2000899752\H,0,4.2024739905,0.1124684611,-1.5401277502\H,0,4.335
 8733456,1.1773691199,-0.146315279\H,0,2.3580539861,-1.9980454176,-0.33
 39252218\H,0,-0.1103485655,-2.0716141416,-0.1102047001\H,0,-1.82382081
 35,-1.7149331629,1.4280813429\H,0,-4.280886393,-1.7950038516,1.6656517
 283\H,0,-5.6996146275,-0.0774275584,0.5606180947\H,0,-4.6293964292,1.7
 069703593,-0.8012625305\H,0,-2.1746913435,1.7585582122,-1.0702866165\H
 ,0,-0.2045163251,2.2149237641,0.1011880039\H,0,2.2455603191,2.27824609
 25,-0.1607602281\\Version=ES64L-G16RevC.01\State=1-A\HF=-557.9253451\R
 MSD=1.951e-09\Dipole=0.4515371,0.345281,0.1598451\Quadrupole=8.3908542
 ,-2.2298287,-6.1610256,2.5137267,0.5689605,-3.0598978\PG=C01 [X(C13H13
 N1)]\\@
 The archive entry for this job was punched.


 THERE IS AN OLD, OLD RECIPE IN MAINE FOR STEWING COOT. PLACE THE
 BIRD IN A KETTLE OF WATER WITH A RED BUILDING BRICK FREE OF MORTAR AND
 BLEMISHES. PARBOIL THE COOT AND BRICK TOGETHER FOR THREE HOURS.
 POUR OFF THE WATER, REFILL THE KETTLE, AND AGAIN PARBOIL FOR THREE HOURS.
 ONCE AGAIN POUR OFF THE WATER, FOR THE LAST TIME ADD FRESH WATER,
 AND LET THE COOT AND BRICK SIMMER TOGETHER OVERNIGHT. IN THE MORNING,
 THROW AWAY THE COOT AND EAT THE BRICK.
 Job cpu time:       0 days  0 hours 49 minutes 49.9 seconds.
 Elapsed time:       0 days  0 hours  0 minutes 55.4 seconds.
 File lengths (MBytes):  RWF=    149 Int=      0 D2E=      0 Chk=     25 Scr=      1
 Normal termination of Gaussian 16 at Mon Feb 21 19:34:32 2022.
