 Entering Gaussian System, Link 0=/uufs/chpc.utah.edu/sys/installdir/gaussian16/C01/AVX2/g16/g16
 Input=N4_conf-1.com
 Output=N4_conf-1.log
 Initial command:
 /uufs/chpc.utah.edu/sys/installdir/gaussian16/C01/AVX2/g16/l1.exe "/scratch/local/u6032257/4038752/notchpeak.peaks/Gau-78889.inp" -scrdir="/scratch/local/u6032257/4038752/notchpeak.peaks/"
 Entering Link 1 = /uufs/chpc.utah.edu/sys/installdir/gaussian16/C01/AVX2/g16/l1.exe PID=     78891.
  
 Copyright (c) 1988-2019, Gaussian, Inc.  All Rights Reserved.
  
 This is part of the Gaussian(R) 16 program.  It is based on
 the Gaussian(R) 09 system (copyright 2009, Gaussian, Inc.),
 the Gaussian(R) 03 system (copyright 2003, Gaussian, Inc.),
 the Gaussian(R) 98 system (copyright 1998, Gaussian, Inc.),
 the Gaussian(R) 94 system (copyright 1995, Gaussian, Inc.),
 the Gaussian 92(TM) system (copyright 1992, Gaussian, Inc.),
 the Gaussian 90(TM) system (copyright 1990, Gaussian, Inc.),
 the Gaussian 88(TM) system (copyright 1988, Gaussian, Inc.),
 the Gaussian 86(TM) system (copyright 1986, Carnegie Mellon
 University), and the Gaussian 82(TM) system (copyright 1983,
 Carnegie Mellon University). Gaussian is a federally registered
 trademark of Gaussian, Inc.
  
 This software contains proprietary and confidential information,
 including trade secrets, belonging to Gaussian, Inc.
  
 This software is provided under written license and may be
 used, copied, transmitted, or stored only in accord with that
 written license.
  
 The following legend is applicable only to US Government
 contracts under FAR:
  
                    RESTRICTED RIGHTS LEGEND
  
 Use, reproduction and disclosure by the US Government is
 subject to restrictions as set forth in subparagraphs (a)
 and (c) of the Commercial Computer Software - Restricted
 Rights clause in FAR 52.227-19.
  
 Gaussian, Inc.
 340 Quinnipiac St., Bldg. 40, Wallingford CT 06492
  
  
 ---------------------------------------------------------------
 Warning -- This program may not be used in any manner that
 competes with the business of Gaussian, Inc. or will provide
 assistance to any competitor of Gaussian, Inc.  The licensee
 of this program is prohibited from giving any competitor of
 Gaussian, Inc. access to this program.  By using this program,
 the user acknowledges that Gaussian, Inc. is engaged in the
 business of creating and licensing software in the field of
 computational chemistry and represents and warrants to the
 licensee that it is not a competitor of Gaussian, Inc. and that
 it will not use this program in any manner prohibited above.
 ---------------------------------------------------------------
  

 Cite this work as:
 Gaussian 16, Revision C.01,
 M. J. Frisch, G. W. Trucks, H. B. Schlegel, G. E. Scuseria, 
 M. A. Robb, J. R. Cheeseman, G. Scalmani, V. Barone, 
 G. A. Petersson, H. Nakatsuji, X. Li, M. Caricato, A. V. Marenich, 
 J. Bloino, B. G. Janesko, R. Gomperts, B. Mennucci, H. P. Hratchian, 
 J. V. Ortiz, A. F. Izmaylov, J. L. Sonnenberg, D. Williams-Young, 
 F. Ding, F. Lipparini, F. Egidi, J. Goings, B. Peng, A. Petrone, 
 T. Henderson, D. Ranasinghe, V. G. Zakrzewski, J. Gao, N. Rega, 
 G. Zheng, W. Liang, M. Hada, M. Ehara, K. Toyota, R. Fukuda, 
 J. Hasegawa, M. Ishida, T. Nakajima, Y. Honda, O. Kitao, H. Nakai, 
 T. Vreven, K. Throssell, J. A. Montgomery, Jr., J. E. Peralta, 
 F. Ogliaro, M. J. Bearpark, J. J. Heyd, E. N. Brothers, K. N. Kudin, 
 V. N. Staroverov, T. A. Keith, R. Kobayashi, J. Normand, 
 K. Raghavachari, A. P. Rendell, J. C. Burant, S. S. Iyengar, 
 J. Tomasi, M. Cossi, J. M. Millam, M. Klene, C. Adamo, R. Cammi, 
 J. W. Ochterski, R. L. Martin, K. Morokuma, O. Farkas, 
 J. B. Foresman, and D. J. Fox, Gaussian, Inc., Wallingford CT, 2019.
 
 ******************************************
 Gaussian 16:  ES64L-G16RevC.01  3-Jul-2019
                21-Feb-2022 
 ******************************************
 %NProcShared=64
 Will use up to   64 processors via shared memory.
 %mem=16GB
 %chk=N4_conf-1.chk
 ----------------------------------------------------------------------
 # B3LYP/6-31G(d,p) empiricaldispersion=GD3BJ int=(grid=ultrafine) opt 
 freq=noraman
 ----------------------------------------------------------------------
 1/18=20,19=15,26=4,38=1/1,3;
 2/9=110,12=2,17=6,18=5,40=1/2;
 3/5=1,6=6,7=101,11=2,25=1,30=1,71=1,74=-5,75=-5,124=41/1,2,3;
 4//1;
 5/5=2,38=5/2;
 6/7=2,8=2,9=2,10=2,28=1/1;
 7//1,2,3,16;
 1/18=20,19=15,26=4/3(2);
 2/9=110/2;
 99//99;
 2/9=110/2;
 3/5=1,6=6,7=101,11=2,25=1,30=1,71=1,74=-5,75=-5,124=41/1,2,3;
 4/5=5,16=3,69=1/1;
 5/5=2,38=5/2;
 7//1,2,3,16;
 1/18=20,19=15,26=4/3(-5);
 2/9=110/2;
 6/7=2,8=2,9=2,10=2,19=2,28=1/1;
 99/9=1/99;
 ------
 N4.xyz
 ------
 Symbolic Z-matrix:
 Charge =  0 Multiplicity = 1
 N                     4.7241   -0.671     0.4001 
 C                     3.9582    0.1134   -0.5597 
 C                     2.4471    0.0659   -0.3351 
 C                     1.8315   -0.9435    0.4133 
 C                     0.4484   -0.9542    0.5747 
 C                    -0.3498    0.0359   -0.0109 
 C                    -1.8326    0.0232    0.1634 
 C                    -2.5431    1.2196    0.3314 
 C                    -3.9263    1.2105    0.4947 
 C                    -4.6125   -0.0007    0.4897 
 C                    -3.9256   -1.2       0.3236 
 C                    -2.5423   -1.1853    0.1621 
 C                     0.2732    1.0356   -0.7678 
 C                     1.6561    1.0483   -0.9331 
 H                     4.6663   -0.2274    1.3067 
 H                     5.7034   -0.668     0.1513 
 H                     4.1635   -0.2544   -1.5672 
 H                     4.2965    1.1511   -0.5188 
 H                     2.4243   -1.7242    0.8675 
 H                    -0.001    -1.7355    1.1693 
 H                    -2.0195    2.164     0.3504 
 H                    -4.4629    2.1388    0.6276 
 H                    -5.6857   -0.01      0.6157 
 H                    -4.4622   -2.1377    0.3167 
 H                    -2.0213   -2.1208    0.0205 
 H                    -0.3185    1.8008   -1.2477 
 H                     2.1105    1.8256   -1.5299 
 

 GradGradGradGradGradGradGradGradGradGradGradGradGradGradGradGradGradGrad
 Berny optimization.
 Initialization pass.
                           ----------------------------
                           !    Initial Parameters    !
                           ! (Angstroms and Degrees)  !
 --------------------------                            --------------------------
 ! Name  Definition              Value          Derivative Info.                !
 --------------------------------------------------------------------------------
 ! R1    R(1,2)                  1.4571         estimate D2E/DX2                !
 ! R2    R(1,15)                 1.011          estimate D2E/DX2                !
 ! R3    R(1,16)                 1.0104         estimate D2E/DX2                !
 ! R4    R(2,3)                  1.5284         estimate D2E/DX2                !
 ! R5    R(2,17)                 1.092          estimate D2E/DX2                !
 ! R6    R(2,18)                 1.0922         estimate D2E/DX2                !
 ! R7    R(3,4)                  1.3993         estimate D2E/DX2                !
 ! R8    R(3,14)                 1.3958         estimate D2E/DX2                !
 ! R9    R(4,5)                  1.3925         estimate D2E/DX2                !
 ! R10   R(4,19)                 1.0804         estimate D2E/DX2                !
 ! R11   R(5,6)                  1.4001         estimate D2E/DX2                !
 ! R12   R(5,20)                 1.0798         estimate D2E/DX2                !
 ! R13   R(6,7)                  1.4931         estimate D2E/DX2                !
 ! R14   R(6,13)                 1.4002         estimate D2E/DX2                !
 ! R15   R(7,8)                  1.4016         estimate D2E/DX2                !
 ! R16   R(7,12)                 1.4015         estimate D2E/DX2                !
 ! R17   R(8,9)                  1.3928         estimate D2E/DX2                !
 ! R18   R(8,21)                 1.08           estimate D2E/DX2                !
 ! R19   R(9,10)                 1.3921         estimate D2E/DX2                !
 ! R20   R(9,22)                 1.0804         estimate D2E/DX2                !
 ! R21   R(10,11)                1.392          estimate D2E/DX2                !
 ! R22   R(10,23)                1.0806         estimate D2E/DX2                !
 ! R23   R(11,12)                1.3928         estimate D2E/DX2                !
 ! R24   R(11,24)                1.0804         estimate D2E/DX2                !
 ! R25   R(12,25)                1.0801         estimate D2E/DX2                !
 ! R26   R(13,14)                1.3928         estimate D2E/DX2                !
 ! R27   R(13,26)                1.0798         estimate D2E/DX2                !
 ! R28   R(14,27)                1.0802         estimate D2E/DX2                !
 ! A1    A(2,1,15)             108.9319         estimate D2E/DX2                !
 ! A2    A(2,1,16)             110.2218         estimate D2E/DX2                !
 ! A3    A(15,1,16)            105.9576         estimate D2E/DX2                !
 ! A4    A(1,2,3)              113.9631         estimate D2E/DX2                !
 ! A5    A(1,2,17)             109.123          estimate D2E/DX2                !
 ! A6    A(1,2,18)             108.9042         estimate D2E/DX2                !
 ! A7    A(3,2,17)             108.1182         estimate D2E/DX2                !
 ! A8    A(3,2,18)             109.2837         estimate D2E/DX2                !
 ! A9    A(17,2,18)            107.2365         estimate D2E/DX2                !
 ! A10   A(2,3,4)              122.4095         estimate D2E/DX2                !
 ! A11   A(2,3,14)             118.387          estimate D2E/DX2                !
 ! A12   A(4,3,14)             119.1787         estimate D2E/DX2                !
 ! A13   A(3,4,5)              120.2982         estimate D2E/DX2                !
 ! A14   A(3,4,19)             120.3142         estimate D2E/DX2                !
 ! A15   A(5,4,19)             119.387          estimate D2E/DX2                !
 ! A16   A(4,5,6)              120.8187         estimate D2E/DX2                !
 ! A17   A(4,5,20)             118.8658         estimate D2E/DX2                !
 ! A18   A(6,5,20)             120.3127         estimate D2E/DX2                !
 ! A19   A(5,6,7)              120.7526         estimate D2E/DX2                !
 ! A20   A(5,6,13)             118.5116         estimate D2E/DX2                !
 ! A21   A(7,6,13)             120.7354         estimate D2E/DX2                !
 ! A22   A(6,7,8)              120.6757         estimate D2E/DX2                !
 ! A23   A(6,7,12)             120.6731         estimate D2E/DX2                !
 ! A24   A(8,7,12)             118.6513         estimate D2E/DX2                !
 ! A25   A(7,8,9)              120.7904         estimate D2E/DX2                !
 ! A26   A(7,8,21)             120.1838         estimate D2E/DX2                !
 ! A27   A(9,8,21)             119.0196         estimate D2E/DX2                !
 ! A28   A(8,9,10)             119.6554         estimate D2E/DX2                !
 ! A29   A(8,9,22)             120.134          estimate D2E/DX2                !
 ! A30   A(10,9,22)            120.2103         estimate D2E/DX2                !
 ! A31   A(9,10,11)            120.4504         estimate D2E/DX2                !
 ! A32   A(9,10,23)            119.7765         estimate D2E/DX2                !
 ! A33   A(11,10,23)           119.7731         estimate D2E/DX2                !
 ! A34   A(10,11,12)           119.6592         estimate D2E/DX2                !
 ! A35   A(10,11,24)           120.2274         estimate D2E/DX2                !
 ! A36   A(12,11,24)           120.1131         estimate D2E/DX2                !
 ! A37   A(7,12,11)            120.7933         estimate D2E/DX2                !
 ! A38   A(7,12,25)            120.1794         estimate D2E/DX2                !
 ! A39   A(11,12,25)           119.0213         estimate D2E/DX2                !
 ! A40   A(6,13,14)            120.8276         estimate D2E/DX2                !
 ! A41   A(6,13,26)            120.1596         estimate D2E/DX2                !
 ! A42   A(14,13,26)           119.0042         estimate D2E/DX2                !
 ! A43   A(3,14,13)            120.3572         estimate D2E/DX2                !
 ! A44   A(3,14,27)            120.3153         estimate D2E/DX2                !
 ! A45   A(13,14,27)           119.3275         estimate D2E/DX2                !
 ! D1    D(15,1,2,3)           -69.2359         estimate D2E/DX2                !
 ! D2    D(15,1,2,17)          169.8138         estimate D2E/DX2                !
 ! D3    D(15,1,2,18)           53.0544         estimate D2E/DX2                !
 ! D4    D(16,1,2,3)           174.9096         estimate D2E/DX2                !
 ! D5    D(16,1,2,17)           53.9593         estimate D2E/DX2                !
 ! D6    D(16,1,2,18)          -62.8001         estimate D2E/DX2                !
 ! D7    D(1,2,3,4)            -19.5302         estimate D2E/DX2                !
 ! D8    D(1,2,3,14)           162.2966         estimate D2E/DX2                !
 ! D9    D(17,2,3,4)           101.9785         estimate D2E/DX2                !
 ! D10   D(17,2,3,14)          -76.1947         estimate D2E/DX2                !
 ! D11   D(18,2,3,4)          -141.6118         estimate D2E/DX2                !
 ! D12   D(18,2,3,14)           40.215          estimate D2E/DX2                !
 ! D13   D(2,3,4,5)           -179.1144         estimate D2E/DX2                !
 ! D14   D(2,3,4,19)             0.6082         estimate D2E/DX2                !
 ! D15   D(14,3,4,5)            -0.9551         estimate D2E/DX2                !
 ! D16   D(14,3,4,19)          178.7675         estimate D2E/DX2                !
 ! D17   D(2,3,14,13)          179.2892         estimate D2E/DX2                !
 ! D18   D(2,3,14,27)           -0.6374         estimate D2E/DX2                !
 ! D19   D(4,3,14,13)            1.0556         estimate D2E/DX2                !
 ! D20   D(4,3,14,27)         -178.871          estimate D2E/DX2                !
 ! D21   D(3,4,5,6)              0.3075         estimate D2E/DX2                !
 ! D22   D(3,4,5,20)          -179.0822         estimate D2E/DX2                !
 ! D23   D(19,4,5,6)          -179.4177         estimate D2E/DX2                !
 ! D24   D(19,4,5,20)            1.1926         estimate D2E/DX2                !
 ! D25   D(4,5,6,7)           -179.9843         estimate D2E/DX2                !
 ! D26   D(4,5,6,13)             0.2454         estimate D2E/DX2                !
 ! D27   D(20,5,6,7)            -0.6034         estimate D2E/DX2                !
 ! D28   D(20,5,6,13)          179.6263         estimate D2E/DX2                !
 ! D29   D(5,6,7,8)            141.8975         estimate D2E/DX2                !
 ! D30   D(5,6,7,12)           -38.1141         estimate D2E/DX2                !
 ! D31   D(13,6,7,8)           -38.3373         estimate D2E/DX2                !
 ! D32   D(13,6,7,12)          141.6511         estimate D2E/DX2                !
 ! D33   D(5,6,13,14)           -0.1449         estimate D2E/DX2                !
 ! D34   D(5,6,13,26)          178.7701         estimate D2E/DX2                !
 ! D35   D(7,6,13,14)         -179.9153         estimate D2E/DX2                !
 ! D36   D(7,6,13,26)           -1.0002         estimate D2E/DX2                !
 ! D37   D(6,7,8,9)           -179.9756         estimate D2E/DX2                !
 ! D38   D(6,7,8,21)            -0.8824         estimate D2E/DX2                !
 ! D39   D(12,7,8,9)             0.0358         estimate D2E/DX2                !
 ! D40   D(12,7,8,21)          179.1289         estimate D2E/DX2                !
 ! D41   D(6,7,12,11)         -179.9572         estimate D2E/DX2                !
 ! D42   D(6,7,12,25)           -0.8588         estimate D2E/DX2                !
 ! D43   D(8,7,12,11)            0.0315         estimate D2E/DX2                !
 ! D44   D(8,7,12,25)          179.1298         estimate D2E/DX2                !
 ! D45   D(7,8,9,10)            -0.0704         estimate D2E/DX2                !
 ! D46   D(7,8,9,22)           179.7396         estimate D2E/DX2                !
 ! D47   D(21,8,9,10)         -179.174          estimate D2E/DX2                !
 ! D48   D(21,8,9,22)            0.636          estimate D2E/DX2                !
 ! D49   D(8,9,10,11)            0.038          estimate D2E/DX2                !
 ! D50   D(8,9,10,23)         -179.9672         estimate D2E/DX2                !
 ! D51   D(22,9,10,11)        -179.7718         estimate D2E/DX2                !
 ! D52   D(22,9,10,23)           0.223          estimate D2E/DX2                !
 ! D53   D(9,10,11,12)           0.0283         estimate D2E/DX2                !
 ! D54   D(9,10,11,24)        -179.7775         estimate D2E/DX2                !
 ! D55   D(23,10,11,12)       -179.9665         estimate D2E/DX2                !
 ! D56   D(23,10,11,24)          0.2277         estimate D2E/DX2                !
 ! D57   D(10,11,12,7)          -0.0634         estimate D2E/DX2                !
 ! D58   D(10,11,12,25)       -179.1721         estimate D2E/DX2                !
 ! D59   D(24,11,12,7)         179.7426         estimate D2E/DX2                !
 ! D60   D(24,11,12,25)          0.6339         estimate D2E/DX2                !
 ! D61   D(6,13,14,3)           -0.5107         estimate D2E/DX2                !
 ! D62   D(6,13,14,27)         179.4166         estimate D2E/DX2                !
 ! D63   D(26,13,14,3)        -179.4382         estimate D2E/DX2                !
 ! D64   D(26,13,14,27)          0.4892         estimate D2E/DX2                !
 --------------------------------------------------------------------------------
 Trust Radius=3.00D-01 FncErr=1.00D-07 GrdErr=1.00D-06 EigMax=2.50D+02 EigMin=1.00D-04
 Number of steps in this run=    147 maximum allowed number of steps=    162.
 GradGradGradGradGradGradGradGradGradGradGradGradGradGradGradGradGradGrad

                          Input orientation:                          
 ---------------------------------------------------------------------
 Center     Atomic      Atomic             Coordinates (Angstroms)
 Number     Number       Type             X           Y           Z
 ---------------------------------------------------------------------
      1          7           0        4.724100   -0.671000    0.400100
      2          6           0        3.958200    0.113400   -0.559700
      3          6           0        2.447100    0.065900   -0.335100
      4          6           0        1.831500   -0.943500    0.413300
      5          6           0        0.448400   -0.954200    0.574700
      6          6           0       -0.349800    0.035900   -0.010900
      7          6           0       -1.832600    0.023200    0.163400
      8          6           0       -2.543100    1.219600    0.331400
      9          6           0       -3.926300    1.210500    0.494700
     10          6           0       -4.612500   -0.000700    0.489700
     11          6           0       -3.925600   -1.200000    0.323600
     12          6           0       -2.542300   -1.185300    0.162100
     13          6           0        0.273200    1.035600   -0.767800
     14          6           0        1.656100    1.048300   -0.933100
     15          1           0        4.666300   -0.227400    1.306700
     16          1           0        5.703400   -0.668000    0.151300
     17          1           0        4.163500   -0.254400   -1.567200
     18          1           0        4.296500    1.151100   -0.518800
     19          1           0        2.424300   -1.724200    0.867500
     20          1           0       -0.001000   -1.735500    1.169300
     21          1           0       -2.019500    2.164000    0.350400
     22          1           0       -4.462900    2.138800    0.627600
     23          1           0       -5.685700   -0.010000    0.615700
     24          1           0       -4.462200   -2.137700    0.316700
     25          1           0       -2.021300   -2.120800    0.020500
     26          1           0       -0.318500    1.800800   -1.247700
     27          1           0        2.110500    1.825600   -1.529900
 ---------------------------------------------------------------------
                    Distance matrix (angstroms):
                    1          2          3          4          5
     1  N    0.000000
     2  C    1.457087   0.000000
     3  C    2.503651   1.528439   0.000000
     4  C    2.905437   2.566441   1.399269   0.000000
     5  C    4.288624   3.839965   2.421393   1.392527   0.000000
     6  C    5.139367   4.343507   2.815787   2.428423   1.400124
     7  C    6.597595   5.836469   4.308846   3.797708   2.515440
     8  C    7.509413   6.654670   5.165011   4.880864   3.705897
     9  C    8.853158   8.029989   6.528316   6.148057   4.881632
    10  C    9.361059   8.635459   7.107931   6.513052   5.150640
    11  C    8.666199   8.041116   6.530520   5.763509   4.388091
    12  C    7.288465   6.668142   5.167864   4.387675   3.027859
    13  C    4.907849   3.804337   2.419378   2.782109   2.406721
    14  C    3.761122   2.512594   1.395849   2.410565   2.782446
    15  H    1.010963   2.025092   2.776037   3.057295   4.342205
    16  H    1.010415   2.040056   3.373230   3.890521   5.279792
    17  H    2.087606   1.092008   2.136982   3.136154   4.345046
    18  H    2.085010   1.092218   2.152135   3.366361   4.520609
    19  H    2.572309   2.786848   2.156670   1.080371   2.140750
    20  H    4.904223   4.699270   3.391380   2.134679   1.079787
    21  H    7.315452   6.384837   4.982213   4.948809   3.982965
    22  H    9.609771   8.742245   7.278173   7.011845   5.804336
    23  H   10.432993   9.716049   8.188542   7.577644   6.206479
    24  H    9.303025   8.760061   7.281423   6.406723   5.057789
    25  H    6.909880   6.409579   4.987455   4.047764   2.787026
    26  H    5.852594   4.648745   3.389876   3.861684   3.391062
    27  H    4.097416   2.699428   2.153460   3.394375   3.862539
                    6          7          8          9         10
     6  C    0.000000
     7  C    1.493063   0.000000
     8  C    2.515727   1.401573   0.000000
     9  C    3.798245   2.429613   1.392836   0.000000
    10  C    4.292150   2.799087   2.407614   1.392085   0.000000
    11  C    3.798116   2.429513   2.786724   2.416565   1.392028
    12  C    2.515614   1.401481   2.410852   2.786743   2.407556
    13  C    1.400152   2.515250   3.028802   4.388655   5.150271
    14  C    2.428794   3.797917   4.388802   5.764383   6.513072
    15  H    5.192943   6.603456   7.417578   8.749839   9.317457
    16  H    6.096147   7.567642   8.461692   9.817220  10.342997
    17  H    4.782909   6.247020   7.124313   8.475979   9.017393
    18  H    4.805178   6.269244   6.892580   8.285237   9.039579
    19  H    3.400760   4.655144   5.799002   7.005824   7.254636
    20  H    2.156940   2.731230   3.987100   4.953986   4.973663
    21  H    2.728964   2.157064   1.080004   2.136790   3.380677
    22  H    4.663417   3.407304   2.149022   1.080436   2.149153
    23  H    5.372761   3.879698   3.386544   2.144703   1.080611
    24  H    4.663013   3.407020   3.867121   3.395485   2.149253
    25  H    2.728782   2.157027   3.395174   3.866711   3.380723
    26  H    2.155348   2.728290   2.789300   4.049769   4.970151
    27  H    3.400509   4.654455   5.048531   6.396898   7.253474
                   11         12         13         14         15
    11  C    0.000000
    12  C    1.392773   0.000000
    13  C    4.880470   3.704612   0.000000
    14  C    6.147318   4.880061   1.392802   0.000000
    15  H    8.702481   7.361494   5.019766   3.963006   0.000000
    16  H    9.645224   8.261918   5.764900   4.527941   1.613894
    17  H    8.360791   6.987475   4.175832   2.895888   2.917677
    18  H    8.593034   7.258896   4.032652   2.674682   2.317211
    19  H    6.394673   5.045307   3.862374   3.393972   2.731276
    20  H    4.050241   2.788436   3.392129   3.862073   4.906825
    21  H    3.866579   3.395083   2.789289   4.049962   7.164721
    22  H    3.395393   3.867174   5.059134   6.408365   9.455283
    23  H    2.144615   3.386450   6.206113   7.577652  10.377314
    24  H    1.080402   2.148717   5.802584   7.010434   9.378638
    25  H    2.136844   1.080117   3.981081   4.947304   7.068470
    26  H    4.948227   3.981158   1.079789   2.136416   5.957079
    27  H    7.001730   5.794560   2.140226   1.080206   4.335115
                   16         17         18         19         20
    16  H    0.000000
    17  H    2.344269   0.000000
    18  H    2.395313   1.758483   0.000000
    19  H    3.518664   3.333601   3.700582   0.000000
    20  H    5.892034   5.198572   5.445241   2.444032   0.000000
    21  H    8.228186   6.910524   6.455488   5.927297   4.466659
    22  H   10.557398   9.217339   8.889144   7.900243   5.933986
    23  H   11.417540  10.091161  10.113336   8.293008   5.966543
    24  H   10.272624   9.027657   9.393034   6.920856   4.559715
    25  H    7.861217   6.652518   7.135178   4.542913   2.355803
    26  H    6.656985   4.941078   4.717163   4.941928   4.295127
    27  H    4.685446   2.922773   2.501174   4.295006   4.942221
                   21         22         23         24         25
    21  H    0.000000
    22  H    2.459203   0.000000
    23  H    4.270560   2.472392   0.000000
    24  H    4.946973   4.287786   2.472541   0.000000
    25  H    4.297482   4.947138   4.270546   2.458864   0.000000
    26  H    2.362041   4.561474   5.963061   5.927004   4.459462
    27  H    4.550488   6.925496   8.291789   7.894179   5.920269
                   26         27
    26  H    0.000000
    27  H    2.445464   0.000000
 Stoichiometry    C13H13N
 Framework group  C1[X(C13H13N)]
 Deg. of freedom    75
 Full point group                 C1      NOp   1
 Largest Abelian subgroup         C1      NOp   1
 Largest concise Abelian subgroup C1      NOp   1
                         Standard orientation:                         
 ---------------------------------------------------------------------
 Center     Atomic      Atomic             Coordinates (Angstroms)
 Number     Number       Type             X           Y           Z
 ---------------------------------------------------------------------
      1          7           0        4.879955   -0.717990    0.476819
      2          6           0        4.161947    0.329076   -0.238177
      3          6           0        2.640703    0.209093   -0.151305
      4          6           0        2.001133   -0.987317    0.191488
      5          6           0        0.610943   -1.052016    0.239617
      6          6           0       -0.170171    0.071024   -0.058693
      7          6           0       -1.660628    0.000094   -0.006288
      8          6           0       -2.411199    1.079330    0.479820
      9          6           0       -3.801659    1.015543    0.530245
     10          6           0       -4.454847   -0.132819    0.091485
     11          6           0       -3.727869   -1.215464   -0.395470
     12          6           0       -2.337575   -1.146940   -0.442411
     13          6           0        0.477609    1.260958   -0.412058
     14          6           0        1.867816    1.328792   -0.463255
     15          1           0        4.748857   -0.585795    1.470491
     16          1           0        5.873615   -0.633748    0.314085
     17          1           0        4.445138    0.301174   -1.292457
     18          1           0        4.470121    1.300714    0.154111
     19          1           0        2.581077   -1.870527    0.416895
     20          1           0        0.141867   -1.982874    0.521415
     21          1           0       -1.914344    1.969906    0.835374
     22          1           0       -4.369565    1.852159    0.910903
     23          1           0       -5.533575   -0.184210    0.129236
     24          1           0       -4.238689   -2.103565   -0.738410
     25          1           0       -1.784448   -1.987652   -0.834719
     26          1           0       -0.099081    2.137645   -0.666599
     27          1           0        2.342131    2.256569   -0.748036
 ---------------------------------------------------------------------
 Rotational constants (GHZ):           2.5436675           0.3003551           0.2770699
 Standard basis: 6-31G(d,p) (6D, 7F)
 There are   275 symmetry adapted cartesian basis functions of A   symmetry.
 There are   275 symmetry adapted basis functions of A   symmetry.
   275 basis functions,   483 primitive gaussians,   275 cartesian basis functions
    49 alpha electrons       49 beta electrons
       nuclear repulsion energy       780.0205483715 Hartrees.
 NAtoms=   27 NActive=   27 NUniq=   27 SFac= 1.00D+00 NAtFMM=   60 NAOKFM=F Big=F
 Integral buffers will be    131072 words long.
 Raffenetti 2 integral format.
 Two-electron integral symmetry is turned on.
 Nuclear repulsion after empirical dispersion term =      779.9661575261 Hartrees.
 One-electron integrals computed using PRISM.
 NBasis=   275 RedAO= T EigKep=  4.11D-04  NBF=   275
 NBsUse=   275 1.00D-06 EigRej= -1.00D+00 NBFU=   275
 ExpMin= 1.61D-01 ExpMax= 4.17D+03 ExpMxC= 6.27D+02 IAcc=3 IRadAn=         5 AccDes= 0.00D+00
 Harris functional with IExCor=  402 and IRadAn=       5 diagonalized for initial guess.
 HarFok:  IExCor=  402 AccDes= 0.00D+00 IRadAn=         5 IDoV= 1 UseB2=F ITyADJ=14
 ICtDFT=  3500011 ScaDFX=  1.000000  1.000000  1.000000  1.000000
 FoFCou: FMM=F IPFlag=           0 FMFlag=      100000 FMFlg1=           0
         NFxFlg=           0 DoJE=T BraDBF=F KetDBF=T FulRan=T
         wScrn=  0.000000 ICntrl=       500 IOpCl=  0 I1Cent=   200000004 NGrid=           0
         NMat0=    1 NMatS0=      1 NMatT0=    0 NMatD0=    1 NMtDS0=    0 NMtDT0=    0
 Petite list used in FoFCou.
 Requested convergence on RMS density matrix=1.00D-08 within 128 cycles.
 Requested convergence on MAX density matrix=1.00D-06.
 Requested convergence on             energy=1.00D-06.
 No special actions if energy rises.
 Integral accuracy reduced to 1.0D-05 until final iterations.
 Initial convergence to 1.0D-05 achieved.  Increase integral accuracy.
 SCF Done:  E(RB3LYP) =  -558.038895057     A.U. after   14 cycles
            NFock= 14  Conv=0.38D-08     -V/T= 2.0096

 **********************************************************************

            Population analysis using the SCF Density.

 **********************************************************************

 Orbital symmetries:
       Occupied  (A) (A) (A) (A) (A) (A) (A) (A) (A) (A) (A) (A)
                 (A) (A) (A) (A) (A) (A) (A) (A) (A) (A) (A) (A)
                 (A) (A) (A) (A) (A) (A) (A) (A) (A) (A) (A) (A)
                 (A) (A) (A) (A) (A) (A) (A) (A) (A) (A) (A) (A)
                 (A)
       Virtual   (A) (A) (A) (A) (A) (A) (A) (A) (A) (A) (A) (A)
                 (A) (A) (A) (A) (A) (A) (A) (A) (A) (A) (A) (A)
                 (A) (A) (A) (A) (A) (A) (A) (A) (A) (A) (A) (A)
                 (A) (A) (A) (A) (A) (A) (A) (A) (A) (A) (A) (A)
                 (A) (A) (A) (A) (A) (A) (A) (A) (A) (A) (A) (A)
                 (A) (A) (A) (A) (A) (A) (A) (A) (A) (A) (A) (A)
                 (A) (A) (A) (A) (A) (A) (A) (A) (A) (A) (A) (A)
                 (A) (A) (A) (A) (A) (A) (A) (A) (A) (A) (A) (A)
                 (A) (A) (A) (A) (A) (A) (A) (A) (A) (A) (A) (A)
                 (A) (A) (A) (A) (A) (A) (A) (A) (A) (A) (A) (A)
                 (A) (A) (A) (A) (A) (A) (A) (A) (A) (A) (A) (A)
                 (A) (A) (A) (A) (A) (A) (A) (A) (A) (A) (A) (A)
                 (A) (A) (A) (A) (A) (A) (A) (A) (A) (A) (A) (A)
                 (A) (A) (A) (A) (A) (A) (A) (A) (A) (A) (A) (A)
                 (A) (A) (A) (A) (A) (A) (A) (A) (A) (A) (A) (A)
                 (A) (A) (A) (A) (A) (A) (A) (A) (A) (A) (A) (A)
                 (A) (A) (A) (A) (A) (A) (A) (A) (A) (A) (A) (A)
                 (A) (A) (A) (A) (A) (A) (A) (A) (A) (A) (A) (A)
                 (A) (A) (A) (A) (A) (A) (A) (A) (A) (A)
 The electronic state is 1-A.
 Alpha  occ. eigenvalues --  -14.31284 -10.21154 -10.19346 -10.19064 -10.18960
 Alpha  occ. eigenvalues --  -10.18483 -10.18468 -10.18336 -10.18318 -10.18302
 Alpha  occ. eigenvalues --  -10.18278 -10.18189 -10.18113 -10.17799  -0.88799
 Alpha  occ. eigenvalues --   -0.85958  -0.83819  -0.77251  -0.74350  -0.73589
 Alpha  occ. eigenvalues --   -0.72317  -0.65918  -0.61261  -0.60037  -0.58614
 Alpha  occ. eigenvalues --   -0.56478  -0.52272  -0.49729  -0.47385  -0.46786
 Alpha  occ. eigenvalues --   -0.45555  -0.44003  -0.43584  -0.41979  -0.41665
 Alpha  occ. eigenvalues --   -0.41157  -0.40637  -0.39227  -0.36628  -0.35076
 Alpha  occ. eigenvalues --   -0.34690  -0.34299  -0.32897  -0.32490  -0.26521
 Alpha  occ. eigenvalues --   -0.24639  -0.24450  -0.23601  -0.21431
 Alpha virt. eigenvalues --   -0.01929   0.00111   0.00508   0.03476   0.08348
 Alpha virt. eigenvalues --    0.10227   0.11610   0.13097   0.13619   0.14203
 Alpha virt. eigenvalues --    0.15736   0.16209   0.16859   0.17650   0.18335
 Alpha virt. eigenvalues --    0.19124   0.20173   0.20862   0.21677   0.24430
 Alpha virt. eigenvalues --    0.24792   0.26827   0.29376   0.30634   0.31286
 Alpha virt. eigenvalues --    0.32540   0.34705   0.35948   0.37810   0.39100
 Alpha virt. eigenvalues --    0.46711   0.49219   0.50967   0.52583   0.53835
 Alpha virt. eigenvalues --    0.54858   0.55300   0.55664   0.56436   0.57001
 Alpha virt. eigenvalues --    0.57646   0.58232   0.59559   0.59952   0.60147
 Alpha virt. eigenvalues --    0.61027   0.61390   0.62004   0.62039   0.62346
 Alpha virt. eigenvalues --    0.63627   0.64747   0.65669   0.67265   0.67762
 Alpha virt. eigenvalues --    0.69779   0.71295   0.71976   0.73655   0.74441
 Alpha virt. eigenvalues --    0.77347   0.79114   0.80580   0.81219   0.82070
 Alpha virt. eigenvalues --    0.82380   0.82940   0.83858   0.85520   0.85987
 Alpha virt. eigenvalues --    0.86924   0.87995   0.89574   0.90080   0.90934
 Alpha virt. eigenvalues --    0.93148   0.93410   0.95141   0.97279   0.97721
 Alpha virt. eigenvalues --    0.99776   1.00096   1.02255   1.02984   1.08411
 Alpha virt. eigenvalues --    1.09211   1.11092   1.11710   1.13534   1.16011
 Alpha virt. eigenvalues --    1.17441   1.18066   1.19648   1.21977   1.23549
 Alpha virt. eigenvalues --    1.27416   1.29452   1.31503   1.34393   1.36514
 Alpha virt. eigenvalues --    1.38896   1.40640   1.40796   1.41383   1.42225
 Alpha virt. eigenvalues --    1.43471   1.44744   1.45136   1.47023   1.49019
 Alpha virt. eigenvalues --    1.54434   1.57454   1.65804   1.72055   1.74103
 Alpha virt. eigenvalues --    1.75922   1.77337   1.77831   1.80067   1.81261
 Alpha virt. eigenvalues --    1.81934   1.84519   1.87070   1.89148   1.89723
 Alpha virt. eigenvalues --    1.89995   1.93250   1.94286   1.96077   1.96478
 Alpha virt. eigenvalues --    1.96594   1.98214   1.98819   1.98965   2.01285
 Alpha virt. eigenvalues --    2.01844   2.05162   2.06865   2.07782   2.08078
 Alpha virt. eigenvalues --    2.09899   2.11976   2.17122   2.18307   2.19490
 Alpha virt. eigenvalues --    2.22859   2.26827   2.27474   2.29615   2.30716
 Alpha virt. eigenvalues --    2.30984   2.31644   2.33172   2.35338   2.37437
 Alpha virt. eigenvalues --    2.38144   2.39078   2.41840   2.42609   2.42899
 Alpha virt. eigenvalues --    2.44038   2.44952   2.46446   2.49072   2.49591
 Alpha virt. eigenvalues --    2.50237   2.51300   2.53153   2.53429   2.54356
 Alpha virt. eigenvalues --    2.55172   2.59191   2.61091   2.61264   2.61444
 Alpha virt. eigenvalues --    2.63176   2.64761   2.66437   2.67207   2.70503
 Alpha virt. eigenvalues --    2.71884   2.74104   2.76610   2.79142   2.80483
 Alpha virt. eigenvalues --    2.83323   2.84410   2.85620   2.90592   2.94410
 Alpha virt. eigenvalues --    2.96378   2.99257   3.06300   3.07289   3.08565
 Alpha virt. eigenvalues --    3.20540   3.22292   3.25539   3.26496   3.26816
 Alpha virt. eigenvalues --    3.27582   3.30009   3.35066   3.37458   3.42266
 Alpha virt. eigenvalues --    3.44395   3.46172   3.52471   3.52982   3.53399
 Alpha virt. eigenvalues --    3.82677   3.92688   4.05016   4.13468   4.14454
 Alpha virt. eigenvalues --    4.15555   4.16752   4.16955   4.19767   4.34869
 Alpha virt. eigenvalues --    4.44655   4.45085   4.45557   4.56513   4.78657
 Alpha virt. eigenvalues --    4.90143
          Condensed to atoms (all electrons):
               1          2          3          4          5          6
     1  N    6.756967   0.293259  -0.046757  -0.004604   0.000283  -0.000001
     2  C    0.293259   4.915964   0.335775  -0.059720   0.007248   0.000265
     3  C   -0.046757   0.335775   4.794530   0.545321  -0.033799  -0.026595
     4  C   -0.004604  -0.059720   0.545321   4.920840   0.468650  -0.023518
     5  C    0.000283   0.007248  -0.033799   0.468650   4.972002   0.523627
     6  C   -0.000001   0.000265  -0.026595  -0.023518   0.523627   4.810377
     7  C    0.000000  -0.000001   0.000801   0.005948  -0.046853   0.330558
     8  C   -0.000000   0.000000   0.000002  -0.000168   0.004996  -0.046969
     9  C    0.000000   0.000000  -0.000000   0.000002  -0.000182   0.006154
    10  C   -0.000000  -0.000000   0.000000  -0.000000   0.000002   0.000728
    11  C   -0.000000   0.000000  -0.000000  -0.000002   0.000312   0.006075
    12  C    0.000000   0.000000   0.000001   0.000317  -0.011711  -0.046544
    13  C   -0.000111   0.006586  -0.028739  -0.049727  -0.046681   0.525134
    14  C    0.002462  -0.057404   0.524629  -0.025144  -0.050410  -0.024838
    15  H    0.342141  -0.044244   0.001062   0.000346  -0.000193  -0.000007
    16  H    0.336738  -0.030866   0.005361   0.000337   0.000003  -0.000000
    17  H   -0.036318   0.371594  -0.023819  -0.002756  -0.000218   0.000053
    18  H   -0.053020   0.383719  -0.055421   0.005310  -0.000097   0.000012
    19  H    0.016257  -0.012288  -0.039901   0.365295  -0.041412   0.003638
    20  H    0.000004  -0.000196   0.003822  -0.038225   0.361545  -0.043467
    21  H    0.000000  -0.000000  -0.000006  -0.000009   0.000049  -0.009586
    22  H   -0.000000  -0.000000  -0.000000  -0.000000   0.000001  -0.000198
    23  H    0.000000  -0.000000  -0.000000   0.000000   0.000000   0.000003
    24  H    0.000000  -0.000000  -0.000000  -0.000000   0.000001  -0.000198
    25  H   -0.000000  -0.000000  -0.000007  -0.000059   0.004610  -0.009510
    26  H    0.000001  -0.000182   0.003920   0.000614   0.005916  -0.042728
    27  H    0.000057  -0.009150  -0.051192   0.006078   0.000654   0.003920
               7          8          9         10         11         12
     1  N    0.000000  -0.000000   0.000000  -0.000000  -0.000000   0.000000
     2  C   -0.000001   0.000000   0.000000  -0.000000   0.000000   0.000000
     3  C    0.000801   0.000002  -0.000000   0.000000  -0.000000   0.000001
     4  C    0.005948  -0.000168   0.000002  -0.000000  -0.000002   0.000317
     5  C   -0.046853   0.004996  -0.000182   0.000002   0.000312  -0.011711
     6  C    0.330558  -0.046969   0.006154   0.000728   0.006075  -0.046544
     7  C    4.804726   0.526003  -0.020040  -0.034205  -0.020206   0.526361
     8  C    0.526003   4.926720   0.512451  -0.041157  -0.043539  -0.054837
     9  C   -0.020040   0.512451   4.827997   0.550405  -0.030384  -0.043522
    10  C   -0.034205  -0.041157   0.550405   4.805301   0.550321  -0.041152
    11  C   -0.020206  -0.043539  -0.030384   0.550321   4.827477   0.513076
    12  C    0.526361  -0.054837  -0.043522  -0.041152   0.513076   4.924622
    13  C   -0.046527  -0.011689   0.000317   0.000003  -0.000175   0.004952
    14  C    0.006253   0.000306  -0.000003  -0.000000   0.000002  -0.000179
    15  H    0.000000   0.000000  -0.000000  -0.000000   0.000000  -0.000000
    16  H   -0.000000   0.000000  -0.000000  -0.000000   0.000000   0.000000
    17  H    0.000000  -0.000000  -0.000000   0.000000   0.000000  -0.000000
    18  H   -0.000000   0.000000   0.000000  -0.000000  -0.000000   0.000000
    19  H   -0.000179   0.000001  -0.000000  -0.000000  -0.000000  -0.000001
    20  H   -0.009163   0.000052  -0.000010  -0.000005  -0.000079   0.004528
    21  H   -0.043111   0.363717  -0.043142   0.005058   0.000370   0.006141
    22  H    0.003620  -0.037250   0.366235  -0.042142   0.004631   0.000904
    23  H    0.000674   0.005170  -0.043034   0.368102  -0.043002   0.005167
    24  H    0.003619   0.000908   0.004626  -0.042160   0.366354  -0.037149
    25  H   -0.042779   0.006110   0.000373   0.005037  -0.042986   0.364049
    26  H   -0.009133   0.004590  -0.000083  -0.000005  -0.000010   0.000055
    27  H   -0.000199  -0.000000  -0.000000  -0.000000  -0.000000   0.000001
              13         14         15         16         17         18
     1  N   -0.000111   0.002462   0.342141   0.336738  -0.036318  -0.053020
     2  C    0.006586  -0.057404  -0.044244  -0.030866   0.371594   0.383719
     3  C   -0.028739   0.524629   0.001062   0.005361  -0.023819  -0.055421
     4  C   -0.049727  -0.025144   0.000346   0.000337  -0.002756   0.005310
     5  C   -0.046681  -0.050410  -0.000193   0.000003  -0.000218  -0.000097
     6  C    0.525134  -0.024838  -0.000007  -0.000000   0.000053   0.000012
     7  C   -0.046527   0.006253   0.000000  -0.000000   0.000000  -0.000000
     8  C   -0.011689   0.000306   0.000000   0.000000  -0.000000   0.000000
     9  C    0.000317  -0.000003  -0.000000  -0.000000  -0.000000   0.000000
    10  C    0.000003  -0.000000  -0.000000  -0.000000   0.000000  -0.000000
    11  C   -0.000175   0.000002   0.000000   0.000000   0.000000  -0.000000
    12  C    0.004952  -0.000179  -0.000000   0.000000  -0.000000   0.000000
    13  C    4.944679   0.486742  -0.000011   0.000003  -0.000290   0.000165
    14  C    0.486742   4.931543   0.000172  -0.000208  -0.002134  -0.001988
    15  H   -0.000011   0.000172   0.496756  -0.033684   0.007120  -0.008321
    16  H    0.000003  -0.000208  -0.033684   0.491137  -0.005092  -0.002964
    17  H   -0.000290  -0.002134   0.007120  -0.005092   0.614280  -0.046057
    18  H    0.000165  -0.001988  -0.008321  -0.002964  -0.046057   0.685246
    19  H    0.000588   0.006252  -0.000930  -0.000330   0.000066   0.000556
    20  H    0.005783   0.000754   0.000003  -0.000000   0.000003   0.000003
    21  H    0.004667  -0.000074  -0.000000  -0.000000  -0.000000   0.000000
    22  H    0.000000  -0.000000   0.000000   0.000000   0.000000  -0.000000
    23  H    0.000000   0.000000   0.000000  -0.000000   0.000000   0.000000
    24  H    0.000001  -0.000000  -0.000000  -0.000000  -0.000000   0.000000
    25  H    0.000052  -0.000010   0.000000  -0.000000   0.000000  -0.000000
    26  H    0.360635  -0.038739   0.000000  -0.000000   0.000002  -0.000004
    27  H   -0.039173   0.365388  -0.000006  -0.000012   0.001109   0.005497
              19         20         21         22         23         24
     1  N    0.016257   0.000004   0.000000  -0.000000   0.000000   0.000000
     2  C   -0.012288  -0.000196  -0.000000  -0.000000  -0.000000  -0.000000
     3  C   -0.039901   0.003822  -0.000006  -0.000000  -0.000000  -0.000000
     4  C    0.365295  -0.038225  -0.000009  -0.000000   0.000000  -0.000000
     5  C   -0.041412   0.361545   0.000049   0.000001   0.000000   0.000001
     6  C    0.003638  -0.043467  -0.009586  -0.000198   0.000003  -0.000198
     7  C   -0.000179  -0.009163  -0.043111   0.003620   0.000674   0.003619
     8  C    0.000001   0.000052   0.363717  -0.037250   0.005170   0.000908
     9  C   -0.000000  -0.000010  -0.043142   0.366235  -0.043034   0.004626
    10  C   -0.000000  -0.000005   0.005058  -0.042142   0.368102  -0.042160
    11  C   -0.000000  -0.000079   0.000370   0.004631  -0.043002   0.366354
    12  C   -0.000001   0.004528   0.006141   0.000904   0.005167  -0.037149
    13  C    0.000588   0.005783   0.004667   0.000000   0.000000   0.000001
    14  C    0.006252   0.000754  -0.000074  -0.000000   0.000000  -0.000000
    15  H   -0.000930   0.000003  -0.000000   0.000000   0.000000  -0.000000
    16  H   -0.000330  -0.000000  -0.000000   0.000000  -0.000000  -0.000000
    17  H    0.000066   0.000003  -0.000000   0.000000   0.000000  -0.000000
    18  H    0.000556   0.000003   0.000000  -0.000000   0.000000   0.000000
    19  H    0.604904  -0.005536   0.000000   0.000000  -0.000000   0.000000
    20  H   -0.005536   0.633196   0.000003   0.000000  -0.000000   0.000006
    21  H    0.000000   0.000003   0.636142  -0.006251  -0.000203   0.000018
    22  H    0.000000   0.000000  -0.006251   0.632893  -0.006441  -0.000199
    23  H   -0.000000  -0.000000  -0.000203  -0.006441   0.639586  -0.006435
    24  H    0.000000   0.000006   0.000018  -0.000199  -0.006435   0.632144
    25  H    0.000006   0.002510  -0.000174   0.000018  -0.000202  -0.006227
    26  H    0.000019  -0.000185   0.002532   0.000006  -0.000000   0.000000
    27  H   -0.000158   0.000021   0.000007   0.000000  -0.000000   0.000000
              25         26         27
     1  N   -0.000000   0.000001   0.000057
     2  C   -0.000000  -0.000182  -0.009150
     3  C   -0.000007   0.003920  -0.051192
     4  C   -0.000059   0.000614   0.006078
     5  C    0.004610   0.005916   0.000654
     6  C   -0.009510  -0.042728   0.003920
     7  C   -0.042779  -0.009133  -0.000199
     8  C    0.006110   0.004590  -0.000000
     9  C    0.000373  -0.000083  -0.000000
    10  C    0.005037  -0.000005  -0.000000
    11  C   -0.042986  -0.000010  -0.000000
    12  C    0.364049   0.000055   0.000001
    13  C    0.000052   0.360635  -0.039173
    14  C   -0.000010  -0.038739   0.365388
    15  H    0.000000   0.000000  -0.000006
    16  H   -0.000000  -0.000000  -0.000012
    17  H    0.000000   0.000002   0.001109
    18  H   -0.000000  -0.000004   0.005497
    19  H    0.000006   0.000019  -0.000158
    20  H    0.002510  -0.000185   0.000021
    21  H   -0.000174   0.002532   0.000007
    22  H    0.000018   0.000006   0.000000
    23  H   -0.000202  -0.000000  -0.000000
    24  H   -0.006227   0.000000   0.000000
    25  H    0.633459   0.000003   0.000000
    26  H    0.000003   0.635526  -0.006116
    27  H    0.000000  -0.006116   0.648361
 Mulliken charges:
               1
     1  N   -0.607358
     2  C   -0.100361
     3  C    0.091011
     4  C   -0.115125
     5  C   -0.118345
     6  C    0.063616
     7  C    0.063831
     8  C   -0.115416
     9  C   -0.088159
    10  C   -0.084132
    11  C   -0.088233
    12  C   -0.115079
    13  C   -0.117184
    14  C   -0.123374
    15  H    0.239792
    16  H    0.239574
    17  H    0.122456
    18  H    0.087363
    19  H    0.103151
    20  H    0.084632
    21  H    0.083854
    22  H    0.084172
    23  H    0.080614
    24  H    0.084692
    25  H    0.085727
    26  H    0.083369
    27  H    0.074912
 Sum of Mulliken charges =  -0.00000
 Mulliken charges with hydrogens summed into heavy atoms:
               1
     1  N   -0.127992
     2  C    0.109458
     3  C    0.091011
     4  C   -0.011974
     5  C   -0.033713
     6  C    0.063616
     7  C    0.063831
     8  C   -0.031563
     9  C   -0.003987
    10  C   -0.003518
    11  C   -0.003541
    12  C   -0.029351
    13  C   -0.033815
    14  C   -0.048462
 Electronic spatial extent (au):  <R**2>=           3878.7572
 Charge=             -0.0000 electrons
 Dipole moment (field-independent basis, Debye):
    X=              1.1810    Y=              1.0223    Z=              0.4669  Tot=              1.6303
 Quadrupole moment (field-independent basis, Debye-Ang):
   XX=            -65.1329   YY=            -77.8710   ZZ=            -83.3657
   XY=              4.8493   XZ=              2.1332   YZ=              0.6128
 Traceless Quadrupole moment (field-independent basis, Debye-Ang):
   XX=             10.3236   YY=             -2.4145   ZZ=             -7.9092
   XY=              4.8493   XZ=              2.1332   YZ=              0.6128
 Octapole moment (field-independent basis, Debye-Ang**2):
  XXX=             70.1778  YYY=              2.3192  ZZZ=              4.5019  XYY=            -11.0094
  XXY=             18.1215  XXZ=             15.4604  XZZ=             18.7365  YZZ=             -0.9299
  YYZ=             -0.8245  XYZ=            -10.4120
 Hexadecapole moment (field-independent basis, Debye-Ang**3):
 XXXX=          -3721.3327 YYYY=           -552.5731 ZZZZ=           -171.3481 XXXY=             70.4976
 XXXZ=             66.5316 YYYX=             13.7194 YYYZ=              2.6796 ZZZX=             21.4358
 ZZZY=             -1.6964 XXYY=           -858.6916 XXZZ=           -764.2397 YYZZ=           -124.2257
 XXYZ=             18.4848 YYXZ=              0.8868 ZZXY=             -7.9866
 N-N= 7.799661575261D+02 E-N=-2.852942054457D+03  KE= 5.527167368280D+02
 Calling FoFJK, ICntrl=      2127 FMM=F ISym2X=0 I1Cent= 0 IOpClX= 0 NMat=1 NMatS=1 NMatT=0.
 ***** Axes restored to original set *****
 -------------------------------------------------------------------
 Center     Atomic                   Forces (Hartrees/Bohr)
 Number     Number              X              Y              Z
 -------------------------------------------------------------------
      1        7          -0.005594913   -0.011775885    0.001165257
      2        6          -0.003151837    0.001503206    0.006159314
      3        6           0.012275248   -0.001790564   -0.000202391
      4        6          -0.001651205    0.002821315   -0.002197691
      5        6           0.004165362    0.002274687   -0.003404063
      6        6          -0.010806409   -0.000867869    0.001745744
      7        6           0.008956266    0.000404391   -0.000996558
      8        6          -0.003851499   -0.000467782   -0.000414010
      9        6           0.003948424   -0.003958944   -0.001288596
     10        6          -0.004297230    0.000004645    0.000521241
     11        6           0.004121315    0.004017066    0.000329268
     12        6          -0.003503172    0.000200182    0.001259343
     13        6           0.005462063   -0.000527153   -0.000300793
     14        6          -0.007666499   -0.003252144    0.005237625
     15        1          -0.001218315    0.001421222    0.005446394
     16        1           0.004140340   -0.000424807   -0.002867270
     17        1           0.002576925   -0.002044182   -0.002411602
     18        1          -0.004501511    0.009318396   -0.007307209
     19        1           0.004431363   -0.000231982    0.000647910
     20        1          -0.003179442   -0.001810599    0.002333306
     21        1           0.003656040    0.002361958    0.000287316
     22        1          -0.001566054    0.003180497    0.000582493
     23        1          -0.003965637   -0.000026065    0.000464075
     24        1          -0.001628151   -0.003204977   -0.000209540
     25        1           0.003466318   -0.002196078   -0.001124342
     26        1          -0.003614623    0.001905516   -0.001502706
     27        1           0.002996833    0.003165952   -0.001952514
 -------------------------------------------------------------------
 Cartesian Forces:  Max     0.012275248 RMS     0.003949481

 GradGradGradGradGradGradGradGradGradGradGradGradGradGradGradGradGradGrad
 Berny optimization.
 FormGI is forming the generalized inverse of G from B-inverse, IUseBI=4.
 Internal  Forces:  Max     0.012540281 RMS     0.002657116
 Search for a local minimum.
 Step number   1 out of a maximum of  147
 All quantities printed in internal units (Hartrees-Bohrs-Radians)
 Mixed Optimization -- RFO/linear search
 Second derivative matrix not updated -- first step.
 ITU=  0
     Eigenvalues ---    0.00390   0.00858   0.00937   0.01417   0.01694
     Eigenvalues ---    0.01713   0.02083   0.02096   0.02121   0.02123
     Eigenvalues ---    0.02131   0.02131   0.02140   0.02146   0.02161
     Eigenvalues ---    0.02162   0.02165   0.02188   0.02189   0.02191
     Eigenvalues ---    0.02194   0.04575   0.04784   0.06440   0.10184
     Eigenvalues ---    0.13405   0.15997   0.15998   0.15998   0.15999
     Eigenvalues ---    0.16000   0.16000   0.16000   0.16000   0.16000
     Eigenvalues ---    0.16000   0.16000   0.21999   0.22000   0.22000
     Eigenvalues ---    0.22029   0.22966   0.23471   0.23997   0.24987
     Eigenvalues ---    0.25000   0.25000   0.29568   0.33116   0.34558
     Eigenvalues ---    0.34582   0.35921   0.35942   0.35946   0.35950
     Eigenvalues ---    0.35969   0.35980   0.35994   0.36020   0.36020
     Eigenvalues ---    0.37331   0.41951   0.41977   0.42098   0.42136
     Eigenvalues ---    0.45666   0.45700   0.45812   0.45872   0.45903
     Eigenvalues ---    0.46283   0.46328   0.46834   0.46859   0.46938
 RFO step:  Lambda=-4.84676488D-03 EMin= 3.89759082D-03
 Linear search not attempted -- first point.
 Iteration  1 RMS(Cart)=  0.03850203 RMS(Int)=  0.00081702
 Iteration  2 RMS(Cart)=  0.00122567 RMS(Int)=  0.00018841
 Iteration  3 RMS(Cart)=  0.00000122 RMS(Int)=  0.00018841
 Iteration  4 RMS(Cart)=  0.00000000 RMS(Int)=  0.00018841
 Variable       Old X    -DE/DX   Delta X   Delta X   Delta X     New X
                                 (Linear)    (Quad)   (Total)
    R1        2.75350   0.00686   0.00000   0.01815   0.01815   2.77165
    R2        1.91044   0.00558   0.00000   0.01205   0.01205   1.92249
    R3        1.90941   0.00472   0.00000   0.01017   0.01017   1.91958
    R4        2.88833  -0.00775   0.00000  -0.02579  -0.02579   2.86254
    R5        2.06360   0.00340   0.00000   0.00969   0.00969   2.07329
    R6        2.06399   0.00719   0.00000   0.02050   0.02050   2.08450
    R7        2.64424  -0.00351   0.00000  -0.00786  -0.00786   2.63637
    R8        2.63777   0.00260   0.00000   0.00538   0.00536   2.64314
    R9        2.63149   0.00210   0.00000   0.00434   0.00436   2.63585
   R10        2.04161   0.00287   0.00000   0.00788   0.00788   2.04949
   R11        2.64585   0.00151   0.00000   0.00345   0.00346   2.64932
   R12        2.04050   0.00392   0.00000   0.01073   0.01073   2.05123
   R13        2.82148  -0.00537   0.00000  -0.01599  -0.01599   2.80549
   R14        2.64590   0.00168   0.00000   0.00392   0.00392   2.64983
   R15        2.64859   0.00106   0.00000   0.00207   0.00206   2.65065
   R16        2.64841   0.00108   0.00000   0.00212   0.00211   2.65053
   R17        2.63208   0.00168   0.00000   0.00355   0.00355   2.63563
   R18        2.04091   0.00384   0.00000   0.01053   0.01053   2.05145
   R19        2.63066   0.00284   0.00000   0.00623   0.00624   2.63690
   R20        2.04173   0.00358   0.00000   0.00983   0.00983   2.05156
   R21        2.63055   0.00292   0.00000   0.00640   0.00641   2.63696
   R22        2.04206   0.00399   0.00000   0.01097   0.01097   2.05303
   R23        2.63196   0.00172   0.00000   0.00364   0.00364   2.63560
   R24        2.04166   0.00359   0.00000   0.00986   0.00986   2.05152
   R25        2.04112   0.00372   0.00000   0.01021   0.01021   2.05133
   R26        2.63201   0.00030   0.00000   0.00074   0.00072   2.63274
   R27        2.04051   0.00400   0.00000   0.01095   0.01095   2.05146
   R28        2.04129   0.00462   0.00000   0.01267   0.01267   2.05396
    A1        1.90122   0.00127   0.00000   0.01166   0.01165   1.91287
    A2        1.92373  -0.00176   0.00000  -0.00686  -0.00687   1.91687
    A3        1.84931   0.00108   0.00000   0.01484   0.01482   1.86413
    A4        1.98903  -0.00958   0.00000  -0.04102  -0.04145   1.94758
    A5        1.90456  -0.00136   0.00000  -0.03022  -0.03098   1.87357
    A6        1.90074   0.01254   0.00000   0.10570   0.10610   2.00684
    A7        1.88702   0.00456   0.00000   0.00196   0.00055   1.88757
    A8        1.90736  -0.00330   0.00000  -0.01964  -0.01926   1.88810
    A9        1.87163  -0.00267   0.00000  -0.01707  -0.01694   1.85469
   A10        2.13645  -0.00422   0.00000  -0.01589  -0.01589   2.12056
   A11        2.06624   0.00616   0.00000   0.02487   0.02486   2.09111
   A12        2.08006  -0.00194   0.00000  -0.00859  -0.00867   2.07139
   A13        2.09960   0.00108   0.00000   0.00371   0.00368   2.10327
   A14        2.09988  -0.00395   0.00000  -0.02253  -0.02254   2.07734
   A15        2.08370   0.00287   0.00000   0.01887   0.01886   2.10256
   A16        2.10868   0.00134   0.00000   0.00572   0.00570   2.11439
   A17        2.07460   0.00114   0.00000   0.00807   0.00804   2.08264
   A18        2.09985  -0.00248   0.00000  -0.01390  -0.01393   2.08592
   A19        2.10753   0.00139   0.00000   0.00521   0.00520   2.11273
   A20        2.06842  -0.00230   0.00000  -0.00851  -0.00852   2.05990
   A21        2.10723   0.00091   0.00000   0.00332   0.00331   2.11054
   A22        2.10619   0.00050   0.00000   0.00248   0.00248   2.10867
   A23        2.10614   0.00039   0.00000   0.00205   0.00206   2.10820
   A24        2.07085  -0.00090   0.00000  -0.00453  -0.00454   2.06632
   A25        2.10819   0.00039   0.00000   0.00108   0.00107   2.10926
   A26        2.09760  -0.00224   0.00000  -0.01300  -0.01300   2.08460
   A27        2.07728   0.00185   0.00000   0.01181   0.01180   2.08908
   A28        2.08838   0.00193   0.00000   0.00901   0.00902   2.09740
   A29        2.09673  -0.00120   0.00000  -0.00591  -0.00592   2.09081
   A30        2.09807  -0.00074   0.00000  -0.00312  -0.00313   2.09494
   A31        2.10226  -0.00371   0.00000  -0.01557  -0.01555   2.08671
   A32        2.09049   0.00185   0.00000   0.00773   0.00772   2.09822
   A33        2.09044   0.00186   0.00000   0.00783   0.00782   2.09826
   A34        2.08845   0.00196   0.00000   0.00917   0.00917   2.09762
   A35        2.09836  -0.00077   0.00000  -0.00334  -0.00336   2.09501
   A36        2.09637  -0.00119   0.00000  -0.00585  -0.00586   2.09051
   A37        2.10824   0.00032   0.00000   0.00084   0.00082   2.10906
   A38        2.09753  -0.00220   0.00000  -0.01285  -0.01286   2.08467
   A39        2.07731   0.00188   0.00000   0.01191   0.01190   2.08921
   A40        2.10884  -0.00019   0.00000  -0.00041  -0.00044   2.10840
   A41        2.09718  -0.00160   0.00000  -0.01008  -0.01006   2.08712
   A42        2.07701   0.00179   0.00000   0.01053   0.01054   2.08756
   A43        2.10063   0.00201   0.00000   0.00843   0.00836   2.10899
   A44        2.09990  -0.00214   0.00000  -0.01114  -0.01112   2.08878
   A45        2.08266   0.00014   0.00000   0.00270   0.00271   2.08537
    D1       -1.20839   0.00052   0.00000  -0.01314  -0.01249  -1.22089
    D2        2.96381   0.00208   0.00000   0.03380   0.03321   2.99702
    D3        0.92597  -0.00100   0.00000   0.01180   0.01176   0.93773
    D4        3.05275  -0.00053   0.00000  -0.03388  -0.03324   3.01950
    D5        0.94177   0.00103   0.00000   0.01306   0.01246   0.95423
    D6       -1.09607  -0.00205   0.00000  -0.00894  -0.00899  -1.10506
    D7       -0.34087   0.00391   0.00000   0.04000   0.03987  -0.30099
    D8        2.83261   0.00366   0.00000   0.02574   0.02559   2.85820
    D9        1.77986  -0.00081   0.00000  -0.02406  -0.02397   1.75589
   D10       -1.32985  -0.00106   0.00000  -0.03831  -0.03826  -1.36811
   D11       -2.47159  -0.00324   0.00000  -0.05386  -0.05377  -2.52536
   D12        0.70188  -0.00349   0.00000  -0.06811  -0.06806   0.63383
   D13       -3.12614   0.00004   0.00000   0.00260   0.00276  -3.12337
   D14        0.01062   0.00036   0.00000   0.01384   0.01386   0.02448
   D15       -0.01667   0.00043   0.00000   0.01754   0.01749   0.00082
   D16        3.12008   0.00075   0.00000   0.02878   0.02859  -3.13452
   D17        3.12919  -0.00041   0.00000  -0.01150  -0.01142   3.11776
   D18       -0.01112  -0.00017   0.00000  -0.00240  -0.00234  -0.01346
   D19        0.01842  -0.00060   0.00000  -0.02512  -0.02515  -0.00673
   D20       -3.12189  -0.00036   0.00000  -0.01602  -0.01606  -3.13795
   D21        0.00537  -0.00005   0.00000  -0.00210  -0.00212   0.00325
   D22       -3.12557   0.00030   0.00000   0.01068   0.01077  -3.11481
   D23       -3.13143  -0.00035   0.00000  -0.01313  -0.01326   3.13849
   D24        0.02082  -0.00000   0.00000  -0.00034  -0.00038   0.02044
   D25       -3.14132   0.00006   0.00000   0.00257   0.00254  -3.13877
   D26        0.00428  -0.00011   0.00000  -0.00566  -0.00569  -0.00141
   D27       -0.01053  -0.00027   0.00000  -0.01026  -0.01023  -0.02076
   D28        3.13507  -0.00044   0.00000  -0.01849  -0.01847   3.11660
   D29        2.47658   0.00004   0.00000   0.00503   0.00500   2.48157
   D30       -0.66522   0.00004   0.00000   0.00484   0.00481  -0.66040
   D31       -0.66911   0.00021   0.00000   0.01342   0.01345  -0.65567
   D32        2.47228   0.00020   0.00000   0.01323   0.01326   2.48554
   D33       -0.00253  -0.00007   0.00000  -0.00200  -0.00197  -0.00450
   D34        3.12013  -0.00001   0.00000   0.00045   0.00047   3.12060
   D35       -3.14011  -0.00024   0.00000  -0.01023  -0.01020   3.13287
   D36       -0.01746  -0.00018   0.00000  -0.00779  -0.00776  -0.02521
   D37       -3.14117  -0.00004   0.00000  -0.00152  -0.00150   3.14051
   D38       -0.01540  -0.00023   0.00000  -0.00941  -0.00935  -0.02475
   D39        0.00062  -0.00004   0.00000  -0.00134  -0.00133  -0.00070
   D40        3.12639  -0.00023   0.00000  -0.00923  -0.00917   3.11722
   D41       -3.14084  -0.00004   0.00000  -0.00149  -0.00147   3.14087
   D42       -0.01499  -0.00023   0.00000  -0.00947  -0.00942  -0.02441
   D43        0.00055  -0.00004   0.00000  -0.00166  -0.00165  -0.00110
   D44        3.12641  -0.00024   0.00000  -0.00965  -0.00959   3.11681
   D45       -0.00123   0.00008   0.00000   0.00299   0.00298   0.00175
   D46        3.13705  -0.00011   0.00000  -0.00387  -0.00388   3.13317
   D47       -3.12718   0.00030   0.00000   0.01101   0.01107  -3.11611
   D48        0.01110   0.00012   0.00000   0.00415   0.00421   0.01531
   D49        0.00066  -0.00004   0.00000  -0.00165  -0.00165  -0.00099
   D50       -3.14102  -0.00004   0.00000  -0.00145  -0.00145   3.14072
   D51       -3.13761   0.00014   0.00000   0.00521   0.00523  -3.13238
   D52        0.00389   0.00015   0.00000   0.00542   0.00544   0.00933
   D53        0.00049  -0.00003   0.00000  -0.00130  -0.00130  -0.00080
   D54       -3.13771   0.00015   0.00000   0.00554   0.00557  -3.13214
   D55       -3.14101  -0.00004   0.00000  -0.00151  -0.00150   3.14068
   D56        0.00397   0.00015   0.00000   0.00534   0.00536   0.00934
   D57       -0.00111   0.00008   0.00000   0.00298   0.00297   0.00186
   D58       -3.12714   0.00030   0.00000   0.01109   0.01115  -3.11599
   D59        3.13710  -0.00011   0.00000  -0.00386  -0.00387   3.13323
   D60        0.01106   0.00012   0.00000   0.00426   0.00431   0.01538
   D61       -0.00891   0.00043   0.00000   0.01752   0.01760   0.00868
   D62        3.13141   0.00019   0.00000   0.00850   0.00852   3.13993
   D63       -3.13179   0.00041   0.00000   0.01532   0.01538  -3.11641
   D64        0.00854   0.00016   0.00000   0.00630   0.00629   0.01483
         Item               Value     Threshold  Converged?
 Maximum Force            0.012540     0.000450     NO 
 RMS     Force            0.002657     0.000300     NO 
 Maximum Displacement     0.199846     0.001800     NO 
 RMS     Displacement     0.038787     0.001200     NO 
 Predicted change in Energy=-2.511174D-03
 GradGradGradGradGradGradGradGradGradGradGradGradGradGradGradGradGradGrad

                          Input orientation:                          
 ---------------------------------------------------------------------
 Center     Atomic      Atomic             Coordinates (Angstroms)
 Number     Number       Type             X           Y           Z
 ---------------------------------------------------------------------
      1          7           0        4.660015   -0.722661    0.410269
      2          6           0        3.960572    0.127697   -0.558677
      3          6           0        2.460907    0.096121   -0.347495
      4          6           0        1.851432   -0.910070    0.402471
      5          6           0        0.466345   -0.931248    0.565695
      6          6           0       -0.347712    0.049266   -0.018590
      7          6           0       -1.821428    0.026717    0.159452
      8          6           0       -2.544154    1.218067    0.320123
      9          6           0       -3.928802    1.197786    0.486157
     10          6           0       -4.616185   -0.016507    0.496564
     11          6           0       -3.909178   -1.209148    0.338635
     12          6           0       -2.524821   -1.186707    0.170589
     13          6           0        0.271730    1.056148   -0.772727
     14          6           0        1.655840    1.080699   -0.929560
     15          1           0        4.599875   -0.305618    1.336246
     16          1           0        5.646793   -0.773754    0.174679
     17          1           0        4.173453   -0.271752   -1.558090
     18          1           0        4.284120    1.182164   -0.572033
     19          1           0        2.471006   -1.672549    0.861801
     20          1           0        0.014507   -1.708592    1.173820
     21          1           0       -2.014305    2.165409    0.337027
     22          1           0       -4.470135    2.129701    0.616950
     23          1           0       -5.694653   -0.033243    0.626655
     24          1           0       -4.437215   -2.157695    0.336718
     25          1           0       -1.985571   -2.117415    0.024509
     26          1           0       -0.336017    1.816919   -1.252692
     27          1           0        2.113379    1.870266   -1.519996
 ---------------------------------------------------------------------
                    Distance matrix (angstroms):
                    1          2          3          4          5
     1  N    0.000000
     2  C    1.466693   0.000000
     3  C    2.465905   1.514791   0.000000
     4  C    2.814839   2.539535   1.395108   0.000000
     5  C    4.201730   3.820366   2.422329   1.394832   0.000000
     6  C    5.084990   4.342713   2.828199   2.435949   1.401957
     7  C    6.529440   5.827301   4.312795   3.798228   2.513292
     8  C    7.461542   6.653770   5.172534   4.884355   3.707150
     9  C    8.801230   8.029881   6.537355   6.153143   4.884304
    10  C    9.303440   8.642632   7.128138   6.529731   5.164653
    11  C    8.583290   8.032763   6.538537   5.768721   4.390215
    12  C    7.203794   6.657312   5.174121   4.391114   3.027943
    13  C    4.880644   3.809907   2.427955   2.782546   2.403953
    14  C    3.751309   2.521419   1.398688   2.403274   2.774639
    15  H    1.017338   2.046266   2.751647   2.965002   4.251027
    16  H    1.015797   2.047869   3.343534   3.804633   5.197570
    17  H    2.077138   1.097136   2.129246   3.105323   4.322968
    18  H    2.175908   1.103069   2.134014   3.353367   4.509583
    19  H    2.428565   2.734493   2.142590   1.084542   2.157747
    20  H    4.809970   4.684542   3.399450   2.146372   1.085467
    21  H    7.272748   6.376026   4.977755   4.940322   3.974318
    22  H    9.567566   8.744537   7.287313   7.017722   5.808689
    23  H   10.379850   9.729044   8.214552   7.600164   6.226398
    24  H    9.210013   8.749148   7.289164   6.411551   5.059793
    25  H    6.801320   6.382574   4.980892   4.040189   2.777006
    26  H    5.845960   4.668598   3.406363   3.867941   3.391569
    27  H    4.115161   2.715290   2.154791   3.390392   3.861516
                    6          7          8          9         10
     6  C    0.000000
     7  C    1.484604   0.000000
     8  C    2.511012   1.402662   0.000000
     9  C    3.794480   2.432933   1.394715   0.000000
    10  C    4.299951   2.815347   2.418391   1.395389   0.000000
    11  C    3.794108   2.432728   2.784781   2.411530   1.395419
    12  C    2.510622   1.402599   2.409496   2.785059   2.418560
    13  C    1.402228   2.511971   3.024854   4.387405   5.162693
    14  C    2.430626   3.793181   4.384122   5.762481   6.525028
    15  H    5.141997   6.536698   7.375043   8.701793   9.258748
    16  H    6.053825   7.511013   8.430902   9.781411  10.295909
    17  H    4.786862   6.243208   7.132566   8.484399   9.030199
    18  H    4.800377   6.256824   6.886403   8.280827   9.044011
    19  H    3.418319   4.669668   5.813855   7.024064   7.287260
    20  H    2.154788   2.722297   3.980060   4.946676   4.976459
    21  H    2.716995   2.154701   1.085579   2.150310   3.399410
    22  H    4.661169   3.412842   2.151415   1.085640   2.154537
    23  H    5.386366   3.901762   3.403731   2.157175   1.086415
    24  H    4.660575   3.412539   3.870365   3.397067   2.154592
    25  H    2.716421   2.154636   3.394826   3.870378   3.399527
    26  H    2.155863   2.721290   2.776372   4.039186   4.974051
    27  H    3.409872   4.658533   5.050150   6.401940   7.274164
                   11         12         13         14         15
    11  C    0.000000
    12  C    1.394700   0.000000
    13  C    4.883306   3.706877   0.000000
    14  C    6.149890   4.881535   1.393183   0.000000
    15  H    8.614846   7.272988   5.003500   3.965236   0.000000
    16  H    9.567289   8.182042   5.756511   4.537184   1.632308
    17  H    8.354951   6.977990   4.195660   2.926184   2.925777
    18  H    8.583578   7.247393   4.019381   2.654425   2.440231
    19  H    6.418348   5.066765   3.867077   3.384353   2.574040
    20  H    4.042559   2.779753   3.391017   3.859836   4.797949
    21  H    3.870165   3.394850   2.772719   4.031229   7.131044
    22  H    3.397064   3.870665   5.056580   6.404660   9.418770
    23  H    2.157228   3.403868   6.224370   7.595553  10.322549
    24  H    1.085619   2.151202   5.808082   7.015411   9.278914
    25  H    2.150323   1.085517   3.975235   4.939439   6.954952
    26  H    4.945390   3.979744   1.085586   2.148006   5.964126
    27  H    7.014876   5.806553   2.147759   1.086909   4.367522
                   16         17         18         19         20
    16  H    0.000000
    17  H    2.329211   0.000000
    18  H    2.498014   1.760236   0.000000
    19  H    3.371289   3.273596   3.673234   0.000000
    20  H    5.796106   5.179254   5.443718   2.476498   0.000000
    21  H    8.207159   6.915171   6.439202   5.926494   4.452436
    22  H   10.534604   9.230894   8.885296   7.918112   5.929133
    23  H   11.374579  10.109873  10.123734   8.331904   5.975007
    24  H   10.179822   9.016135   9.383079   6.945114   4.551952
    25  H    7.751190   6.621530   7.110000   4.556319   2.342726
    26  H    6.674054   4.979070   4.712948   4.952459   4.294189
    27  H    4.727343   2.972137   2.466623   4.283969   4.946730
                   21         22         23         24         25
    21  H    0.000000
    22  H    2.471989   0.000000
    23  H    4.296850   2.485532   0.000000
    24  H    4.955776   4.296670   2.485660   0.000000
    25  H    4.294307   4.956011   4.296935   2.471773   0.000000
    26  H    2.337799   4.548002   5.972439   5.928204   4.453230
    27  H    4.535794   6.926507   8.318463   7.910888   5.923553
                   26         27
    26  H    0.000000
    27  H    2.464516   0.000000
 Stoichiometry    C13H13N
 Framework group  C1[X(C13H13N)]
 Deg. of freedom    75
 Full point group                 C1      NOp   1
 Largest Abelian subgroup         C1      NOp   1
 Largest concise Abelian subgroup C1      NOp   1
                         Standard orientation:                         
 ---------------------------------------------------------------------
 Center     Atomic      Atomic             Coordinates (Angstroms)
 Number     Number       Type             X           Y           Z
 ---------------------------------------------------------------------
      1          7           0        4.815407   -0.778487    0.462779
      2          6           0        4.163342    0.339556   -0.227133
      3          6           0        2.653941    0.238672   -0.148891
      4          6           0        2.019807   -0.957627    0.187369
      5          6           0        0.627730   -1.032906    0.232207
      6          6           0       -0.168609    0.082999   -0.061193
      7          6           0       -1.650066    0.001467   -0.009366
      8          6           0       -2.412318    1.074740    0.474905
      9          6           0       -3.804175    0.999396    0.522716
     10          6           0       -4.459453   -0.153417    0.088272
     11          6           0       -3.713033   -1.228827   -0.394992
     12          6           0       -2.321382   -1.150788   -0.444023
     13          6           0        0.475736    1.281324   -0.400427
     14          6           0        1.866311    1.357715   -0.438217
     15          1           0        4.680635   -0.685196    1.466825
     16          1           0        5.817119   -0.748659    0.296865
     17          1           0        4.455078    0.287017   -1.283465
     18          1           0        4.460055    1.341607    0.125878
     19          1           0        2.625295   -1.827029    0.419220
     20          1           0        0.154798   -1.966430    0.520489
     21          1           0       -1.909233    1.965974    0.836968
     22          1           0       -4.376847    1.837324    0.908123
     23          1           0       -5.543566   -0.213240    0.125934
     24          1           0       -4.215320   -2.126070   -0.743177
     25          1           0       -1.749759   -1.982608   -0.843609
     26          1           0       -0.116484    2.155838   -0.651422
     27          1           0        2.343390    2.297056   -0.705433
 ---------------------------------------------------------------------
 Rotational constants (GHZ):           2.5250809           0.3022922           0.2781996
 Standard basis: 6-31G(d,p) (6D, 7F)
 There are   275 symmetry adapted cartesian basis functions of A   symmetry.
 There are   275 symmetry adapted basis functions of A   symmetry.
   275 basis functions,   483 primitive gaussians,   275 cartesian basis functions
    49 alpha electrons       49 beta electrons
       nuclear repulsion energy       780.4919022807 Hartrees.
 NAtoms=   27 NActive=   27 NUniq=   27 SFac= 1.00D+00 NAtFMM=   60 NAOKFM=F Big=F
 Integral buffers will be    131072 words long.
 Raffenetti 2 integral format.
 Two-electron integral symmetry is turned on.
 Nuclear repulsion after empirical dispersion term =      780.4373988098 Hartrees.
 One-electron integrals computed using PRISM.
 NBasis=   275 RedAO= T EigKep=  4.08D-04  NBF=   275
 NBsUse=   275 1.00D-06 EigRej= -1.00D+00 NBFU=   275
 Initial guess from the checkpoint file:  "N4_conf-1.chk"
 B after Tr=    -0.000000   -0.000000    0.000000
         Rot=    0.999991   -0.004325    0.000441   -0.000304 Ang=  -0.50 deg.
 ExpMin= 1.61D-01 ExpMax= 4.17D+03 ExpMxC= 6.27D+02 IAcc=3 IRadAn=         5 AccDes= 0.00D+00
 Harris functional with IExCor=  402 and IRadAn=       5 diagonalized for initial guess.
 HarFok:  IExCor=  402 AccDes= 0.00D+00 IRadAn=         5 IDoV= 1 UseB2=F ITyADJ=14
 ICtDFT=  3500011 ScaDFX=  1.000000  1.000000  1.000000  1.000000
 FoFCou: FMM=F IPFlag=           0 FMFlag=      100000 FMFlg1=           0
         NFxFlg=           0 DoJE=T BraDBF=F KetDBF=T FulRan=T
         wScrn=  0.000000 ICntrl=       500 IOpCl=  0 I1Cent=   200000004 NGrid=           0
         NMat0=    1 NMatS0=      1 NMatT0=    0 NMatD0=    1 NMtDS0=    0 NMtDT0=    0
 Petite list used in FoFCou.
 Requested convergence on RMS density matrix=1.00D-08 within 128 cycles.
 Requested convergence on MAX density matrix=1.00D-06.
 Requested convergence on             energy=1.00D-06.
 No special actions if energy rises.
 Integral accuracy reduced to 1.0D-05 until final iterations.
 Initial convergence to 1.0D-05 achieved.  Increase integral accuracy.
 SCF Done:  E(RB3LYP) =  -558.041062865     A.U. after   11 cycles
            NFock= 11  Conv=0.94D-08     -V/T= 2.0099
 Calling FoFJK, ICntrl=      2127 FMM=F ISym2X=0 I1Cent= 0 IOpClX= 0 NMat=1 NMatS=1 NMatT=0.
 ***** Axes restored to original set *****
 -------------------------------------------------------------------
 Center     Atomic                   Forces (Hartrees/Bohr)
 Number     Number              X              Y              Z
 -------------------------------------------------------------------
      1        7           0.000707260    0.002547890   -0.001794880
      2        6          -0.001655792   -0.003601929    0.001453326
      3        6           0.001548022    0.001675309   -0.000537278
      4        6          -0.003620819   -0.001393935    0.000897506
      5        6           0.001869371   -0.000071495   -0.000411792
      6        6          -0.002897248   -0.000884151    0.000974688
      7        6           0.002950459    0.000024413   -0.000426826
      8        6          -0.002261671    0.000833306    0.000053867
      9        6           0.001324911   -0.000513871   -0.000196634
     10        6          -0.000701870   -0.000007314    0.000082862
     11        6           0.001341480    0.000537330   -0.000111395
     12        6          -0.002237046   -0.000946125    0.000486052
     13        6           0.003102589    0.001203239   -0.000785183
     14        6          -0.003497480   -0.000241017    0.000775431
     15        1           0.000126574    0.000131452    0.000222126
     16        1           0.000331781    0.000206487    0.000204905
     17        1           0.001377700   -0.000053982   -0.000588900
     18        1           0.001433905   -0.000104436    0.000263712
     19        1           0.000092423    0.000346007   -0.000594407
     20        1          -0.000384543    0.000173082    0.000180935
     21        1           0.000145849   -0.000210285    0.000144583
     22        1           0.000054967    0.000257951   -0.000016270
     23        1           0.000479563    0.000006021   -0.000058861
     24        1           0.000049519   -0.000252737    0.000003176
     25        1           0.000145295    0.000227843   -0.000160394
     26        1          -0.000137819   -0.000215333   -0.000042727
     27        1           0.000312621    0.000326278   -0.000017621
 -------------------------------------------------------------------
 Cartesian Forces:  Max     0.003620819 RMS     0.001214337

 GradGradGradGradGradGradGradGradGradGradGradGradGradGradGradGradGradGrad
 Berny optimization.
 Using GEDIIS/GDIIS optimizer.
 FormGI is forming the generalized inverse of G from B-inverse, IUseBI=4.
 Internal  Forces:  Max     0.003277173 RMS     0.000679726
 Search for a local minimum.
 Step number   2 out of a maximum of  147
 All quantities printed in internal units (Hartrees-Bohrs-Radians)
 Mixed Optimization -- En-DIIS/RFO-DIIS
 Update second derivatives using D2CorX and points    1    2
 DE= -2.17D-03 DEPred=-2.51D-03 R= 8.63D-01
 TightC=F SS=  1.41D+00  RLast= 2.05D-01 DXNew= 5.0454D-01 6.1392D-01
 Trust test= 8.63D-01 RLast= 2.05D-01 DXMaxT set to 5.05D-01
 ITU=  1  0
 Use linear search instead of GDIIS.
     Eigenvalues ---    0.00383   0.00858   0.00937   0.01413   0.01692
     Eigenvalues ---    0.01710   0.02083   0.02096   0.02119   0.02127
[...]
 Alpha virt. eigenvalues --    1.18279   1.20176   1.20907   1.21790   1.22821
 Alpha virt. eigenvalues --    1.23160   1.24645   1.25226   1.25745   1.27581
 Alpha virt. eigenvalues --    1.28402   1.29716   1.30420   1.31145   1.31667
 Alpha virt. eigenvalues --    1.32707   1.33193   1.34302   1.36224   1.37466
 Alpha virt. eigenvalues --    1.38137   1.38536   1.39086   1.43103   1.43753
 Alpha virt. eigenvalues --    1.44455   1.45248   1.46946   1.47677   1.49125
 Alpha virt. eigenvalues --    1.50478   1.50746   1.51548   1.52908   1.54843
 Alpha virt. eigenvalues --    1.55638   1.56551   1.57460   1.59282   1.59447
 Alpha virt. eigenvalues --    1.59929   1.60499   1.62196   1.63487   1.64020
 Alpha virt. eigenvalues --    1.64941   1.67856   1.68716   1.69962   1.70684
 Alpha virt. eigenvalues --    1.71444   1.72371   1.72874   1.74731   1.75650
 Alpha virt. eigenvalues --    1.76368   1.77498   1.77637   1.79001   1.79524
 Alpha virt. eigenvalues --    1.80848   1.83898   1.85769   1.86469   1.89896
 Alpha virt. eigenvalues --    1.90097   1.91315   1.91891   1.94110   1.94940
 Alpha virt. eigenvalues --    1.95497   1.96202   1.97883   1.98607   2.02522
 Alpha virt. eigenvalues --    2.03685   2.03955   2.05216   2.06028   2.06707
 Alpha virt. eigenvalues --    2.07942   2.08903   2.10348   2.11446   2.12300
 Alpha virt. eigenvalues --    2.14747   2.16416   2.18780   2.20024   2.20834
 Alpha virt. eigenvalues --    2.21687   2.22485   2.24062   2.24621   2.26424
 Alpha virt. eigenvalues --    2.27082   2.28580   2.30148   2.31054   2.34933
 Alpha virt. eigenvalues --    2.37402   2.37938   2.40934   2.42070   2.43932
 Alpha virt. eigenvalues --    2.46017   2.48620   2.48776   2.50744   2.52023
 Alpha virt. eigenvalues --    2.52831   2.54459   2.55497   2.56260   2.58204
 Alpha virt. eigenvalues --    2.59815   2.60353   2.61132   2.62412   2.62833
 Alpha virt. eigenvalues --    2.63771   2.64535   2.66031   2.66436   2.66659
 Alpha virt. eigenvalues --    2.67675   2.68622   2.69633   2.70120   2.70909
 Alpha virt. eigenvalues --    2.71508   2.73179   2.73878   2.74624   2.75510
 Alpha virt. eigenvalues --    2.75822   2.77243   2.77966   2.78567   2.79219
 Alpha virt. eigenvalues --    2.80048   2.81290   2.82470   2.82976   2.83588
 Alpha virt. eigenvalues --    2.84606   2.85042   2.86154   2.86354   2.87767
 Alpha virt. eigenvalues --    2.88092   2.89051   2.90660   2.91531   2.93136
 Alpha virt. eigenvalues --    2.94510   2.95215   2.97224   2.98605   3.00659
 Alpha virt. eigenvalues --    3.02705   3.03965   3.04974   3.05628   3.06757
 Alpha virt. eigenvalues --    3.07405   3.08161   3.08605   3.10332   3.10756
 Alpha virt. eigenvalues --    3.12814   3.13787   3.14420   3.15074   3.15404
 Alpha virt. eigenvalues --    3.16529   3.17022   3.17137   3.18072   3.19467
 Alpha virt. eigenvalues --    3.20830   3.21412   3.21781   3.22643   3.25056
 Alpha virt. eigenvalues --    3.25236   3.26224   3.27672   3.28270   3.28783
 Alpha virt. eigenvalues --    3.30137   3.31439   3.31857   3.33227   3.34219
 Alpha virt. eigenvalues --    3.35262   3.36608   3.37796   3.38573   3.39135
 Alpha virt. eigenvalues --    3.39935   3.40606   3.42357   3.42818   3.43599
 Alpha virt. eigenvalues --    3.44575   3.44882   3.46017   3.46474   3.47695
 Alpha virt. eigenvalues --    3.48152   3.49083   3.50137   3.51047   3.52308
 Alpha virt. eigenvalues --    3.53820   3.54799   3.55840   3.56595   3.58845
 Alpha virt. eigenvalues --    3.59016   3.60342   3.62565   3.63599   3.66201
 Alpha virt. eigenvalues --    3.67789   3.69265   3.71456   3.75128   3.75811
 Alpha virt. eigenvalues --    3.77657   3.79305   3.80367   3.82657   3.87260
 Alpha virt. eigenvalues --    3.88489   3.89575   3.91227   3.93000   3.95667
 Alpha virt. eigenvalues --    3.95748   3.97618   4.00839   4.01381   4.02822
 Alpha virt. eigenvalues --    4.04156   4.07307   4.08266   4.09969   4.10996
 Alpha virt. eigenvalues --    4.13874   4.14432   4.15231   4.16595   4.17494
 Alpha virt. eigenvalues --    4.18479   4.18952   4.19856   4.20538   4.21341
 Alpha virt. eigenvalues --    4.22379   4.22693   4.25643   4.26053   4.29302
 Alpha virt. eigenvalues --    4.29681   4.29807   4.33610   4.34977   4.38046
 Alpha virt. eigenvalues --    4.39674   4.42217   4.43048   4.50738   4.53428
 Alpha virt. eigenvalues --    4.55784   4.58381   4.60193   4.61597   4.62606
 Alpha virt. eigenvalues --    4.62882   4.67258   4.68192   4.71048   4.74738
 Alpha virt. eigenvalues --    4.81565   4.82652   4.84462   4.84873   4.86012
 Alpha virt. eigenvalues --    4.88835   4.89678   4.91276   4.94397   4.96730
 Alpha virt. eigenvalues --    5.05769   5.07436   5.11256   5.11790   5.16536
 Alpha virt. eigenvalues --    5.19209   5.22118   5.25077   5.25761   5.28760
 Alpha virt. eigenvalues --    5.33304   5.36903   5.40243   5.44834   5.53058
 Alpha virt. eigenvalues --    5.56642   5.56742   5.72252   5.78092  22.02856
 Alpha virt. eigenvalues --   22.40952  22.58986  22.66458  22.69888  22.80270
 Alpha virt. eigenvalues --   22.81117  22.82880  22.86792  22.93005  23.01719
 Alpha virt. eigenvalues --   23.28942  23.48399  32.04761
          Condensed to atoms (all electrons):
               1          2          3          4          5          6
     1  N    6.730382   0.244186  -0.079738   0.011613  -0.015811   0.001676
     2  C    0.244186   5.024983   0.285707  -0.078696   0.015996  -0.003906
     3  C   -0.079738   0.285707   5.401253   0.134594   0.167878  -0.135244
     4  C    0.011613  -0.078696   0.134594   5.439064   0.177487   0.090010
     5  C   -0.015811   0.015996   0.167878   0.177487   5.309263   0.357656
     6  C    0.001676  -0.003906  -0.135244   0.090010   0.357656   5.045451
     7  C   -0.000000  -0.000223  -0.003725   0.011156  -0.082753   0.288669
     8  C   -0.000001   0.000002   0.000731  -0.002006   0.010535  -0.078420
     9  C   -0.000000   0.000000   0.000002   0.000048  -0.000432   0.005504
    10  C    0.000000  -0.000000  -0.000006  -0.000008  -0.000231  -0.001875
    11  C   -0.000000  -0.000000   0.000052  -0.000253   0.002765   0.004770
    12  C   -0.000001   0.000015  -0.000046   0.002637  -0.004893  -0.074757
    13  C   -0.001284   0.017277   0.033896  -0.144676   0.060678   0.444741
    14  C    0.010976  -0.079832   0.346858   0.111726  -0.155844   0.008446
    15  H    0.361978  -0.039796   0.006580  -0.008892   0.001246  -0.000454
    16  H    0.366720  -0.045762   0.012062   0.001061   0.000430  -0.000036
    17  H   -0.039037   0.383603  -0.000296  -0.018375   0.000442   0.000042
    18  H   -0.052746   0.468081  -0.125455   0.031063  -0.004381   0.001685
    19  H    0.027334  -0.006574  -0.043418   0.426738  -0.053162   0.009665
    20  H   -0.000279  -0.000255   0.005449  -0.022312   0.399199  -0.040077
    21  H   -0.000000   0.000004   0.000011  -0.000230   0.000420   0.003611
    22  H   -0.000000  -0.000000   0.000000   0.000000   0.000034  -0.000156
    23  H    0.000000  -0.000000  -0.000000   0.000000  -0.000007   0.000113
    24  H   -0.000000   0.000000   0.000000  -0.000001   0.000044  -0.000130
    25  H    0.000000   0.000004  -0.000048   0.000919   0.002419   0.003953
    26  H    0.000011  -0.000316   0.003925  -0.001832   0.007414  -0.036464
    27  H   -0.000358  -0.008133  -0.047329   0.017184  -0.005313   0.006670
               7          8          9         10         11         12
     1  N   -0.000000  -0.000001  -0.000000   0.000000  -0.000000  -0.000001
     2  C   -0.000223   0.000002   0.000000  -0.000000  -0.000000   0.000015
     3  C   -0.003725   0.000731   0.000002  -0.000006   0.000052  -0.000046
     4  C    0.011156  -0.002006   0.000048  -0.000008  -0.000253   0.002637
     5  C   -0.082753   0.010535  -0.000432  -0.000231   0.002765  -0.004893
     6  C    0.288669  -0.078420   0.005504  -0.001875   0.004770  -0.074757
     7  C    4.961529   0.499669  -0.058881  -0.040715  -0.056946   0.501523
     8  C    0.499669   5.018368   0.509654  -0.039912  -0.050236  -0.025214
     9  C   -0.058881   0.509654   4.899914   0.521972  -0.038446  -0.051109
    10  C   -0.040715  -0.039912   0.521972   4.881915   0.520984  -0.038979
    11  C   -0.056946  -0.050236  -0.038446   0.520984   4.903516   0.504796
    12  C    0.501523  -0.025214  -0.051109  -0.038979   0.504796   5.020922
    13  C   -0.080125  -0.002486   0.002385  -0.000205  -0.000102   0.008058
    14  C    0.007423   0.001783  -0.000018  -0.000016   0.000023  -0.001060
    15  H   -0.000007   0.000000  -0.000000  -0.000000   0.000000   0.000000
    16  H    0.000000   0.000000   0.000000  -0.000000   0.000000   0.000000
    17  H   -0.000005   0.000000  -0.000000  -0.000000   0.000000  -0.000001
    18  H    0.000012  -0.000001   0.000000   0.000000  -0.000000   0.000001
    19  H    0.000017   0.000008  -0.000000   0.000000  -0.000006   0.000007
    20  H    0.000705   0.000098  -0.000063  -0.000128   0.001127   0.002265
    21  H   -0.037516   0.391318  -0.017130   0.001872   0.000102   0.005086
    22  H    0.005005  -0.031918   0.406873  -0.032231   0.003942  -0.000142
    23  H    0.000611   0.004457  -0.034760   0.410267  -0.034714   0.004464
    24  H    0.004847  -0.000131   0.003941  -0.032293   0.406760  -0.031513
    25  H   -0.036717   0.005029   0.000088   0.001905  -0.017848   0.391859
    26  H    0.001856   0.002874   0.000990  -0.000130  -0.000039  -0.000135
    27  H    0.000206  -0.000027   0.000000   0.000000  -0.000001   0.000046
              13         14         15         16         17         18
     1  N   -0.001284   0.010976   0.361978   0.366720  -0.039037  -0.052746
     2  C    0.017277  -0.079832  -0.039796  -0.045762   0.383603   0.468081
     3  C    0.033896   0.346858   0.006580   0.012062  -0.000296  -0.125455
     4  C   -0.144676   0.111726  -0.008892   0.001061  -0.018375   0.031063
     5  C    0.060678  -0.155844   0.001246   0.000430   0.000442  -0.004381
     6  C    0.444741   0.008446  -0.000454  -0.000036   0.000042   0.001685
     7  C   -0.080125   0.007423  -0.000007   0.000000  -0.000005   0.000012
     8  C   -0.002486   0.001783   0.000000   0.000000   0.000000  -0.000001
     9  C    0.002385  -0.000018  -0.000000   0.000000  -0.000000   0.000000
    10  C   -0.000205  -0.000016  -0.000000  -0.000000  -0.000000   0.000000
    11  C   -0.000102   0.000023   0.000000   0.000000   0.000000  -0.000000
    12  C    0.008058  -0.001060   0.000000   0.000000  -0.000001   0.000001
    13  C    5.070137   0.428755   0.000010   0.000100  -0.001239  -0.000233
    14  C    0.428755   5.107670   0.000720  -0.001916   0.002015   0.008606
    15  H    0.000010   0.000720   0.475256  -0.032638   0.009083  -0.008836
    16  H    0.000100  -0.001916  -0.032638   0.478059  -0.005488  -0.003487
    17  H   -0.001239   0.002015   0.009083  -0.005488   0.570388  -0.046045
    18  H   -0.000233   0.008606  -0.008836  -0.003487  -0.046045   0.596761
    19  H   -0.003604   0.012369  -0.001955  -0.000879  -0.001166   0.001600
    20  H    0.006743  -0.000892   0.000044   0.000002   0.000035  -0.000019
    21  H    0.002814   0.000807   0.000000   0.000000   0.000000   0.000000
    22  H    0.000040  -0.000000   0.000000   0.000000   0.000000  -0.000000
    23  H   -0.000007  -0.000000  -0.000000  -0.000000  -0.000000   0.000000
    24  H    0.000037  -0.000001  -0.000000   0.000000  -0.000000   0.000000
    25  H    0.000313  -0.000180  -0.000000  -0.000000   0.000000  -0.000000
    26  H    0.391445  -0.017470   0.000003  -0.000000   0.000013  -0.000108
    27  H   -0.022182   0.397803  -0.000126  -0.000091   0.000283   0.006627
              19         20         21         22         23         24
     1  N    0.027334  -0.000279  -0.000000  -0.000000   0.000000  -0.000000
     2  C   -0.006574  -0.000255   0.000004  -0.000000  -0.000000   0.000000
     3  C   -0.043418   0.005449   0.000011   0.000000  -0.000000   0.000000
     4  C    0.426738  -0.022312  -0.000230   0.000000   0.000000  -0.000001
     5  C   -0.053162   0.399199   0.000420   0.000034  -0.000007   0.000044
     6  C    0.009665  -0.040077   0.003611  -0.000156   0.000113  -0.000130
     7  C    0.000017   0.000705  -0.037516   0.005005   0.000611   0.004847
     8  C    0.000008   0.000098   0.391318  -0.031918   0.004457  -0.000131
     9  C   -0.000000  -0.000063  -0.017130   0.406873  -0.034760   0.003941
    10  C    0.000000  -0.000128   0.001872  -0.032231   0.410267  -0.032293
    11  C   -0.000006   0.001127   0.000102   0.003942  -0.034714   0.406760
    12  C    0.000007   0.002265   0.005086  -0.000142   0.004464  -0.031513
    13  C   -0.003604   0.006743   0.002814   0.000040  -0.000007   0.000037
    14  C    0.012369  -0.000892   0.000807  -0.000000  -0.000000  -0.000001
    15  H   -0.001955   0.000044   0.000000   0.000000  -0.000000  -0.000000
    16  H   -0.000879   0.000002   0.000000   0.000000  -0.000000   0.000000
    17  H   -0.001166   0.000035   0.000000   0.000000  -0.000000  -0.000000
    18  H    0.001600  -0.000019   0.000000  -0.000000   0.000000   0.000000
    19  H    0.464702  -0.003553   0.000001   0.000000   0.000000   0.000000
    20  H   -0.003553   0.489943   0.000041   0.000002  -0.000000   0.000063
    21  H    0.000001   0.000041   0.491323  -0.003538  -0.000275   0.000068
    22  H    0.000000   0.000002  -0.003538   0.513508  -0.003956  -0.000283
    23  H    0.000000  -0.000000  -0.000275  -0.003956   0.515290  -0.003946
    24  H    0.000000   0.000063   0.000068  -0.000283  -0.003946   0.512953
    25  H    0.000051  -0.002634  -0.000254   0.000068  -0.000271  -0.003491
    26  H    0.000026  -0.000225  -0.002497   0.000064  -0.000000   0.000002
    27  H   -0.000024   0.000042   0.000047   0.000000  -0.000000   0.000000
              25         26         27
     1  N    0.000000   0.000011  -0.000358
     2  C    0.000004  -0.000316  -0.008133
     3  C   -0.000048   0.003925  -0.047329
     4  C    0.000919  -0.001832   0.017184
     5  C    0.002419   0.007414  -0.005313
     6  C    0.003953  -0.036464   0.006670
     7  C   -0.036717   0.001856   0.000206
     8  C    0.005029   0.002874  -0.000027
     9  C    0.000088   0.000990   0.000000
    10  C    0.001905  -0.000130   0.000000
    11  C   -0.017848  -0.000039  -0.000001
    12  C    0.391859  -0.000135   0.000046
    13  C    0.000313   0.391445  -0.022182
    14  C   -0.000180  -0.017470   0.397803
    15  H   -0.000000   0.000003  -0.000126
    16  H   -0.000000  -0.000000  -0.000091
    17  H    0.000000   0.000013   0.000283
    18  H   -0.000000  -0.000108   0.006627
    19  H    0.000051   0.000026  -0.000024
    20  H   -0.002634  -0.000225   0.000042
    21  H   -0.000254  -0.002497   0.000047
    22  H    0.000068   0.000064   0.000000
    23  H   -0.000271  -0.000000  -0.000000
    24  H   -0.003491   0.000002   0.000000
    25  H    0.488802   0.000038   0.000002
    26  H    0.000038   0.490896  -0.003409
    27  H    0.000002  -0.003409   0.515789
 Mulliken charges:
               1
     1  N   -0.565621
     2  C   -0.176365
     3  C    0.036307
     4  C   -0.178019
     5  C   -0.191079
     6  C    0.098857
     7  C    0.114385
     8  C   -0.214173
     9  C   -0.150535
    10  C   -0.152186
    11  C   -0.150243
    12  C   -0.213831
    13  C   -0.211287
    14  C   -0.188749
    15  H    0.237785
    16  H    0.231864
    17  H    0.145748
    18  H    0.126878
    19  H    0.171820
    20  H    0.164680
    21  H    0.163916
    22  H    0.142688
    23  H    0.142734
    24  H    0.143073
    25  H    0.165992
    26  H    0.163070
    27  H    0.142292
 Sum of Mulliken charges =  -0.00000
 Mulliken charges with hydrogens summed into heavy atoms:
               1
     1  N   -0.095973
     2  C    0.096261
     3  C    0.036307
     4  C   -0.006199
     5  C   -0.026399
     6  C    0.098857
     7  C    0.114385
     8  C   -0.050257
     9  C   -0.007847
    10  C   -0.009452
    11  C   -0.007170
    12  C   -0.047839
    13  C   -0.048217
    14  C   -0.046457
 Electronic spatial extent (au):  <R**2>=           3864.5230
 Charge=             -0.0000 electrons
 Dipole moment (field-independent basis, Debye):
    X=              1.0958    Y=              1.0052    Z=              0.2035  Tot=              1.5009
 Quadrupole moment (field-independent basis, Debye-Ang):
   XX=            -66.3035   YY=            -78.7596   ZZ=            -86.3985
   XY=              4.6734   XZ=              0.5683   YZ=              1.8112
 Traceless Quadrupole moment (field-independent basis, Debye-Ang):
   XX=             10.8504   YY=             -1.6057   ZZ=             -9.2447
   XY=              4.6734   XZ=              0.5683   YZ=              1.8112
 Octapole moment (field-independent basis, Debye-Ang**2):
  XXX=             62.0935  YYY=              3.1262  ZZZ=              5.8304  XYY=            -10.3013
  XXY=             16.3199  XXZ=             10.0949  XZZ=             19.0708  YZZ=              0.1358
  YYZ=             -2.1093  XYZ=             -7.6556
 Hexadecapole moment (field-independent basis, Debye-Ang**3):
 XXXX=          -3776.8672 YYYY=           -555.6219 ZZZZ=           -198.0524 XXXY=             65.5685
 XXXZ=             35.5439 YYYX=             16.4363 YYYZ=              5.3858 ZZZX=             26.6683
 ZZZY=              1.6421 XXYY=           -861.8357 XXZZ=           -794.2668 YYZZ=           -132.4784
 XXYZ=             43.3975 YYXZ=             -5.4321 ZZXY=             -4.3440
 N-N= 7.803477703186D+02 E-N=-2.855119201249D+03  KE= 5.548591714706D+02
 Unable to Open any file for archive entry.
 1\1\GINC-NOTCH241\SP\RM062X\def2TZVP\C13H13N1\U6032257\21-Feb-2022\0\\
 # M062X/def2tzvp int=(grid=ultrafine) nmr=giao guess=read geom=check\\
 N4.xyz\\0,1\N,0,4.6694347972,-0.5307078974,0.546188138\C,0,3.958641742
 3,0.0383583746,-0.602087392\C,0,2.4608029226,0.0439306712,-0.381203935
 7\C,0,1.834584991,-0.9859465912,0.3303074716\C,0,0.4542816419,-0.99124
 94571,0.5047809364\C,0,-0.3496451726,0.0293549146,-0.0279293295\C,0,-1
 .8192945576,0.0211450828,0.1587537071\C,0,-2.5268140707,1.2154436526,0
 .3692340137\C,0,-3.9089887925,1.2074260466,0.5426761573\C,0,-4.6142069
 759,0.0037214785,0.5124027142\C,0,-3.9239400014,-1.191283577,0.3056909
 72\C,0,-2.5421458102,-1.1821605729,0.1295557504\C,0,0.283949949,1.0599
 401051,-0.7382217088\C,0,1.6660548014,1.067618267,-0.9057413504\H,0,4.
 5527387506,0.0769490565,1.3538681077\H,0,5.6660074904,-0.5728511857,0.
 3506382111\H,0,4.1909579399,-0.5929938577,-1.4708963251\H,0,4.27619082
 71,1.0597055754,-0.8744019812\H,0,2.4495480859,-1.7690947821,0.7603294
 573\H,0,-0.0086598211,-1.7835985398,1.0849127245\H,0,-1.9823955597,2.1
 529693265,0.4224480634\H,0,-4.4351234805,2.1422863125,0.7116400806\H,0
 ,-5.6912176328,-0.0030217817,0.6487455635\H,0,-4.4639734442,-2.1328339
 54,0.2719045586\H,0,-2.0163763121,-2.1129623602,-0.0582305289\H,0,-0.3
 146139948,1.8517028111,-1.1777076484\H,0,2.1340016867,1.8781528819,-1.
 4591564276\\Version=ES64L-G16RevC.01\State=1-A\HF=-557.9252928\RMSD=1.
 974e-09\Dipole=0.436615,0.3921393,-0.0653168\Quadrupole=8.064919,-1.06
 88774,-6.9960416,3.2108213,-1.6362783,-0.6196334\PG=C01 [X(C13H13N1)]\
 \@
 The archive entry for this job was punched.


 IT IS A PROFOUNDLY ERRONEOUS TRUISM ... THAT WE SHOULD CULTIVATE
 THE HABIT OF THINKING OF WHAT WE ARE DOING.
 THE PRECISE OPPOSITE IS THE CASE.
 CIVILIZATION ADVANCES BY EXTENDING THE NUMBER OF IMPORTANT OPERATIONS
 WHICH WE CAN PERFORM WITHOUT THINKING ABOUT THEM.

                                    -- ALFRED NORTH WHITEHEAD
 Job cpu time:       0 days  0 hours 48 minutes 27.6 seconds.
 Elapsed time:       0 days  0 hours  0 minutes 54.1 seconds.
 File lengths (MBytes):  RWF=    149 Int=      0 D2E=      0 Chk=     25 Scr=      1
 Normal termination of Gaussian 16 at Mon Feb 21 19:42:11 2022.
