 Entering Gaussian System, Link 0=/uufs/chpc.utah.edu/sys/installdir/gaussian16/C01/AVX2/g16/g16
 Input=N5_conf-2.com
 Output=N5_conf-2.log
 Initial command:
 /uufs/chpc.utah.edu/sys/installdir/gaussian16/C01/AVX2/g16/l1.exe "/scratch/local/u6032257/4038854/notchpeak.peaks/Gau-220002.inp" -scrdir="/scratch/local/u6032257/4038854/notchpeak.peaks/"
 Entering Link 1 = /uufs/chpc.utah.edu/sys/installdir/gaussian16/C01/AVX2/g16/l1.exe PID=    220004.
  
 Copyright (c) 1988-2019, Gaussian, Inc.  All Rights Reserved.
  
 This is part of the Gaussian(R) 16 program.  It is based on
 the Gaussian(R) 09 system (copyright 2009, Gaussian, Inc.),
 the Gaussian(R) 03 system (copyright 2003, Gaussian, Inc.),
 the Gaussian(R) 98 system (copyright 1998, Gaussian, Inc.),
 the Gaussian(R) 94 system (copyright 1995, Gaussian, Inc.),
 the Gaussian 92(TM) system (copyright 1992, Gaussian, Inc.),
 the Gaussian 90(TM) system (copyright 1990, Gaussian, Inc.),
 the Gaussian 88(TM) system (copyright 1988, Gaussian, Inc.),
 the Gaussian 86(TM) system (copyright 1986, Carnegie Mellon
 University), and the Gaussian 82(TM) system (copyright 1983,
 Carnegie Mellon University). Gaussian is a federally registered
 trademark of Gaussian, Inc.
  
 This software contains proprietary and confidential information,
 including trade secrets, belonging to Gaussian, Inc.
  
 This software is provided under written license and may be
 used, copied, transmitted, or stored only in accord with that
 written license.
  
 The following legend is applicable only to US Government
 contracts under FAR:
  
                    RESTRICTED RIGHTS LEGEND
  
 Use, reproduction and disclosure by the US Government is
 subject to restrictions as set forth in subparagraphs (a)
 and (c) of the Commercial Computer Software - Restricted
 Rights clause in FAR 52.227-19.
  
 Gaussian, Inc.
 340 Quinnipiac St., Bldg. 40, Wallingford CT 06492
  
  
 ---------------------------------------------------------------
 Warning -- This program may not be used in any manner that
 competes with the business of Gaussian, Inc. or will provide
 assistance to any competitor of Gaussian, Inc.  The licensee
 of this program is prohibited from giving any competitor of
 Gaussian, Inc. access to this program.  By using this program,
 the user acknowledges that Gaussian, Inc. is engaged in the
 business of creating and licensing software in the field of
 computational chemistry and represents and warrants to the
 licensee that it is not a competitor of Gaussian, Inc. and that
 it will not use this program in any manner prohibited above.
 ---------------------------------------------------------------
  

 Cite this work as:
 Gaussian 16, Revision C.01,
 M. J. Frisch, G. W. Trucks, H. B. Schlegel, G. E. Scuseria, 
 M. A. Robb, J. R. Cheeseman, G. Scalmani, V. Barone, 
 G. A. Petersson, H. Nakatsuji, X. Li, M. Caricato, A. V. Marenich, 
 J. Bloino, B. G. Janesko, R. Gomperts, B. Mennucci, H. P. Hratchian, 
 J. V. Ortiz, A. F. Izmaylov, J. L. Sonnenberg, D. Williams-Young, 
 F. Ding, F. Lipparini, F. Egidi, J. Goings, B. Peng, A. Petrone, 
 T. Henderson, D. Ranasinghe, V. G. Zakrzewski, J. Gao, N. Rega, 
 G. Zheng, W. Liang, M. Hada, M. Ehara, K. Toyota, R. Fukuda, 
 J. Hasegawa, M. Ishida, T. Nakajima, Y. Honda, O. Kitao, H. Nakai, 
 T. Vreven, K. Throssell, J. A. Montgomery, Jr., J. E. Peralta, 
 F. Ogliaro, M. J. Bearpark, J. J. Heyd, E. N. Brothers, K. N. Kudin, 
 V. N. Staroverov, T. A. Keith, R. Kobayashi, J. Normand, 
 K. Raghavachari, A. P. Rendell, J. C. Burant, S. S. Iyengar, 
 J. Tomasi, M. Cossi, J. M. Millam, M. Klene, C. Adamo, R. Cammi, 
 J. W. Ochterski, R. L. Martin, K. Morokuma, O. Farkas, 
 J. B. Foresman, and D. J. Fox, Gaussian, Inc., Wallingford CT, 2019.
 
 ******************************************
 Gaussian 16:  ES64L-G16RevC.01  3-Jul-2019
                21-Feb-2022 
 ******************************************
 %NProcShared=52
 Will use up to   52 processors via shared memory.
 %mem=16GB
 %chk=N5_conf-2.chk
 ----------------------------------------------------------------------
 # B3LYP/6-31G(d,p) empiricaldispersion=GD3BJ int=(grid=ultrafine) opt 
 freq=noraman
 ----------------------------------------------------------------------
 1/18=20,19=15,26=4,38=1/1,3;
 2/9=110,12=2,17=6,18=5,40=1/2;
 3/5=1,6=6,7=101,11=2,25=1,30=1,71=1,74=-5,75=-5,124=41/1,2,3;
 4//1;
 5/5=2,38=5/2;
 6/7=2,8=2,9=2,10=2,28=1/1;
 7//1,2,3,16;
 1/18=20,19=15,26=4/3(2);
 2/9=110/2;
 99//99;
 2/9=110/2;
 3/5=1,6=6,7=101,11=2,25=1,30=1,71=1,74=-5,75=-5,124=41/1,2,3;
 4/5=5,16=3,69=1/1;
 5/5=2,38=5/2;
 7//1,2,3,16;
 1/18=20,19=15,26=4/3(-5);
 2/9=110/2;
 6/7=2,8=2,9=2,10=2,19=2,28=1/1;
 99/9=1/99;
 ------
 N5.xyz
 ------
 Symbolic Z-matrix:
 Charge =  0 Multiplicity = 1
 N                     1.993     0.336     0.928 
 C                     0.6214    0.3916    0.4886 
 C                     0.5039    0.5473   -1.0304 
 C                    -0.9711    0.5499   -1.4724 
 O                    -1.6134   -0.634    -1.0027 
 C                    -1.6298   -0.7633    0.4177 
 C                    -0.1853   -0.8267    0.9473 
 H                     2.0347    0.288     1.9357 
 H                     2.4807    1.1771    0.656 
 H                     0.1537    1.271     0.9367 
 H                     0.9967    1.4587   -1.3675 
 H                     1.003    -0.2894   -1.5214 
 H                    -1.4911    1.4374   -1.1062 
 H                    -1.0384    0.5762   -2.5607 
 H                    -2.1677   -1.6752    0.6797 
 H                    -2.1799    0.0642    0.8702 
 H                    -0.1887   -0.9046    2.034 
 H                     0.2775   -1.7359    0.5605 
 

 GradGradGradGradGradGradGradGradGradGradGradGradGradGradGradGradGradGrad
 Berny optimization.
 Initialization pass.
                           ----------------------------
                           !    Initial Parameters    !
                           ! (Angstroms and Degrees)  !
 --------------------------                            --------------------------
 ! Name  Definition              Value          Derivative Info.                !
 --------------------------------------------------------------------------------
 ! R1    R(1,2)                  1.4413         estimate D2E/DX2                !
 ! R2    R(1,8)                  1.0097         estimate D2E/DX2                !
 ! R3    R(1,9)                  1.0096         estimate D2E/DX2                !
 ! R4    R(2,3)                  1.5315         estimate D2E/DX2                !
 ! R5    R(2,7)                  1.5315         estimate D2E/DX2                !
 ! R6    R(2,10)                 1.0922         estimate D2E/DX2                !
 ! R7    R(3,4)                  1.5398         estimate D2E/DX2                !
 ! R8    R(3,11)                 1.0896         estimate D2E/DX2                !
 ! R9    R(3,12)                 1.091          estimate D2E/DX2                !
 ! R10   R(4,5)                  1.4265         estimate D2E/DX2                !
 ! R11   R(4,13)                 1.0919         estimate D2E/DX2                !
 ! R12   R(4,14)                 1.0907         estimate D2E/DX2                !
 ! R13   R(5,6)                  1.4264         estimate D2E/DX2                !
 ! R14   R(6,7)                  1.5398         estimate D2E/DX2                !
 ! R15   R(6,15)                 1.0907         estimate D2E/DX2                !
 ! R16   R(6,16)                 1.0918         estimate D2E/DX2                !
 ! R17   R(7,17)                 1.0895         estimate D2E/DX2                !
 ! R18   R(7,18)                 1.0911         estimate D2E/DX2                !
 ! A1    A(2,1,8)              110.2053         estimate D2E/DX2                !
 ! A2    A(2,1,9)              110.2076         estimate D2E/DX2                !
 ! A3    A(8,1,9)              106.7702         estimate D2E/DX2                !
 ! A4    A(1,2,3)              112.2907         estimate D2E/DX2                !
 ! A5    A(1,2,7)              112.2881         estimate D2E/DX2                !
 ! A6    A(1,2,10)             108.2695         estimate D2E/DX2                !
 ! A7    A(3,2,7)              109.7269         estimate D2E/DX2                !
 ! A8    A(3,2,10)             106.991          estimate D2E/DX2                !
 ! A9    A(7,2,10)             106.9819         estimate D2E/DX2                !
 ! A10   A(2,3,4)              111.0006         estimate D2E/DX2                !
 ! A11   A(2,3,11)             110.9291         estimate D2E/DX2                !
 ! A12   A(2,3,12)             109.4702         estimate D2E/DX2                !
 ! A13   A(4,3,11)             110.0619         estimate D2E/DX2                !
 ! A14   A(4,3,12)             108.0792         estimate D2E/DX2                !
 ! A15   A(11,3,12)            107.1793         estimate D2E/DX2                !
 ! A16   A(3,4,5)              109.5972         estimate D2E/DX2                !
 ! A17   A(3,4,13)             111.1805         estimate D2E/DX2                !
 ! A18   A(3,4,14)             110.2164         estimate D2E/DX2                !
 ! A19   A(5,4,13)             110.4711         estimate D2E/DX2                !
 ! A20   A(5,4,14)             108.7103         estimate D2E/DX2                !
 ! A21   A(13,4,14)            106.5988         estimate D2E/DX2                !
 ! A22   A(4,5,6)              114.0988         estimate D2E/DX2                !
 ! A23   A(5,6,7)              109.5994         estimate D2E/DX2                !
 ! A24   A(5,6,15)             108.704          estimate D2E/DX2                !
 ! A25   A(5,6,16)             110.4746         estimate D2E/DX2                !
 ! A26   A(7,6,15)             110.219          estimate D2E/DX2                !
 ! A27   A(7,6,16)             111.1801         estimate D2E/DX2                !
 ! A28   A(15,6,16)            106.5968         estimate D2E/DX2                !
 ! A29   A(2,7,6)              111.0            estimate D2E/DX2                !
 ! A30   A(2,7,17)             110.9326         estimate D2E/DX2                !
 ! A31   A(2,7,18)             109.4686         estimate D2E/DX2                !
 ! A32   A(6,7,17)             110.0639         estimate D2E/DX2                !
 ! A33   A(6,7,18)             108.0767         estimate D2E/DX2                !
 ! A34   A(17,7,18)            107.1782         estimate D2E/DX2                !
 ! D1    D(8,1,2,3)            176.6895         estimate D2E/DX2                !
 ! D2    D(8,1,2,7)            -59.0966         estimate D2E/DX2                !
 ! D3    D(8,1,2,10)            58.7901         estimate D2E/DX2                !
 ! D4    D(9,1,2,3)             59.103          estimate D2E/DX2                !
 ! D5    D(9,1,2,7)           -176.6831         estimate D2E/DX2                !
 ! D6    D(9,1,2,10)           -58.7964         estimate D2E/DX2                !
 ! D7    D(1,2,3,4)            177.8551         estimate D2E/DX2                !
 ! D8    D(1,2,3,11)           -59.447          estimate D2E/DX2                !
 ! D9    D(1,2,3,12)            58.6272         estimate D2E/DX2                !
 ! D10   D(7,2,3,4)             52.2322         estimate D2E/DX2                !
 ! D11   D(7,2,3,11)           174.93           estimate D2E/DX2                !
 ! D12   D(7,2,3,12)           -66.9958         estimate D2E/DX2                !
 ! D13   D(10,2,3,4)           -63.4901         estimate D2E/DX2                !
 ! D14   D(10,2,3,11)           59.2077         estimate D2E/DX2                !
 ! D15   D(10,2,3,12)          177.2819         estimate D2E/DX2                !
 ! D16   D(1,2,7,6)           -177.8543         estimate D2E/DX2                !
 ! D17   D(1,2,7,17)            59.4432         estimate D2E/DX2                !
 ! D18   D(1,2,7,18)           -58.6307         estimate D2E/DX2                !
 ! D19   D(3,2,7,6)            -52.2298         estimate D2E/DX2                !
 ! D20   D(3,2,7,17)          -174.9323         estimate D2E/DX2                !
 ! D21   D(3,2,7,18)            66.9937         estimate D2E/DX2                !
 ! D22   D(10,2,7,6)            63.4982         estimate D2E/DX2                !
 ! D23   D(10,2,7,17)          -59.2043         estimate D2E/DX2                !
 ! D24   D(10,2,7,18)         -177.2783         estimate D2E/DX2                !
 ! D25   D(2,3,4,5)            -55.6204         estimate D2E/DX2                !
 ! D26   D(2,3,4,13)            66.7975         estimate D2E/DX2                !
 ! D27   D(2,3,4,14)          -175.2222         estimate D2E/DX2                !
 ! D28   D(11,3,4,5)          -178.8184         estimate D2E/DX2                !
 ! D29   D(11,3,4,13)          -56.4005         estimate D2E/DX2                !
 ! D30   D(11,3,4,14)           61.5798         estimate D2E/DX2                !
 ! D31   D(12,3,4,5)            64.4385         estimate D2E/DX2                !
 ! D32   D(12,3,4,13)         -173.1436         estimate D2E/DX2                !
 ! D33   D(12,3,4,14)          -55.1633         estimate D2E/DX2                !
 ! D34   D(3,4,5,6)             61.3788         estimate D2E/DX2                !
 ! D35   D(13,4,5,6)           -61.4605         estimate D2E/DX2                !
 ! D36   D(14,4,5,6)          -178.0997         estimate D2E/DX2                !
 ! D37   D(4,5,6,7)            -61.378          estimate D2E/DX2                !
 ! D38   D(4,5,6,15)           178.0999         estimate D2E/DX2                !
 ! D39   D(4,5,6,16)            61.4647         estimate D2E/DX2                !
 ! D40   D(5,6,7,2)             55.619          estimate D2E/DX2                !
 ! D41   D(5,6,7,17)           178.8225         estimate D2E/DX2                !
 ! D42   D(5,6,7,18)           -64.436          estimate D2E/DX2                !
 ! D43   D(15,6,7,2)           175.2161         estimate D2E/DX2                !
 ! D44   D(15,6,7,17)          -61.5804         estimate D2E/DX2                !
 ! D45   D(15,6,7,18)           55.1611         estimate D2E/DX2                !
 ! D46   D(16,6,7,2)           -66.8046         estimate D2E/DX2                !
 ! D47   D(16,6,7,17)           56.3989         estimate D2E/DX2                !
 ! D48   D(16,6,7,18)          173.1404         estimate D2E/DX2                !
 --------------------------------------------------------------------------------
 Trust Radius=3.00D-01 FncErr=1.00D-07 GrdErr=1.00D-06 EigMax=2.50D+02 EigMin=1.00D-04
 Number of steps in this run=    108 maximum allowed number of steps=    108.
 GradGradGradGradGradGradGradGradGradGradGradGradGradGradGradGradGradGrad

                          Input orientation:                          
 ---------------------------------------------------------------------
 Center     Atomic      Atomic             Coordinates (Angstroms)
 Number     Number       Type             X           Y           Z
 ---------------------------------------------------------------------
      1          7           0        1.993000    0.336000    0.928000
      2          6           0        0.621400    0.391600    0.488600
      3          6           0        0.503900    0.547300   -1.030400
      4          6           0       -0.971100    0.549900   -1.472400
      5          8           0       -1.613400   -0.634000   -1.002700
      6          6           0       -1.629800   -0.763300    0.417700
      7          6           0       -0.185300   -0.826700    0.947300
      8          1           0        2.034700    0.288000    1.935700
      9          1           0        2.480700    1.177100    0.656000
     10          1           0        0.153700    1.271000    0.936700
     11          1           0        0.996700    1.458700   -1.367500
     12          1           0        1.003000   -0.289400   -1.521400
     13          1           0       -1.491100    1.437400   -1.106200
     14          1           0       -1.038400    0.576200   -2.560700
     15          1           0       -2.167700   -1.675200    0.679700
     16          1           0       -2.179900    0.064200    0.870200
     17          1           0       -0.188700   -0.904600    2.034000
     18          1           0        0.277500   -1.735900    0.560500
 ---------------------------------------------------------------------
                    Distance matrix (angstroms):
                    1          2          3          4          5
     1  N    0.000000
     2  C    1.441336   0.000000
     3  C    2.469291   1.531473   0.000000
     4  C    3.820152   2.531133   1.539804   0.000000
     5  O    4.204120   2.875789   2.424705   1.426459   0.000000
     6  C    3.820150   2.531150   2.892636   2.393921   1.426367
     7  C    2.469258   1.531478   2.504829   2.892656   2.424686
     8  H    1.009704   2.025401   3.347885   4.551766   4.774192
     9  H    1.009596   2.025347   2.673636   4.103461   4.774204
    10  H    2.063329   1.092191   2.125056   2.754800   3.242366
    11  H    2.742697   2.173628   1.089559   2.170060   3.365278
    12  H    2.714919   2.156265   1.090985   2.145669   2.689488
    13  H    4.182105   2.846004   2.185875   1.091860   2.077587
    14  H    4.627970   3.476671   2.172865   1.090696   2.054890
    15  H    4.627959   3.476674   3.873163   3.318803   2.054706
    16  H    4.182142   2.846066   3.323921   2.680462   2.077537
    17  H    2.742652   2.173628   3.460962   3.875895   3.365196
    18  H    2.714915   2.156315   2.791992   3.304023   2.689476
                    6          7          8          9         10
     6  C    0.000000
     7  C    1.539830   0.000000
     8  H    4.103427   2.673554   0.000000
     9  H    4.551719   3.347779   1.620817   0.000000
    10  H    2.754743   2.124942   2.345730   2.345749   0.000000
    11  H    3.875916   3.460994   3.655012   2.525095   2.460735
    12  H    3.303986   2.791994   3.653674   3.012522   3.032889
    13  H    2.680408   3.323872   4.796409   4.352965   2.628021
    14  H    3.318867   3.873238   5.453862   4.805445   3.759742
    15  H    1.090661   2.172895   4.805399   5.453788   3.759660
    16  H    1.091844   2.185881   4.352956   4.796417   2.628018
    17  H    2.170060   1.089494   2.524968   3.654867   2.460598
    18  H    2.145725   1.091074   3.012490   3.653598   3.032870
                   11         12         13         14         15
    11  H    0.000000
    12  H    1.754873   0.000000
    13  H    2.501576   3.061824   0.000000
    14  H    2.518762   2.448820   1.749907   0.000000
    15  H    4.901610   4.101051   3.651781   4.104182   0.000000
    16  H    4.128283   3.996953   2.503254   3.651882   1.749843
    17  H    4.308197   3.799933   4.128204   4.901635   2.518808
    18  H    3.799987   2.636858   3.996957   4.101133   2.448856
                   16         17         18
    16  H    0.000000
    17  H    2.501576   0.000000
    18  H    3.061877   1.754880   0.000000
 Stoichiometry    C5H11NO
 Framework group  C1[X(C5H11NO)]
 Deg. of freedom    48
 Full point group                 C1      NOp   1
 Largest Abelian subgroup         C1      NOp   1
 Largest concise Abelian subgroup C1      NOp   1
                         Standard orientation:                         
 ---------------------------------------------------------------------
 Center     Atomic      Atomic             Coordinates (Angstroms)
 Number     Number       Type             X           Y           Z
 ---------------------------------------------------------------------
      1          7           0        2.401796    0.000004   -0.128232
      2          6           0        1.017517    0.000026    0.273292
      3          6           0        0.274952    1.252421   -0.201589
      4          6           0       -1.211405    1.196972    0.196737
      5          8           0       -1.798365   -0.000041   -0.310634
      6          6           0       -1.211409   -1.196949    0.196729
      7          6           0        0.274986   -1.252408   -0.201557
      8          1           0        2.873480   -0.810476    0.246120
      9          1           0        2.873502    0.810341    0.246110
     10          1           0        0.977606   -0.000061    1.364754
     11          1           0        0.736159    2.154124    0.200106
     12          1           0        0.331793    1.318443   -1.289090
     13          1           0       -1.331669    1.251601    1.280577
     14          1           0       -1.745313    2.052141   -0.219492
     15          1           0       -1.745345   -2.052041   -0.219531
     16          1           0       -1.331702   -1.251653    1.280546
     17          1           0        0.736170   -2.154073    0.200072
     18          1           0        0.331818   -1.318415   -1.289149
 ---------------------------------------------------------------------
 Rotational constants (GHZ):           4.5435511           2.2571045           1.6387736
 Standard basis: 6-31G(d,p) (6D, 7F)
 There are   160 symmetry adapted cartesian basis functions of A   symmetry.
 There are   160 symmetry adapted basis functions of A   symmetry.
   160 basis functions,   273 primitive gaussians,   160 cartesian basis functions
    28 alpha electrons       28 beta electrons
       nuclear repulsion energy       334.2903082946 Hartrees.
 NAtoms=   18 NActive=   18 NUniq=   18 SFac= 1.00D+00 NAtFMM=   60 NAOKFM=F Big=F
 Integral buffers will be    131072 words long.
 Raffenetti 2 integral format.
 Two-electron integral symmetry is turned on.
 Nuclear repulsion after empirical dispersion term =      334.2643574354 Hartrees.
 One-electron integrals computed using PRISM.
 NBasis=   160 RedAO= T EigKep=  3.27D-03  NBF=   160
 NBsUse=   160 1.00D-06 EigRej= -1.00D+00 NBFU=   160
 ExpMin= 1.61D-01 ExpMax= 5.48D+03 ExpMxC= 8.25D+02 IAcc=3 IRadAn=         5 AccDes= 0.00D+00
 Harris functional with IExCor=  402 and IRadAn=       5 diagonalized for initial guess.
 HarFok:  IExCor=  402 AccDes= 0.00D+00 IRadAn=         5 IDoV= 1 UseB2=F ITyADJ=14
 ICtDFT=  3500011 ScaDFX=  1.000000  1.000000  1.000000  1.000000
 FoFCou: FMM=F IPFlag=           0 FMFlag=      100000 FMFlg1=           0
         NFxFlg=           0 DoJE=T BraDBF=F KetDBF=T FulRan=T
         wScrn=  0.000000 ICntrl=       500 IOpCl=  0 I1Cent=   200000004 NGrid=           0
         NMat0=    1 NMatS0=      1 NMatT0=    0 NMatD0=    1 NMtDS0=    0 NMtDT0=    0
 Petite list used in FoFCou.
 Requested convergence on RMS density matrix=1.00D-08 within 128 cycles.
 Requested convergence on MAX density matrix=1.00D-06.
 Requested convergence on             energy=1.00D-06.
 No special actions if energy rises.
 Integral accuracy reduced to 1.0D-05 until final iterations.
 Initial convergence to 1.0D-05 achieved.  Increase integral accuracy.
 SCF Done:  E(RB3LYP) =  -327.155158682     A.U. after   12 cycles
            NFock= 12  Conv=0.87D-08     -V/T= 2.0091

 **********************************************************************

            Population analysis using the SCF Density.

 **********************************************************************

 Orbital symmetries:
       Occupied  (A) (A) (A) (A) (A) (A) (A) (A) (A) (A) (A) (A)
                 (A) (A) (A) (A) (A) (A) (A) (A) (A) (A) (A) (A)
                 (A) (A) (A) (A)
       Virtual   (A) (A) (A) (A) (A) (A) (A) (A) (A) (A) (A) (A)
                 (A) (A) (A) (A) (A) (A) (A) (A) (A) (A) (A) (A)
                 (A) (A) (A) (A) (A) (A) (A) (A) (A) (A) (A) (A)
                 (A) (A) (A) (A) (A) (A) (A) (A) (A) (A) (A) (A)
                 (A) (A) (A) (A) (A) (A) (A) (A) (A) (A) (A) (A)
                 (A) (A) (A) (A) (A) (A) (A) (A) (A) (A) (A) (A)
                 (A) (A) (A) (A) (A) (A) (A) (A) (A) (A) (A) (A)
                 (A) (A) (A) (A) (A) (A) (A) (A) (A) (A) (A) (A)
                 (A) (A) (A) (A) (A) (A) (A) (A) (A) (A) (A) (A)
                 (A) (A) (A) (A) (A) (A) (A) (A) (A) (A) (A) (A)
                 (A) (A) (A) (A) (A) (A) (A) (A) (A) (A) (A) (A)
 The electronic state is 1-A.
 Alpha  occ. eigenvalues --  -19.13841 -14.30620 -10.22661 -10.22659 -10.20839
 Alpha  occ. eigenvalues --  -10.17609 -10.17608  -1.02073  -0.88943  -0.76443
 Alpha  occ. eigenvalues --   -0.75866  -0.63545  -0.62532  -0.55899  -0.48762
 Alpha  occ. eigenvalues --   -0.48042  -0.46796  -0.46013  -0.44523  -0.40733
 Alpha  occ. eigenvalues --   -0.38884  -0.37911  -0.35082  -0.34530  -0.31866
 Alpha  occ. eigenvalues --   -0.29377  -0.24566  -0.22794
 Alpha virt. eigenvalues --    0.08227   0.10232   0.12370   0.12609   0.13615
 Alpha virt. eigenvalues --    0.15639   0.16212   0.17520   0.17632   0.18632
 Alpha virt. eigenvalues --    0.19010   0.19733   0.25048   0.25155   0.26117
 Alpha virt. eigenvalues --    0.26371   0.27605   0.29260   0.52022   0.52951
 Alpha virt. eigenvalues --    0.53355   0.55942   0.55980   0.56436   0.57928
 Alpha virt. eigenvalues --    0.64322   0.64424   0.65981   0.71539   0.72379
 Alpha virt. eigenvalues --    0.73587   0.77705   0.78557   0.80493   0.81638
 Alpha virt. eigenvalues --    0.83711   0.84627   0.86336   0.88082   0.89441
 Alpha virt. eigenvalues --    0.89873   0.91043   0.93773   0.94704   0.96457
 Alpha virt. eigenvalues --    0.96492   0.97548   1.06366   1.10620   1.17947
 Alpha virt. eigenvalues --    1.22966   1.27489   1.28957   1.33266   1.37896
 Alpha virt. eigenvalues --    1.40854   1.49215   1.49633   1.57072   1.59235
 Alpha virt. eigenvalues --    1.63335   1.66638   1.71138   1.71944   1.74211
 Alpha virt. eigenvalues --    1.80143   1.86036   1.87522   1.89947   1.92090
 Alpha virt. eigenvalues --    1.93981   1.94193   1.98410   1.99608   2.01612
 Alpha virt. eigenvalues --    2.03765   2.07556   2.10958   2.11827   2.16192
 Alpha virt. eigenvalues --    2.16980   2.18772   2.23618   2.23624   2.24739
 Alpha virt. eigenvalues --    2.28783   2.29682   2.33357   2.34942   2.40418
 Alpha virt. eigenvalues --    2.42365   2.42960   2.46998   2.48010   2.52162
 Alpha virt. eigenvalues --    2.52815   2.59997   2.61700   2.63356   2.67137
 Alpha virt. eigenvalues --    2.68821   2.76263   2.76921   2.79439   2.81023
 Alpha virt. eigenvalues --    2.85824   2.85830   2.89389   2.93905   2.96055
 Alpha virt. eigenvalues --    2.96326   3.00964   3.02070   3.02734   3.23718
 Alpha virt. eigenvalues --    3.29160   3.30311   3.31627   3.32952   3.44045
 Alpha virt. eigenvalues --    3.46884   3.48023   3.48231   3.54941   3.58915
 Alpha virt. eigenvalues --    4.00360   4.04727   4.35031   4.38870   4.56281
 Alpha virt. eigenvalues --    4.72477   4.75090
          Condensed to atoms (all electrons):
               1          2          3          4          5          6
     1  N    6.799028   0.302328  -0.055044   0.003260   0.000011   0.003260
     2  C    0.302328   4.795071   0.368666  -0.023499  -0.013478  -0.023501
     3  C   -0.055044   0.368666   5.067699   0.333293  -0.047756  -0.019213
     4  C    0.003260  -0.023499   0.333293   4.723854   0.265686  -0.032414
     5  O    0.000011  -0.013478  -0.047756   0.265686   8.197341   0.265706
     6  C    0.003260  -0.023501  -0.019213  -0.032414   0.265706   4.723801
     7  C   -0.055049   0.368667  -0.023297  -0.019215  -0.047763   0.333294
     8  H    0.333259  -0.032367   0.007265  -0.000251   0.000013  -0.000091
     9  H    0.333274  -0.032370  -0.005587  -0.000091   0.000013  -0.000251
    10  H   -0.061275   0.386928  -0.068026   0.000660  -0.000882   0.000661
    11  H   -0.003761  -0.036254   0.353310  -0.026129   0.003609   0.000120
    12  H    0.003228  -0.037456   0.366722  -0.030816   0.001058   0.000050
    13  H   -0.000028  -0.011229  -0.051933   0.362514  -0.038499  -0.009706
    14  H   -0.000085   0.004072  -0.036047   0.389868  -0.031636   0.004875
    15  H   -0.000085   0.004072  -0.000058   0.004877  -0.031649   0.389877
    16  H   -0.000028  -0.011229  -0.000721  -0.009711  -0.038502   0.362512
    17  H   -0.003761  -0.036252   0.006152   0.000120   0.003609  -0.026128
    18  H    0.003228  -0.037459  -0.009716   0.000049   0.001058  -0.030814
               7          8          9         10         11         12
     1  N   -0.055049   0.333259   0.333274  -0.061275  -0.003761   0.003228
     2  C    0.368667  -0.032367  -0.032370   0.386928  -0.036254  -0.037456
     3  C   -0.023297   0.007265  -0.005587  -0.068026   0.353310   0.366722
     4  C   -0.019215  -0.000251  -0.000091   0.000660  -0.026129  -0.030816
     5  O   -0.047763   0.000013   0.000013  -0.000882   0.003609   0.001058
     6  C    0.333294  -0.000091  -0.000251   0.000661   0.000120   0.000050
     7  C    5.067746  -0.005590   0.007266  -0.068041   0.006152  -0.009716
     8  H   -0.005590   0.499720  -0.033614  -0.004952  -0.000032  -0.000115
     9  H    0.007266  -0.033614   0.499692  -0.004952   0.005529  -0.000607
    10  H   -0.068041  -0.004952  -0.004952   0.746661  -0.007288   0.008156
    11  H    0.006152  -0.000032   0.005529  -0.007288   0.661128  -0.035708
    12  H   -0.009716  -0.000115  -0.000607   0.008156  -0.035708   0.613425
    13  H   -0.000722   0.000003   0.000006   0.006302   0.000223   0.006472
    14  H   -0.000058   0.000004  -0.000001  -0.000140  -0.000321  -0.006793
    15  H   -0.036042  -0.000001   0.000004  -0.000140   0.000017  -0.000057
    16  H   -0.051940   0.000006   0.000003   0.006302   0.000078   0.000299
    17  H    0.353313   0.005530  -0.000032  -0.007289  -0.000132  -0.000071
    18  H    0.366711  -0.000607  -0.000115   0.008157  -0.000071   0.006262
              13         14         15         16         17         18
     1  N   -0.000028  -0.000085  -0.000085  -0.000028  -0.003761   0.003228
     2  C   -0.011229   0.004072   0.004072  -0.011229  -0.036252  -0.037459
     3  C   -0.051933  -0.036047  -0.000058  -0.000721   0.006152  -0.009716
     4  C    0.362514   0.389868   0.004877  -0.009711   0.000120   0.000049
     5  O   -0.038499  -0.031636  -0.031649  -0.038502   0.003609   0.001058
     6  C   -0.009706   0.004875   0.389877   0.362512  -0.026128  -0.030814
     7  C   -0.000722  -0.000058  -0.036042  -0.051940   0.353313   0.366711
     8  H    0.000003   0.000004  -0.000001   0.000006   0.005530  -0.000607
     9  H    0.000006  -0.000001   0.000004   0.000003  -0.000032  -0.000115
    10  H    0.006302  -0.000140  -0.000140   0.006302  -0.007289   0.008157
    11  H    0.000223  -0.000321   0.000017   0.000078  -0.000132  -0.000071
    12  H    0.006472  -0.006793  -0.000057   0.000299  -0.000071   0.006262
    13  H    0.690386  -0.046566  -0.000231   0.013091   0.000078   0.000299
    14  H   -0.046566   0.619443  -0.000183  -0.000231   0.000017  -0.000057
    15  H   -0.000231  -0.000183   0.619453  -0.046572  -0.000321  -0.006794
    16  H    0.013091  -0.000231  -0.046572   0.690421   0.000225   0.006471
    17  H    0.000078   0.000017  -0.000321   0.000225   0.661114  -0.035708
    18  H    0.000299  -0.000057  -0.006794   0.006471  -0.035708   0.613462
 Mulliken charges:
               1
     1  N   -0.601762
     2  C    0.065289
     3  C   -0.185707
     4  C    0.057944
     5  O   -0.487937
     6  C    0.057962
     7  C   -0.185716
     8  H    0.231820
     9  H    0.231833
    10  H    0.059160
    11  H    0.079529
    12  H    0.115666
    13  H    0.079542
    14  H    0.103838
    15  H    0.103833
    16  H    0.079526
    17  H    0.079535
    18  H    0.115642
 Sum of Mulliken charges =  -0.00000
 Mulliken charges with hydrogens summed into heavy atoms:
               1
     1  N   -0.138109
     2  C    0.124450
     3  C    0.009488
     4  C    0.241325
     5  O   -0.487937
     6  C    0.241321
     7  C    0.009461
 Electronic spatial extent (au):  <R**2>=            782.7238
 Charge=             -0.0000 electrons
 Dipole moment (field-independent basis, Debye):
    X=              1.2190    Y=              0.0002    Z=              1.9452  Tot=              2.2956
 Quadrupole moment (field-independent basis, Debye-Ang):
   XX=            -45.7547   YY=            -39.2453   ZZ=            -45.1577
   XY=             -0.0005   XZ=              2.5067   YZ=             -0.0002
 Traceless Quadrupole moment (field-independent basis, Debye-Ang):
   XX=             -2.3688   YY=              4.1406   ZZ=             -1.7718
   XY=             -0.0005   XZ=              2.5067   YZ=             -0.0002
 Octapole moment (field-independent basis, Debye-Ang**2):
  XXX=             16.6837  YYY=              0.0006  ZZZ=             -0.9367  XYY=             -1.5931
  XXY=             -0.0003  XXZ=             13.0637  XZZ=             -3.0429  YZZ=              0.0003
  YYZ=             -0.3706  XYZ=             -0.0003
 Hexadecapole moment (field-independent basis, Debye-Ang**3):
 XXXX=           -555.4129 YYYY=           -328.0929 ZZZZ=            -94.6046 XXXY=             -0.0004
 XXXZ=             29.0908 YYYX=             -0.0018 YYYZ=             -0.0009 ZZZX=              3.9850
 ZZZY=             -0.0005 XXYY=           -130.9365 XXZZ=           -120.1634 YYZZ=            -72.0319
 XXYZ=             -0.0004 YYXZ=              5.1538 ZZXY=              0.0001
 N-N= 3.342643574354D+02 E-N=-1.429785824529D+03  KE= 3.242033158565D+02
 Calling FoFJK, ICntrl=      2127 FMM=F ISym2X=0 I1Cent= 0 IOpClX= 0 NMat=1 NMatS=1 NMatT=0.
 ***** Axes restored to original set *****
 -------------------------------------------------------------------
 Center     Atomic                   Forces (Hartrees/Bohr)
 Number     Number              X              Y              Z
 -------------------------------------------------------------------
      1        7           0.013327724   -0.014591991   -0.005400669
      2        6          -0.012261053    0.006124401    0.000006196
      3        6          -0.004663786   -0.002027576   -0.001121026
      4        6           0.010101077   -0.007172411    0.011162534
      5        8          -0.009471436   -0.003237423   -0.005613412
      6        6           0.015601106    0.003760168   -0.004547251
      7        6          -0.003816364   -0.000429379   -0.003581899
      8        1           0.000099826   -0.000476189    0.006104915
      9        1           0.002926173    0.005149124   -0.001901474
     10        1          -0.012026020    0.007423081    0.000952172
     11        1           0.002350110    0.005149240   -0.000768254
     12        1           0.002499889   -0.002860671   -0.000177519
     13        1          -0.002665346    0.005397642    0.004939387
     14        1          -0.002279849   -0.005373628   -0.001481464
     15        1          -0.000961801   -0.002755769   -0.005260439
     16        1          -0.001750134    0.007245990    0.002303760
     17        1           0.000106387    0.000677493    0.005711649
     18        1           0.002883497   -0.002002102   -0.001327206
 -------------------------------------------------------------------
 Cartesian Forces:  Max     0.015601106 RMS     0.005955579

 GradGradGradGradGradGradGradGradGradGradGradGradGradGradGradGradGradGrad
 Berny optimization.
 FormGI is forming the generalized inverse of G from B-inverse, IUseBI=4.
 Internal  Forces:  Max     0.015580194 RMS     0.003738007
 Search for a local minimum.
 Step number   1 out of a maximum of  108
 All quantities printed in internal units (Hartrees-Bohrs-Radians)
 Mixed Optimization -- RFO/linear search
 Second derivative matrix not updated -- first step.
 ITU=  0
     Eigenvalues ---    0.00532   0.00568   0.01145   0.01277   0.02569
     Eigenvalues ---    0.03026   0.03828   0.04549   0.04582   0.04901
     Eigenvalues ---    0.04978   0.05072   0.05652   0.05775   0.06077
     Eigenvalues ---    0.06315   0.07989   0.08008   0.08394   0.08861
     Eigenvalues ---    0.10662   0.11426   0.11503   0.13099   0.14498
     Eigenvalues ---    0.16000   0.16000   0.16158   0.17914   0.21343
     Eigenvalues ---    0.27319   0.28470   0.28551   0.28566   0.34561
     Eigenvalues ---    0.34599   0.34600   0.34689   0.34699   0.34732
     Eigenvalues ---    0.34736   0.34864   0.34871   0.39403   0.39821
     Eigenvalues ---    0.40219   0.46022   0.46040
 RFO step:  Lambda=-7.54687543D-03 EMin= 5.32470560D-03
 Linear search not attempted -- first point.
 Iteration  1 RMS(Cart)=  0.03449822 RMS(Int)=  0.00091308
 Iteration  2 RMS(Cart)=  0.00113485 RMS(Int)=  0.00039888
 Iteration  3 RMS(Cart)=  0.00000111 RMS(Int)=  0.00039888
 Iteration  4 RMS(Cart)=  0.00000000 RMS(Int)=  0.00039888
 Variable       Old X    -DE/DX   Delta X   Delta X   Delta X     New X
                                 (Linear)    (Quad)   (Total)
    R1        2.72373   0.01558   0.00000   0.03880   0.03880   2.76253
    R2        1.90806   0.00612   0.00000   0.01308   0.01308   1.92115
    R3        1.90786   0.00622   0.00000   0.01328   0.01328   1.92114
    R4        2.89406  -0.00261   0.00000  -0.00592  -0.00572   2.88835
    R5        2.89407  -0.00260   0.00000  -0.00591  -0.00571   2.88837
    R6        2.06394   0.01152   0.00000   0.03261   0.03261   2.09655
    R7        2.90981  -0.00417   0.00000  -0.01435  -0.01436   2.89545
    R8        2.05897   0.00561   0.00000   0.01574   0.01574   2.07471
    R9        2.06166   0.00342   0.00000   0.00964   0.00964   2.07130
   R10        2.69562  -0.00564   0.00000  -0.01536  -0.01557   2.68005
   R11        2.06332   0.00731   0.00000   0.02069   0.02069   2.08400
   R12        2.06112   0.00149   0.00000   0.00420   0.00420   2.06531
   R13        2.69544  -0.00559   0.00000  -0.01523  -0.01543   2.68001
   R14        2.90986  -0.00417   0.00000  -0.01438  -0.01439   2.89547
   R15        2.06105   0.00151   0.00000   0.00427   0.00427   2.06532
   R16        2.06329   0.00733   0.00000   0.02073   0.02073   2.08401
   R17        2.05885   0.00565   0.00000   0.01585   0.01585   2.07470
   R18        2.06183   0.00336   0.00000   0.00949   0.00949   2.07132
    A1        1.92345  -0.00016   0.00000  -0.00065  -0.00065   1.92280
    A2        1.92349  -0.00017   0.00000  -0.00066  -0.00066   1.92282
    A3        1.86349   0.00024   0.00000   0.00211   0.00211   1.86560
    A4        1.95984  -0.00266   0.00000  -0.03616  -0.03801   1.92184
    A5        1.95980  -0.00266   0.00000  -0.03612  -0.03796   1.92184
    A6        1.88966   0.00634   0.00000   0.09431   0.09515   1.98481
    A7        1.91510   0.00212   0.00000  -0.01571  -0.01696   1.89813
    A8        1.86734  -0.00149   0.00000  -0.00044  -0.00018   1.86717
    A9        1.86719  -0.00148   0.00000  -0.00030  -0.00004   1.86715
   A10        1.93733  -0.00512   0.00000  -0.01445  -0.01399   1.92333
   A11        1.93608   0.00030   0.00000  -0.00631  -0.00660   1.92948
   A12        1.91062   0.00125   0.00000  -0.00421  -0.00413   1.90649
   A13        1.92094   0.00232   0.00000   0.00435   0.00407   1.92501
   A14        1.88634   0.00197   0.00000   0.01490   0.01470   1.90104
   A15        1.87063  -0.00049   0.00000   0.00701   0.00699   1.87762
   A16        1.91283   0.00769   0.00000   0.03296   0.03305   1.94589
   A17        1.94047  -0.00381   0.00000  -0.01234  -0.01237   1.92810
   A18        1.92364   0.00162   0.00000   0.01275   0.01305   1.93669
   A19        1.92809  -0.00097   0.00000  -0.00475  -0.00466   1.92342
   A20        1.89735  -0.00728   0.00000  -0.05261  -0.05278   1.84457
   A21        1.86050   0.00242   0.00000   0.02223   0.02206   1.88256
   A22        1.99140  -0.00845   0.00000  -0.05122  -0.05082   1.94058
   A23        1.91287   0.00769   0.00000   0.03294   0.03304   1.94591
   A24        1.89724  -0.00727   0.00000  -0.05247  -0.05265   1.84460
   A25        1.92815  -0.00097   0.00000  -0.00478  -0.00469   1.92345
   A26        1.92368   0.00161   0.00000   0.01268   0.01298   1.93667
   A27        1.94046  -0.00381   0.00000  -0.01237  -0.01239   1.92807
   A28        1.86047   0.00242   0.00000   0.02225   0.02207   1.88254
   A29        1.93732  -0.00512   0.00000  -0.01445  -0.01399   1.92332
   A30        1.93614   0.00030   0.00000  -0.00636  -0.00665   1.92949
   A31        1.91059   0.00125   0.00000  -0.00418  -0.00409   1.90649
   A32        1.92098   0.00232   0.00000   0.00433   0.00405   1.92503
   A33        1.88629   0.00197   0.00000   0.01492   0.01472   1.90102
   A34        1.87061  -0.00049   0.00000   0.00703   0.00701   1.87762
    D1        3.08381   0.00070   0.00000   0.03929   0.03836   3.12217
    D2       -1.03143  -0.00061   0.00000  -0.03756  -0.03663  -1.06806
    D3        1.02608   0.00005   0.00000   0.00096   0.00096   1.02704
    D4        1.03154   0.00060   0.00000   0.03751   0.03657   1.06811
    D5       -3.08370  -0.00070   0.00000  -0.03935  -0.03842  -3.12212
    D6       -1.02619  -0.00004   0.00000  -0.00083  -0.00083  -1.02702
    D7        3.10416  -0.00342   0.00000  -0.06969  -0.06938   3.03478
    D8       -1.03755  -0.00384   0.00000  -0.07868  -0.07836  -1.11591
    D9        1.02324  -0.00349   0.00000  -0.07649  -0.07630   0.94694
   D10        0.91162   0.00039   0.00000   0.01605   0.01591   0.92753
   D11        3.05310  -0.00002   0.00000   0.00706   0.00693   3.06003
   D12       -1.16930   0.00033   0.00000   0.00925   0.00899  -1.16031
   D13       -1.10811   0.00186   0.00000   0.02468   0.02461  -1.08350
   D14        1.03337   0.00145   0.00000   0.01569   0.01563   1.04899
   D15        3.09415   0.00180   0.00000   0.01788   0.01769   3.11184
   D16       -3.10414   0.00343   0.00000   0.06970   0.06939  -3.03475
   D17        1.03748   0.00384   0.00000   0.07874   0.07843   1.11591
   D18       -1.02330   0.00349   0.00000   0.07655   0.07636  -0.94694
   D19       -0.91158  -0.00040   0.00000  -0.01606  -0.01592  -0.92750
   D20       -3.05314   0.00002   0.00000  -0.00701  -0.00688  -3.06003
   D21        1.16926  -0.00033   0.00000  -0.00921  -0.00896   1.16030
   D22        1.10825  -0.00187   0.00000  -0.02478  -0.02471   1.08354
   D23       -1.03331  -0.00145   0.00000  -0.01573  -0.01567  -1.04898
   D24       -3.09409  -0.00180   0.00000  -0.01793  -0.01775  -3.11183
   D25       -0.97076  -0.00261   0.00000  -0.03186  -0.03210  -1.00286
   D26        1.16584  -0.00111   0.00000  -0.02353  -0.02368   1.14216
   D27       -3.05820   0.00055   0.00000   0.00445   0.00427  -3.05393
   D28       -3.12097  -0.00108   0.00000  -0.01692  -0.01703  -3.13800
   D29       -0.98437   0.00042   0.00000  -0.00859  -0.00860  -0.99298
   D30        1.07477   0.00207   0.00000   0.01938   0.01935   1.09412
   D31        1.12466  -0.00290   0.00000  -0.03626  -0.03638   1.08828
   D32       -3.02193  -0.00140   0.00000  -0.02793  -0.02796  -3.04989
   D33       -0.96278   0.00026   0.00000   0.00005  -0.00001  -0.96279
   D34        1.07126  -0.00157   0.00000  -0.00717  -0.00695   1.06431
   D35       -1.07269  -0.00132   0.00000  -0.01071  -0.01069  -1.08337
   D36       -3.10843   0.00059   0.00000  -0.00397  -0.00451  -3.11293
   D37       -1.07125   0.00157   0.00000   0.00716   0.00694  -1.06431
   D38        3.10843  -0.00058   0.00000   0.00398   0.00451   3.11294
   D39        1.07276   0.00131   0.00000   0.01064   0.01062   1.08338
   D40        0.97073   0.00260   0.00000   0.03185   0.03210   1.00283
   D41        3.12104   0.00107   0.00000   0.01684   0.01694   3.13799
   D42       -1.12462   0.00289   0.00000   0.03620   0.03633  -1.08830
   D43        3.05810  -0.00054   0.00000  -0.00434  -0.00417   3.05393
   D44       -1.07478  -0.00207   0.00000  -0.01935  -0.01932  -1.09410
   D45        0.96274  -0.00025   0.00000   0.00001   0.00006   0.96281
   D46       -1.16596   0.00111   0.00000   0.02359   0.02374  -1.14222
   D47        0.98435  -0.00042   0.00000   0.00858   0.00859   0.99294
   D48        3.02187   0.00140   0.00000   0.02794   0.02797   3.04984
         Item               Value     Threshold  Converged?
 Maximum Force            0.015580     0.000450     NO 
 RMS     Force            0.003738     0.000300     NO 
 Maximum Displacement     0.131806     0.001800     NO 
 RMS     Displacement     0.034943     0.001200     NO 
 Predicted change in Energy=-4.035251D-03
 GradGradGradGradGradGradGradGradGradGradGradGradGradGradGradGradGradGrad

                          Input orientation:                          
 ---------------------------------------------------------------------
 Center     Atomic      Atomic             Coordinates (Angstroms)
 Number     Number       Type             X           Y           Z
 ---------------------------------------------------------------------
      1          7           0        1.997964    0.305928    0.908846
      2          6           0        0.598080    0.427900    0.505729
      3          6           0        0.497989    0.555537   -1.014087
      4          6           0       -0.970231    0.530525   -1.451536
      5          8           0       -1.621314   -0.652657   -1.018493
      6          6           0       -1.614153   -0.753229    0.396118
      7          6           0       -0.185742   -0.807563    0.947816
      8          1           0        2.066749    0.239421    1.920961
      9          1           0        2.516172    1.135405    0.631437
     10          1           0        0.083951    1.310146    0.939538
     11          1           0        0.981476    1.480082   -1.355877
     12          1           0        1.022755   -0.285136   -1.482376
     13          1           0       -1.501376    1.418756   -1.070598
     14          1           0       -1.053643    0.531774   -2.541264
     15          1           0       -2.158779   -1.671501    0.629857
     16          1           0       -2.167498    0.090733    0.840791
     17          1           0       -0.203075   -0.881464    2.043072
     18          1           0        0.309873   -1.706356    0.563164
 ---------------------------------------------------------------------
                    Distance matrix (angstroms):
                    1          2          3          4          5
     1  N    0.000000
     2  C    1.461867   0.000000
     3  C    2.451511   1.528448   0.000000
     4  C    3.798951   2.510183   1.532206   0.000000
     5  O    4.211021   2.901132   2.439508   1.418223   0.000000
     6  C    3.798960   2.510191   2.857043   2.340189   1.418200
     7  C    2.451521   1.528458   2.484873   2.857060   2.439515
     8  H    1.016627   2.048266   3.342970   4.547716   4.799792
     9  H    1.016625   2.048278   2.667782   4.106052   4.799815
    10  H    2.161676   1.109449   2.134834   2.726966   3.254906
    11  H    2.746062   2.172478   1.097890   2.172549   3.381852
    12  H    2.649213   2.154375   1.096086   2.153659   2.709495
    13  H    4.171567   2.806122   2.178486   1.102807   2.075537
    14  H    4.611570   3.467441   2.177245   1.092917   2.010960
    15  H    4.611569   3.467443   3.836751   3.254805   2.010961
    16  H    4.171572   2.806131   3.280462   2.623285   2.075543
    17  H    2.746078   2.172488   3.450027   3.846365   3.381854
    18  H    2.649233   2.154393   2.763924   3.271287   2.709503
                    6          7          8          9         10
     6  C    0.000000
     7  C    1.532215   0.000000
     8  H    4.106037   2.667752   0.000000
     9  H    4.547736   3.342986   1.633291   0.000000
    10  H    2.726972   2.134828   2.457871   2.457877   0.000000
    11  H    3.846356   3.450032   3.668069   2.534465   2.470498
    12  H    3.271260   2.763915   3.598303   2.952361   3.048269
    13  H    2.623260   3.280455   4.803309   4.372403   2.562363
    14  H    3.254784   3.836764   5.452868   4.813937   3.743791
    15  H    1.092920   2.177237   4.813902   5.452879   3.743789
    16  H    1.102812   2.178473   4.372382   4.803325   2.562370
    17  H    2.172566   1.097884   2.534442   3.668076   2.470490
    18  H    2.153656   1.096094   2.952334   3.598336   3.048275
                   11         12         13         14         15
    11  H    0.000000
    12  H    1.770225   0.000000
    13  H    2.499940   3.073117   0.000000
    14  H    2.538925   2.469821   1.774841   0.000000
    15  H    4.872044   4.062720   3.587954   4.016435   0.000000
    16  H    4.083096   3.964353   2.420903   3.587964   1.774834
    17  H    4.304988   3.779822   4.083080   4.872048   2.538920
    18  H    3.779836   2.590811   3.964358   4.062743   2.469798
                   16         17         18
    16  H    0.000000
    17  H    2.499920   0.000000
    18  H    3.073105   1.770224   0.000000
 Stoichiometry    C5H11NO
 Framework group  C1[X(C5H11NO)]
 Deg. of freedom    48
 Full point group                 C1      NOp   1
 Largest Abelian subgroup         C1      NOp   1
 Largest concise Abelian subgroup C1      NOp   1
                         Standard orientation:                         
 ---------------------------------------------------------------------
 Center     Atomic      Atomic             Coordinates (Angstroms)
 Number     Number       Type             X           Y           Z
 ---------------------------------------------------------------------
      1          7           0        2.394037    0.000003   -0.159579
      2          6           0        1.013401    0.000003    0.320940
      3          6           0        0.280831    1.242430   -0.184895
      4          6           0       -1.203429    1.170103    0.188462
      5          8           0       -1.813485    0.000001   -0.331198
      6          6           0       -1.203443   -1.170086    0.188452
      7          6           0        0.280831   -1.242443   -0.184881
      8          1           0        2.887354   -0.816655    0.191474
      9          1           0        2.887380    0.816636    0.191492
     10          1           0        0.925753   -0.000002    1.426921
     11          1           0        0.733884    2.152491    0.229708
     12          1           0        0.370700    1.295391   -1.276006
     13          1           0       -1.328120    1.210443    1.283455
     14          1           0       -1.756467    2.008217   -0.243024
     15          1           0       -1.756463   -2.008218   -0.243030
     16          1           0       -1.328121   -1.210460    1.283450
     17          1           0        0.733877   -2.152496    0.229726
     18          1           0        0.370694   -1.295421   -1.276000
 ---------------------------------------------------------------------
 Rotational constants (GHZ):           4.6367583           2.2510370           1.6535961
 Standard basis: 6-31G(d,p) (6D, 7F)
 There are   160 symmetry adapted cartesian basis functions of A   symmetry.
 There are   160 symmetry adapted basis functions of A   symmetry.
   160 basis functions,   273 primitive gaussians,   160 cartesian basis functions
    28 alpha electrons       28 beta electrons
       nuclear repulsion energy       334.9684282225 Hartrees.
 NAtoms=   18 NActive=   18 NUniq=   18 SFac= 1.00D+00 NAtFMM=   60 NAOKFM=F Big=F
 Integral buffers will be    131072 words long.
 Raffenetti 2 integral format.
 Two-electron integral symmetry is turned on.
 Nuclear repulsion after empirical dispersion term =      334.9423227381 Hartrees.
 One-electron integrals computed using PRISM.
 NBasis=   160 RedAO= T EigKep=  3.18D-03  NBF=   160
 NBsUse=   160 1.00D-06 EigRej= -1.00D+00 NBFU=   160
 Initial guess from the checkpoint file:  "N5_conf-2.chk"
 B after Tr=    -0.000000   -0.000000    0.000000
         Rot=    1.000000    0.000002    0.000832    0.000002 Ang=   0.10 deg.
 ExpMin= 1.61D-01 ExpMax= 5.48D+03 ExpMxC= 8.25D+02 IAcc=3 IRadAn=         5 AccDes= 0.00D+00
 Harris functional with IExCor=  402 and IRadAn=       5 diagonalized for initial guess.
 HarFok:  IExCor=  402 AccDes= 0.00D+00 IRadAn=         5 IDoV= 1 UseB2=F ITyADJ=14
 ICtDFT=  3500011 ScaDFX=  1.000000  1.000000  1.000000  1.000000
 FoFCou: FMM=F IPFlag=           0 FMFlag=      100000 FMFlg1=           0
         NFxFlg=           0 DoJE=T BraDBF=F KetDBF=T FulRan=T
         wScrn=  0.000000 ICntrl=       500 IOpCl=  0 I1Cent=   200000004 NGrid=           0
         NMat0=    1 NMatS0=      1 NMatT0=    0 NMatD0=    1 NMtDS0=    0 NMtDT0=    0
 Petite list used in FoFCou.
 Requested convergence on RMS density matrix=1.00D-08 within 128 cycles.
 Requested convergence on MAX density matrix=1.00D-06.
 Requested convergence on             energy=1.00D-06.
 No special actions if energy rises.
 Integral accuracy reduced to 1.0D-05 until final iterations.
 Initial convergence to 1.0D-05 achieved.  Increase integral accuracy.
 SCF Done:  E(RB3LYP) =  -327.158591747     A.U. after   11 cycles
            NFock= 11  Conv=0.27D-08     -V/T= 2.0093
 Calling FoFJK, ICntrl=      2127 FMM=F ISym2X=0 I1Cent= 0 IOpClX= 0 NMat=1 NMatS=1 NMatT=0.
 ***** Axes restored to original set *****
 -------------------------------------------------------------------
 Center     Atomic                   Forces (Hartrees/Bohr)
 Number     Number              X              Y              Z
 -------------------------------------------------------------------
      1        7          -0.000042448   -0.001342079   -0.000943634
      2        6           0.000161887    0.000071368    0.000111862
      3        6          -0.001704081    0.000266892   -0.002444108
      4        6           0.002514081   -0.000090239   -0.004111905
      5        8          -0.000636853    0.001472937    0.000792756
      6        6           0.000374036   -0.004356635    0.002048987
      7        6          -0.002584277   -0.001499016    0.000080550
      8        1          -0.000017032    0.000660940    0.000859682
      9        1           0.000158905    0.001014825    0.000351885
     10        1           0.001743533    0.000057755    0.000646525
     11        1          -0.000670323    0.000276006   -0.000376104
     12        1           0.000599636    0.000245824    0.001070481
     13        1          -0.000147059    0.000466037    0.000824454
     14        1           0.000350319    0.001111185   -0.000545669
     15        1          -0.000275197   -0.000135307    0.001246627
     16        1           0.000092263    0.000943852    0.000132504
     17        1          -0.000817078   -0.000012824    0.000044061
     18        1           0.000899687    0.000848478    0.000211047
 -------------------------------------------------------------------
 Cartesian Forces:  Max     0.004356635 RMS     0.001260573

 GradGradGradGradGradGradGradGradGradGradGradGradGradGradGradGradGradGrad
 Berny optimization.
 Using GEDIIS/GDIIS optimizer.
 FormGI is forming the generalized inverse of G from B-inverse, IUseBI=4.
 Internal  Forces:  Max     0.002569601 RMS     0.000785785
 Search for a local minimum.
 Step number   2 out of a maximum of  108
 All quantities printed in internal units (Hartrees-Bohrs-Radians)
 Mixed Optimization -- En-DIIS/RFO-DIIS
 Update second derivatives using D2CorX and points    1    2
 DE= -3.43D-03 DEPred=-4.04D-03 R= 8.51D-01
 TightC=F SS=  1.41D+00  RLast= 2.87D-01 DXNew= 5.0454D-01 8.6068D-01
 Trust test= 8.51D-01 RLast= 2.87D-01 DXMaxT set to 5.05D-01
 ITU=  1  0
 Use linear search instead of GDIIS.
     Eigenvalues ---    0.00540   0.00579   0.01145   0.01260   0.02552
     Eigenvalues ---    0.03206   0.03957   0.04545   0.04589   0.04932
     Eigenvalues ---    0.05063   0.05391   0.05558   0.06000   0.06039
     Eigenvalues ---    0.06316   0.07840   0.07847   0.08102   0.08880
     Eigenvalues ---    0.10773   0.11743   0.11764   0.12893   0.13993
     Eigenvalues ---    0.15997   0.16000   0.16392   0.17548   0.22154
     Eigenvalues ---    0.27280   0.28174   0.28524   0.28845   0.33929
     Eigenvalues ---    0.34599   0.34623   0.34693   0.34707   0.34734
     Eigenvalues ---    0.34784   0.34866   0.34872   0.38943   0.40162
     Eigenvalues ---    0.41099   0.45742   0.46031
 RFO step:  Lambda=-3.45366844D-04 EMin= 5.39825867D-03
 Quartic linear search produced a step of -0.08298.
 Iteration  1 RMS(Cart)=  0.00835252 RMS(Int)=  0.00006527
 Iteration  2 RMS(Cart)=  0.00005300 RMS(Int)=  0.00004365
 Iteration  3 RMS(Cart)=  0.00000000 RMS(Int)=  0.00004365
 Variable       Old X    -DE/DX   Delta X   Delta X   Delta X     New X
                                 (Linear)    (Quad)   (Total)
    R1        2.76253   0.00014  -0.00322   0.00537   0.00215   2.76468
    R2        1.92115   0.00081  -0.00109   0.00331   0.00223   1.92337
    R3        1.92114   0.00081  -0.00110   0.00334   0.00224   1.92338
    R4        2.88835   0.00250   0.00047   0.00653   0.00699   2.89534
    R5        2.88837   0.00249   0.00047   0.00652   0.00697   2.89534
    R6        2.09655  -0.00051  -0.00271   0.00289   0.00019   2.09674
    R7        2.89545  -0.00119   0.00119  -0.00566  -0.00446   2.89099
    R8        2.07471   0.00005  -0.00131   0.00219   0.00088   2.07560
    R9        2.07130  -0.00036  -0.00080   0.00031  -0.00049   2.07081
   R10        2.68005   0.00256   0.00129   0.00402   0.00533   2.68538
   R11        2.08400   0.00073  -0.00172   0.00463   0.00291   2.08691
   R12        2.06531   0.00052  -0.00035   0.00191   0.00156   2.06688
   R13        2.68001   0.00257   0.00128   0.00405   0.00535   2.68536
   R14        2.89547  -0.00119   0.00119  -0.00567  -0.00447   2.89099
   R15        2.06532   0.00052  -0.00035   0.00192   0.00156   2.06688
   R16        2.08401   0.00073  -0.00172   0.00463   0.00291   2.08692
   R17        2.07470   0.00006  -0.00132   0.00221   0.00090   2.07560
   R18        2.07132  -0.00036  -0.00079   0.00028  -0.00051   2.07081
    A1        1.92280  -0.00035   0.00005  -0.00489  -0.00486   1.91794
    A2        1.92282  -0.00036   0.00006  -0.00491  -0.00488   1.91794
    A3        1.86560  -0.00024  -0.00017  -0.00672  -0.00695   1.85865
    A4        1.92184   0.00011   0.00315  -0.00529  -0.00197   1.91987
    A5        1.92184   0.00011   0.00315  -0.00528  -0.00196   1.91987
    A6        1.98481  -0.00078  -0.00790  -0.00070  -0.00867   1.97614
    A7        1.89813   0.00005   0.00141   0.00298   0.00446   1.90259
    A8        1.86717   0.00027   0.00001   0.00448   0.00444   1.87161
    A9        1.86715   0.00028   0.00000   0.00451   0.00447   1.87161
   A10        1.92333   0.00047   0.00116   0.00304   0.00413   1.92746
   A11        1.92948   0.00051   0.00055   0.00116   0.00175   1.93123
   A12        1.90649  -0.00109   0.00034  -0.00872  -0.00840   1.89809
   A13        1.92501  -0.00084  -0.00034  -0.00673  -0.00703   1.91798
   A14        1.90104   0.00078  -0.00122   0.00962   0.00844   1.90948
   A15        1.87762   0.00017  -0.00058   0.00169   0.00112   1.87874
   A16        1.94589  -0.00091  -0.00274   0.00531   0.00248   1.94837
   A17        1.92810  -0.00048   0.00103  -0.01042  -0.00941   1.91869
   A18        1.93669   0.00017  -0.00108   0.00410   0.00296   1.93965
   A19        1.92342  -0.00004   0.00039  -0.00819  -0.00783   1.91560
   A20        1.84457   0.00135   0.00438   0.00740   0.01177   1.85634
   A21        1.88256   0.00002  -0.00183   0.00246   0.00066   1.88322
   A22        1.94058   0.00219   0.00422   0.00698   0.01113   1.95171
   A23        1.94591  -0.00091  -0.00274   0.00529   0.00246   1.94837
   A24        1.84460   0.00135   0.00437   0.00740   0.01176   1.85635
   A25        1.92345  -0.00005   0.00039  -0.00821  -0.00785   1.91560
   A26        1.93667   0.00018  -0.00108   0.00411   0.00297   1.93964
   A27        1.92807  -0.00048   0.00103  -0.01040  -0.00939   1.91868
   A28        1.88254   0.00001  -0.00183   0.00247   0.00067   1.88321
   A29        1.92332   0.00047   0.00116   0.00304   0.00413   1.92745
   A30        1.92949   0.00051   0.00055   0.00115   0.00174   1.93123
   A31        1.90649  -0.00110   0.00034  -0.00872  -0.00840   1.89809
   A32        1.92503  -0.00085  -0.00034  -0.00675  -0.00705   1.91798
   A33        1.90102   0.00078  -0.00122   0.00964   0.00846   1.90948
   A34        1.87762   0.00017  -0.00058   0.00170   0.00112   1.87874
    D1        3.12217  -0.00046  -0.00318  -0.00561  -0.00868   3.11349
    D2       -1.06806  -0.00026   0.00304  -0.00861  -0.00564  -1.07371
    D3        1.02704  -0.00036  -0.00008  -0.00708  -0.00715   1.01989
    D4        1.06811   0.00026  -0.00303   0.00859   0.00563   1.07375
    D5       -3.12212   0.00046   0.00319   0.00559   0.00867  -3.11345
    D6       -1.02702   0.00036   0.00007   0.00711   0.00716  -1.01985
    D7        3.03478   0.00054   0.00576  -0.01583  -0.01011   3.02467
    D8       -1.11591   0.00013   0.00650  -0.02149  -0.01502  -1.13093
    D9        0.94694  -0.00003   0.00633  -0.02408  -0.01775   0.92919
   D10        0.92753   0.00031  -0.00132  -0.00797  -0.00929   0.91824
   D11        3.06003  -0.00009  -0.00057  -0.01363  -0.01420   3.04583
   D12       -1.16031  -0.00026  -0.00075  -0.01621  -0.01693  -1.17723
   D13       -1.08350  -0.00018  -0.00204  -0.01705  -0.01911  -1.10261
   D14        1.04899  -0.00058  -0.00130  -0.02271  -0.02401   1.02498
   D15        3.11184  -0.00075  -0.00147  -0.02529  -0.02674   3.08510
   D16       -3.03475  -0.00054  -0.00576   0.01581   0.01009  -3.02466
   D17        1.11591  -0.00013  -0.00651   0.02151   0.01503   1.13094
   D18       -0.94694   0.00003  -0.00634   0.02409   0.01776  -0.92919
   D19       -0.92750  -0.00031   0.00132   0.00795   0.00927  -0.91824
   D20       -3.06003   0.00010   0.00057   0.01364   0.01420  -3.04583
   D21        1.16030   0.00026   0.00074   0.01622   0.01693   1.17724
   D22        1.08354   0.00018   0.00205   0.01701   0.01907   1.10261
   D23       -1.04898   0.00058   0.00130   0.02270   0.02400  -1.02498
   D24       -3.11183   0.00075   0.00147   0.02528   0.02673  -3.08510
   D25       -1.00286   0.00112   0.00266   0.01184   0.01453  -0.98833
   D26        1.14216   0.00009   0.00196  -0.00235  -0.00037   1.14179
   D27       -3.05393  -0.00009  -0.00035  -0.00342  -0.00377  -3.05770
   D28       -3.13800   0.00073   0.00141   0.01285   0.01428  -3.12372
   D29       -0.99298  -0.00030   0.00071  -0.00134  -0.00062  -0.99360
   D30        1.09412  -0.00049  -0.00161  -0.00241  -0.00402   1.09010
   D31        1.08828   0.00055   0.00302   0.00896   0.01200   1.10028
   D32       -3.04989  -0.00048   0.00232  -0.00523  -0.00290  -3.05279
   D33       -0.96279  -0.00066   0.00000  -0.00631  -0.00630  -0.96909
   D34        1.06431  -0.00090   0.00058  -0.01480  -0.01427   1.05004
   D35       -1.08337   0.00038   0.00089   0.00065   0.00152  -1.08186
   D36       -3.11293  -0.00036   0.00037  -0.00224  -0.00179  -3.11472
   D37       -1.06431   0.00090  -0.00058   0.01479   0.01426  -1.05005
   D38        3.11294   0.00036  -0.00037   0.00223   0.00178   3.11472
   D39        1.08338  -0.00037  -0.00088  -0.00067  -0.00153   1.08185
   D40        1.00283  -0.00112  -0.00266  -0.01181  -0.01449   0.98834
   D41        3.13799  -0.00073  -0.00141  -0.01285  -0.01427   3.12372
   D42       -1.08830  -0.00055  -0.00301  -0.00894  -0.01198  -1.10027
   D43        3.05393   0.00009   0.00035   0.00345   0.00379   3.05772
   D44       -1.09410   0.00048   0.00160   0.00241   0.00402  -1.09008
   D45        0.96281   0.00066  -0.00001   0.00632   0.00630   0.96911
   D46       -1.14222  -0.00009  -0.00197   0.00241   0.00043  -1.14179
   D47        0.99294   0.00031  -0.00071   0.00138   0.00066   0.99359
   D48        3.04984   0.00048  -0.00232   0.00528   0.00294   3.05278
         Item               Value     Threshold  Converged?
 Maximum Force            0.002570     0.000450     NO 
 RMS     Force            0.000786     0.000300     NO 
 Maximum Displacement     0.027173     0.001800     NO 
 RMS     Displacement     0.008345     0.001200     NO 
 Predicted change in Energy=-2.031638D-04
 GradGradGradGradGradGradGradGradGradGradGradGradGradGradGradGradGradGrad

                          Input orientation:                          
 ---------------------------------------------------------------------
 Center     Atomic      Atomic             Coordinates (Angstroms)
 Number     Number       Type             X           Y           Z
 ---------------------------------------------------------------------
      1          7           0        1.999229    0.297272    0.903280
      2          6           0        0.597520    0.426761    0.504752
      3          6           0        0.495860    0.559755   -1.018223
      4          6           0       -0.968322    0.528961   -1.460540
      5          8           0       -1.624296   -0.651713   -1.018871
      6          6           0       -1.615976   -0.762223    0.397833
      7          6           0       -0.190614   -0.808834    0.951554
      8          1           0        2.066752    0.235809    1.916980
      9          1           0        2.515517    1.130526    0.629293
     10          1           0        0.097202    1.313224    0.946297
     11          1           0        0.969482    1.490589   -1.358254
     12          1           0        1.033759   -0.275068   -1.481438
     13          1           0       -1.497520    1.417310   -1.072768
     14          1           0       -1.051084    0.537780   -2.551113
     15          1           0       -2.162715   -1.678402    0.638617
     16          1           0       -2.164726    0.087136    0.841739
     17          1           0       -0.217454   -0.875733    2.047545
     18          1           0        0.316589   -1.704851    0.576418
 ---------------------------------------------------------------------
                    Distance matrix (angstroms):
                    1          2          3          4          5
     1  N    0.000000
     2  C    1.463004   0.000000
     3  C    2.453811   1.532147   0.000000
     4  C    3.801011   2.514891   1.529844   0.000000
     5  O    4.210126   2.901895   2.441867   1.421043   0.000000
     6  C    3.801014   2.514891   2.865779   2.353755   1.421032
     7  C    2.453816   1.532149   2.494855   2.865784   2.441864
     8  H    1.017805   2.046826   3.344856   4.550303   4.799036
     9  H    1.017809   2.046829   2.668165   4.106874   4.799049
    10  H    2.156783   1.109548   2.141491   2.746502   3.269009
    11  H    2.756614   2.177355   1.098358   2.165704   3.381171
    12  H    2.635637   2.151236   1.095825   2.157598   2.724167
    13  H    4.169712   2.803381   2.170700   1.104346   2.073604
    14  H    4.614660   3.473979   2.177905   1.093745   2.022680
    15  H    4.614662   3.473978   3.849998   3.271924   2.022684
    16  H    4.169708   2.803374   3.280479   2.631935   2.073603
    17  H    2.756622   2.177357   3.459534   3.852742   3.381167
    18  H    2.635642   2.151239   2.775511   3.284831   2.724166
                    6          7          8          9         10
     6  C    0.000000
     7  C    1.529848   0.000000
     8  H    4.106868   2.668151   0.000000
     9  H    4.550308   3.344864   1.630965   0.000000
    10  H    2.746502   2.141494   2.445848   2.445836   0.000000
    11  H    3.852739   3.459535   3.675001   2.543661   2.470482
    12  H    3.284825   2.775508   3.588498   2.937088   3.048558
    13  H    2.631931   3.280487   4.799851   4.368492   2.574995
    14  H    3.271910   3.849994   5.456734   4.815286   3.761882
    15  H    1.093748   2.177903   4.815268   5.456741   3.761877
    16  H    1.104350   2.170700   4.368485   4.799841   2.574985
    17  H    2.165709   1.098359   2.543653   3.675002   2.470483
    18  H    2.157602   1.095823   2.937063   3.588516   3.048560
                   11         12         13         14         15
    11  H    0.000000
    12  H    1.771116   0.000000
    13  H    2.484546   3.072219   0.000000
    14  H    2.532478   2.480222   1.777184   0.000000
    15  H    4.882689   4.084291   3.599271   4.039996   0.000000
    16  H    4.078346   3.969717   2.424843   3.599267   1.777184
    17  H    4.313671   3.792104   4.078353   4.882685   2.532468
    18  H    3.792106   2.606413   3.969722   4.084285   2.480225
                   16         17         18
    16  H    0.000000
    17  H    2.484542   0.000000
    18  H    3.072220   1.771116   0.000000
 Stoichiometry    C5H11NO
 Framework group  C1[X(C5H11NO)]
 Deg. of freedom    48
 Full point group                 C1      NOp   1
 Largest Abelian subgroup         C1      NOp   1
 Largest concise Abelian subgroup C1      NOp   1
                         Standard orientation:                         
 ---------------------------------------------------------------------
 Center     Atomic      Atomic             Coordinates (Angstroms)
 Number     Number       Type             X           Y           Z
 ---------------------------------------------------------------------
      1          7           0        2.392889    0.000001   -0.165736
      2          6           0        1.013686   -0.000001    0.322299
      3          6           0        0.279859    1.247426   -0.180590
      4          6           0       -1.204472    1.176882    0.183014
      5          8           0       -1.814049   -0.000002   -0.329553
      6          6           0       -1.204478   -1.176873    0.183017
      7          6           0        0.279856   -1.247429   -0.180591
      8          1           0        2.886451   -0.815489    0.191053
      9          1           0        2.886462    0.815476    0.191086
     10          1           0        0.941345   -0.000000    1.429486
     11          1           0        0.725871    2.156834    0.244193
     12          1           0        0.385620    1.303203   -1.269872
     13          1           0       -1.325440    1.212426    1.280140
     14          1           0       -1.755445    2.019994   -0.243445
     15          1           0       -1.755444   -2.020001   -0.243429
     16          1           0       -1.325435   -1.212417    1.280147
     17          1           0        0.725865   -2.156837    0.244197
     18          1           0        0.385617   -1.303209   -1.269871
 ---------------------------------------------------------------------
 Rotational constants (GHZ):           4.6043607           2.2519349           1.6489333
 Standard basis: 6-31G(d,p) (6D, 7F)
 There are   160 symmetry adapted cartesian basis functions of A   symmetry.
 There are   160 symmetry adapted basis functions of A   symmetry.
   160 basis functions,   273 primitive gaussians,   160 cartesian basis functions
    28 alpha electrons       28 beta electrons
       nuclear repulsion energy       334.5451872150 Hartrees.
 NAtoms=   18 NActive=   18 NUniq=   18 SFac= 1.00D+00 NAtFMM=   60 NAOKFM=F Big=F
 Integral buffers will be    131072 words long.
 Raffenetti 2 integral format.
 Two-electron integral symmetry is turned on.
 Nuclear repulsion after empirical dispersion term =      334.5191240292 Hartrees.
 One-electron integrals computed using PRISM.
 NBasis=   160 RedAO= T EigKep=  3.19D-03  NBF=   160
 NBsUse=   160 1.00D-06 EigRej= -1.00D+00 NBFU=   160
 Initial guess from the checkpoint file:  "N5_conf-2.chk"
 B after Tr=     0.000000   -0.000000    0.000000
         Rot=    1.000000   -0.000000    0.000079   -0.000000 Ang=  -0.01 deg.
 ExpMin= 1.61D-01 ExpMax= 5.48D+03 ExpMxC= 8.25D+02 IAcc=3 IRadAn=         5 AccDes= 0.00D+00
 Harris functional with IExCor=  402 and IRadAn=       5 diagonalized for initial guess.
 HarFok:  IExCor=  402 AccDes= 0.00D+00 IRadAn=         5 IDoV= 1 UseB2=F ITyADJ=14
 ICtDFT=  3500011 ScaDFX=  1.000000  1.000000  1.000000  1.000000
 FoFCou: FMM=F IPFlag=           0 FMFlag=      100000 FMFlg1=           0
         NFxFlg=           0 DoJE=T BraDBF=F KetDBF=T FulRan=T
         wScrn=  0.000000 ICntrl=       500 IOpCl=  0 I1Cent=   200000004 NGrid=           0
         NMat0=    1 NMatS0=      1 NMatT0=    0 NMatD0=    1 NMtDS0=    0 NMtDT0=    0
 Petite list used in FoFCou.
 Requested convergence on RMS density matrix=1.00D-08 within 128 cycles.
 Requested convergence on MAX density matrix=1.00D-06.
 Requested convergence on             energy=1.00D-06.
 No special actions if energy rises.
 Integral accuracy reduced to 1.0D-05 until final iterations.
 Initial convergence to 1.0D-05 achieved.  Increase integral accuracy.
 SCF Done:  E(RB3LYP) =  -327.158805119     A.U. after   10 cycles
            NFock= 10  Conv=0.35D-08     -V/T= 2.0094
 Calling FoFJK, ICntrl=      2127 FMM=F ISym2X=0 I1Cent= 0 IOpClX= 0 NMat=1 NMatS=1 NMatT=0.
 ***** Axes restored to original set *****
 -------------------------------------------------------------------
 Center     Atomic                   Forces (Hartrees/Bohr)
 Number     Number              X              Y              Z
 -------------------------------------------------------------------
      1        7           0.000351571   -0.000556881   -0.000267686
      2        6          -0.000717200    0.000573531    0.000149116
      3        6          -0.000485664   -0.000355021   -0.000669400
      4        6           0.000329589    0.000282572    0.000437303
      5        8          -0.000248303   -0.000443989   -0.000399475
      6        6           0.000384757    0.000391251    0.000288748
      7        6          -0.000596863   -0.000571198   -0.000353273
      8        1          -0.000041091    0.000336481    0.000143681
      9        1          -0.000075814    0.000267774    0.000239000
     10        1           0.000885983   -0.000453409   -0.000005832
     11        1          -0.000229652   -0.000147429    0.000113274
     12        1           0.000276942    0.000124501    0.000410524
     13        1           0.000039463    0.000132489   -0.000164403
     14        1          -0.000143655   -0.000168666    0.000328221
     15        1           0.000071954    0.000261726   -0.000291400
     16        1          -0.000077195   -0.000102793    0.000171290
     17        1          -0.000101216    0.000108598   -0.000255981
     18        1           0.000376394    0.000320464    0.000126293
 -------------------------------------------------------------------
 Cartesian Forces:  Max     0.000885983 RMS     0.000347873

 GradGradGradGradGradGradGradGradGradGradGradGradGradGradGradGradGradGrad
 Berny optimization.
 Using GEDIIS/GDIIS optimizer.
 FormGI is forming the generalized inverse of G from B-inverse, IUseBI=4.
 Internal  Forces:  Max     0.000764107 RMS     0.000186377
 Search for a local minimum.
 Step number   3 out of a maximum of  108
 All quantities printed in internal units (Hartrees-Bohrs-Radians)
 Mixed Optimization -- En-DIIS/RFO-DIIS
 Swapping is turned off.
 Update second derivatives using D2CorX and points    1    2    3
 DE= -2.13D-04 DEPred=-2.03D-04 R= 1.05D+00
 TightC=F SS=  1.41D+00  RLast= 9.69D-02 DXNew= 8.4853D-01 2.9059D-01
 Trust test= 1.05D+00 RLast= 9.69D-02 DXMaxT set to 5.05D-01
 ITU=  1  1  0
     Eigenvalues ---    0.00535   0.00550   0.01145   0.01255   0.02551
     Eigenvalues ---    0.03081   0.03863   0.04457   0.04563   0.04917
     Eigenvalues ---    0.05061   0.05426   0.05623   0.05935   0.06037
     Eigenvalues ---    0.06506   0.07763   0.07883   0.08124   0.08946
     Eigenvalues ---    0.10842   0.11716   0.11919   0.12441   0.14052
     Eigenvalues ---    0.15982   0.16000   0.17061   0.17619   0.22121
     Eigenvalues ---    0.27303   0.27901   0.28543   0.29059   0.34191
     Eigenvalues ---    0.34600   0.34630   0.34692   0.34711   0.34734
     Eigenvalues ---    0.34844   0.34868   0.35084   0.38814   0.40202
     Eigenvalues ---    0.41866   0.45670   0.46031
 En-DIIS/RFO-DIIS/Sim-DIIS IScMMF=       -3 using points:     3    2
 RFO step:  Lambda=-3.85579952D-05.
 DidBck=F Rises=F RFO-DIIS coefs:    1.29163   -0.29163
 Iteration  1 RMS(Cart)=  0.00292366 RMS(Int)=  0.00001268
 Iteration  2 RMS(Cart)=  0.00000966 RMS(Int)=  0.00000846
 Iteration  3 RMS(Cart)=  0.00000000 RMS(Int)=  0.00000846
 Variable       Old X    -DE/DX   Delta X   Delta X   Delta X     New X
                                 (Linear)    (Quad)   (Total)
    R1        2.76468   0.00025   0.00063   0.00059   0.00122   2.76589
    R2        1.92337   0.00012   0.00065  -0.00004   0.00061   1.92398
    R3        1.92338   0.00012   0.00065  -0.00005   0.00060   1.92398
    R4        2.89534   0.00001   0.00204  -0.00127   0.00077   2.89611
    R5        2.89534   0.00001   0.00203  -0.00127   0.00077   2.89611
    R6        2.09674  -0.00076   0.00005  -0.00215  -0.00210   2.09464
    R7        2.89099  -0.00023  -0.00130  -0.00013  -0.00144   2.88955
    R8        2.07560  -0.00026   0.00026  -0.00084  -0.00058   2.07501
    R9        2.07081  -0.00013  -0.00014  -0.00024  -0.00038   2.07043
   R10        2.68538  -0.00010   0.00155  -0.00146   0.00010   2.68548
   R11        2.08691   0.00003   0.00085  -0.00030   0.00055   2.08746
   R12        2.06688  -0.00032   0.00046  -0.00125  -0.00079   2.06608
   R13        2.68536  -0.00010   0.00156  -0.00145   0.00011   2.68548
   R14        2.89099  -0.00023  -0.00130  -0.00014  -0.00144   2.88955
   R15        2.06688  -0.00032   0.00046  -0.00125  -0.00080   2.06609
   R16        2.08692   0.00003   0.00085  -0.00030   0.00055   2.08747
   R17        2.07560  -0.00026   0.00026  -0.00085  -0.00058   2.07501
   R18        2.07081  -0.00013  -0.00015  -0.00023  -0.00038   2.07042
    A1        1.91794  -0.00019  -0.00142  -0.00197  -0.00341   1.91453
    A2        1.91794  -0.00019  -0.00142  -0.00197  -0.00341   1.91453
    A3        1.85865  -0.00010  -0.00203  -0.00261  -0.00468   1.85397
    A4        1.91987   0.00017  -0.00057   0.00051  -0.00006   1.91981
    A5        1.91987   0.00017  -0.00057   0.00050  -0.00006   1.91981
    A6        1.97614  -0.00035  -0.00253  -0.00258  -0.00510   1.97104
    A7        1.90259  -0.00033   0.00130  -0.00274  -0.00145   1.90114
    A8        1.87161   0.00016   0.00130   0.00215   0.00344   1.87505
    A9        1.87161   0.00016   0.00130   0.00214   0.00343   1.87505
   A10        1.92746   0.00010   0.00120   0.00009   0.00129   1.92875
   A11        1.93123  -0.00003   0.00051  -0.00129  -0.00078   1.93045
   A12        1.89809  -0.00029  -0.00245  -0.00156  -0.00402   1.89407
   A13        1.91798  -0.00013  -0.00205  -0.00023  -0.00227   1.91571
   A14        1.90948   0.00032   0.00246   0.00296   0.00544   1.91491
   A15        1.87874   0.00003   0.00033   0.00007   0.00039   1.87913
   A16        1.94837   0.00007   0.00072   0.00070   0.00140   1.94977
   A17        1.91869  -0.00007  -0.00275   0.00225  -0.00050   1.91819
   A18        1.93965   0.00018   0.00086  -0.00016   0.00069   1.94034
   A19        1.91560   0.00020  -0.00228   0.00378   0.00149   1.91709
   A20        1.85634  -0.00032   0.00343  -0.00597  -0.00255   1.85379
   A21        1.88322  -0.00006   0.00019  -0.00082  -0.00062   1.88260
   A22        1.95171  -0.00016   0.00325  -0.00463  -0.00140   1.95031
   A23        1.94837   0.00007   0.00072   0.00070   0.00140   1.94977
   A24        1.85635  -0.00032   0.00343  -0.00599  -0.00256   1.85379
   A25        1.91560   0.00020  -0.00229   0.00378   0.00149   1.91709
   A26        1.93964   0.00018   0.00087  -0.00016   0.00070   1.94034
   A27        1.91868  -0.00007  -0.00274   0.00225  -0.00049   1.91818
   A28        1.88321  -0.00006   0.00020  -0.00082  -0.00062   1.88260
   A29        1.92745   0.00010   0.00121   0.00009   0.00129   1.92875
   A30        1.93123  -0.00003   0.00051  -0.00129  -0.00078   1.93045
   A31        1.89809  -0.00029  -0.00245  -0.00156  -0.00402   1.89407
   A32        1.91798  -0.00013  -0.00206  -0.00023  -0.00228   1.91571
   A33        1.90948   0.00032   0.00247   0.00296   0.00544   1.91492
[...]
      3 vectors produced by pass  5 Test12= 2.38D-13 3.33D-08 XBig12= 1.10D-10 1.67D-06.
      3 vectors produced by pass  6 Test12= 2.38D-13 3.33D-08 XBig12= 7.40D-13 1.90D-07.
 InvSVY:  IOpt=1 It=  1 EMax= 1.78D-15
 Solved reduced A of dimension    21 with     3 vectors.
 Calculating GIAO nuclear magnetic shielding tensors.
 SCF GIAO Magnetic shielding tensor (ppm):
      1  N    Isotropic =   208.5234   Anisotropy =    51.7155
   XX=   241.0611   YX=     0.0005   ZX=    -4.6626
   XY=     0.0008   YY=   213.5159   ZY=     0.0002
   XZ=   -18.9711   YZ=     0.0005   ZZ=   170.9931
   Eigenvalues:   169.0538   213.5159   243.0003
      2  C    Isotropic =   132.6964   Anisotropy =    36.6465
   XX=   144.7580   YX=     0.0000   ZX=   -10.0394
   XY=     0.0000   YY=   115.7604   ZY=    -0.0002
   XZ=   -21.0671   YZ=    -0.0002   ZZ=   137.5708
   Eigenvalues:   115.7604   125.2014   157.1274
      3  C    Isotropic =   147.1669   Anisotropy =    16.9937
   XX=   151.2429   YX=    -4.2251   ZX=    -6.6270
   XY=   -15.2714   YY=   144.1060   ZY=    -4.6877
   XZ=     2.4256   YZ=     6.8175   ZZ=   146.1517
   Eigenvalues:   137.2809   145.7237   158.4960
      4  C    Isotropic =   115.7485   Anisotropy =    68.0475
   XX=   103.0121   YX=    26.3036   ZX=     4.2211
   XY=    21.4908   YY=   141.3388   ZY=    25.3441
   XZ=     6.7674   YZ=    18.0472   ZZ=   102.8947
   Eigenvalues:    88.6357    97.4963   161.1135
      5  O    Isotropic =   285.6282   Anisotropy =    70.9247
   XX=   287.2285   YX=     0.0007   ZX=     0.5935
   XY=     0.0008   YY=   237.0899   ZY=     0.0006
   XZ=     7.3481   YZ=     0.0006   ZZ=   332.5661
   Eigenvalues:   237.0899   286.8833   332.9113
      6  C    Isotropic =   115.7487   Anisotropy =    68.0470
   XX=   103.0125   YX=   -26.3036   ZX=     4.2212
   XY=   -21.4908   YY=   141.3386   ZY=   -25.3440
   XZ=     6.7674   YZ=   -18.0470   ZZ=   102.8950
   Eigenvalues:    88.6360    97.4967   161.1133
      7  C    Isotropic =   147.1670   Anisotropy =    16.9933
   XX=   151.2431   YX=     4.2247   ZX=    -6.6270
   XY=    15.2710   YY=   144.1063   ZY=     4.6876
   XZ=     2.4259   YZ=    -6.8176   ZZ=   146.1515
   Eigenvalues:   137.2816   145.7235   158.4958
      8  H    Isotropic =    31.3845   Anisotropy =    13.5016
   XX=    35.4418   YX=    -6.4754   ZX=     2.0735
   XY=    -4.1144   YY=    33.3383   ZY=    -2.9704
   XZ=     1.5732   YZ=    -2.0086   ZZ=    25.3733
   Eigenvalues:    24.6477    29.1201    40.3856
      9  H    Isotropic =    31.3844   Anisotropy =    13.5017
   XX=    35.4418   YX=     6.4754   ZX=     2.0737
   XY=     4.1144   YY=    33.3381   ZY=     2.9707
   XZ=     1.5733   YZ=     2.0088   ZZ=    25.3734
   Eigenvalues:    24.6477    29.1200    40.3856
     10  H    Isotropic =    29.0406   Anisotropy =     6.0656
   XX=    29.5318   YX=     0.0000   ZX=    -0.4512
   XY=    -0.0000   YY=    24.5086   ZY=    -0.0000
   XZ=     0.2444   YZ=     0.0000   ZZ=    33.0813
   Eigenvalues:    24.5086    29.5288    33.0843
     11  H    Isotropic =    30.5825   Anisotropy =     7.7079
   XX=    29.8856   YX=     1.4354   ZX=     0.8528
   XY=     2.3627   YY=    34.4996   ZY=     1.5622
   XZ=     0.8738   YZ=     2.3334   ZZ=    27.3622
   Eigenvalues:    26.8126    29.2138    35.7211
     12  H    Isotropic =    30.5110   Anisotropy =     6.6938
   XX=    29.2205   YX=    -0.4058   ZX=    -1.1328
   XY=     0.3661   YY=    29.2308   ZY=    -3.5001
   XZ=    -0.1927   YZ=    -2.9621   ZZ=    33.0818
   Eigenvalues:    27.3306    29.2288    34.9735
     13  H    Isotropic =    28.6902   Anisotropy =     7.7741
   XX=    28.5287   YX=    -0.3794   ZX=    -2.0453
   XY=     0.2203   YY=    27.9956   ZY=     5.6472
   XZ=    -2.7707   YZ=     3.0101   ZZ=    29.5462
   Eigenvalues:    23.8590    28.3386    33.8729
     14  H    Isotropic =    28.0199   Anisotropy =     7.9150
   XX=    28.4510   YX=    -1.5713   ZX=     0.6219
   XY=    -3.2149   YY=    32.0831   ZY=    -0.6815
   XZ=     0.9320   YZ=     0.3465   ZZ=    23.5255
   Eigenvalues:    23.4007    27.3624    33.2965
     15  H    Isotropic =    28.0199   Anisotropy =     7.9150
   XX=    28.4509   YX=     1.5713   ZX=     0.6219
   XY=     3.2149   YY=    32.0831   ZY=     0.6815
   XZ=     0.9320   YZ=    -0.3465   ZZ=    23.5255
   Eigenvalues:    23.4007    27.3624    33.2965
     16  H    Isotropic =    28.6901   Anisotropy =     7.7741
   XX=    28.5286   YX=     0.3794   ZX=    -2.0453
   XY=    -0.2203   YY=    27.9956   ZY=    -5.6472
   XZ=    -2.7707   YZ=    -3.0101   ZZ=    29.5462
   Eigenvalues:    23.8590    28.3386    33.8729
     17  H    Isotropic =    30.5825   Anisotropy =     7.7080
   XX=    29.8856   YX=    -1.4354   ZX=     0.8528
   XY=    -2.3627   YY=    34.4996   ZY=    -1.5623
   XZ=     0.8739   YZ=    -2.3334   ZZ=    27.3622
   Eigenvalues:    26.8126    29.2137    35.7211
     18  H    Isotropic =    30.5110   Anisotropy =     6.6938
   XX=    29.2205   YX=     0.4058   ZX=    -1.1329
   XY=    -0.3661   YY=    29.2308   ZY=     3.5001
   XZ=    -0.1927   YZ=     2.9621   ZZ=    33.0818
   Eigenvalues:    27.3307    29.2289    34.9736
 End of Minotr F.D. properties file   721 does not exist.
 End of Minotr F.D. properties file   722 does not exist.
 End of Minotr F.D. properties file   788 does not exist.

 **********************************************************************

            Population analysis using the SCF Density.

 **********************************************************************

 Orbital symmetries:
       Occupied  (A) (A) (A) (A) (A) (A) (A) (A) (A) (A) (A) (A)
                 (A) (A) (A) (A) (A) (A) (A) (A) (A) (A) (A) (A)
                 (A) (A) (A) (A)
       Virtual   (A) (A) (A) (A) (A) (A) (A) (A) (A) (A) (A) (A)
                 (A) (A) (A) (A) (A) (A) (A) (A) (A) (A) (A) (A)
                 (A) (A) (A) (A) (A) (A) (A) (A) (A) (A) (A) (A)
                 (A) (A) (A) (A) (A) (A) (A) (A) (A) (A) (A) (A)
                 (A) (A) (A) (A) (A) (A) (A) (A) (A) (A) (A) (A)
                 (A) (A) (A) (A) (A) (A) (A) (A) (A) (A) (A) (A)
                 (A) (A) (A) (A) (A) (A) (A) (A) (A) (A) (A) (A)
                 (A) (A) (A) (A) (A) (A) (A) (A) (A) (A) (A) (A)
                 (A) (A) (A) (A) (A) (A) (A) (A) (A) (A) (A) (A)
                 (A) (A) (A) (A) (A) (A) (A) (A) (A) (A) (A) (A)
                 (A) (A) (A) (A) (A) (A) (A) (A) (A) (A) (A) (A)
                 (A) (A) (A) (A) (A) (A) (A) (A) (A) (A) (A) (A)
                 (A) (A) (A) (A) (A) (A) (A) (A) (A) (A) (A) (A)
                 (A) (A) (A) (A) (A) (A) (A) (A) (A) (A) (A) (A)
                 (A) (A) (A) (A) (A) (A) (A) (A) (A) (A) (A) (A)
                 (A) (A) (A) (A) (A) (A) (A) (A) (A) (A) (A) (A)
                 (A) (A) (A) (A) (A) (A) (A) (A) (A) (A) (A) (A)
                 (A) (A) (A) (A) (A) (A) (A) (A) (A) (A) (A) (A)
                 (A) (A) (A) (A) (A) (A) (A) (A) (A) (A) (A) (A)
                 (A) (A) (A) (A) (A) (A) (A) (A) (A) (A) (A) (A)
                 (A) (A) (A) (A) (A) (A) (A) (A) (A) (A) (A) (A)
                 (A) (A) (A)
 The electronic state is 1-A.
 Alpha  occ. eigenvalues --  -19.62232 -14.72893 -10.57984 -10.57982 -10.56697
 Alpha  occ. eigenvalues --  -10.53007 -10.53006  -1.15340  -0.99702  -0.86860
 Alpha  occ. eigenvalues --   -0.85874  -0.72563  -0.71369  -0.64305  -0.56771
 Alpha  occ. eigenvalues --   -0.55595  -0.54026  -0.53925  -0.52455  -0.47235
 Alpha  occ. eigenvalues --   -0.46056  -0.44683  -0.41743  -0.41396  -0.37655
 Alpha  occ. eigenvalues --   -0.36826  -0.32710  -0.31143
 Alpha virt. eigenvalues --    0.05967   0.08153   0.09197   0.09824   0.12589
 Alpha virt. eigenvalues --    0.12699   0.13840   0.14701   0.15273   0.15983
 Alpha virt. eigenvalues --    0.16000   0.17505   0.18271   0.22565   0.23232
 Alpha virt. eigenvalues --    0.23545   0.24607   0.25831   0.27472   0.27528
 Alpha virt. eigenvalues --    0.30782   0.31371   0.34992   0.35249   0.35429
 Alpha virt. eigenvalues --    0.38848   0.39455   0.40242   0.40946   0.42274
 Alpha virt. eigenvalues --    0.42676   0.44106   0.44581   0.44869   0.46677
 Alpha virt. eigenvalues --    0.47898   0.48270   0.48542   0.48877   0.49789
 Alpha virt. eigenvalues --    0.51933   0.52722   0.54391   0.55050   0.56051
 Alpha virt. eigenvalues --    0.56224   0.59623   0.62970   0.63848   0.66141
 Alpha virt. eigenvalues --    0.70331   0.72973   0.73391   0.73640   0.78237
 Alpha virt. eigenvalues --    0.80084   0.80216   0.83461   0.85703   0.89481
 Alpha virt. eigenvalues --    0.89651   0.90899   0.93473   0.96159   0.97362
 Alpha virt. eigenvalues --    0.99497   1.00984   1.03461   1.07273   1.07758
 Alpha virt. eigenvalues --    1.10153   1.15897   1.18168   1.18493   1.19792
 Alpha virt. eigenvalues --    1.20809   1.23360   1.23528   1.27289   1.29909
 Alpha virt. eigenvalues --    1.33324   1.37910   1.40208   1.41865   1.43351
 Alpha virt. eigenvalues --    1.47557   1.51209   1.52414   1.56698   1.58651
 Alpha virt. eigenvalues --    1.60410   1.60992   1.64389   1.64739   1.65486
 Alpha virt. eigenvalues --    1.65876   1.70302   1.73484   1.73903   1.76050
 Alpha virt. eigenvalues --    1.76185   1.77823   1.82694   1.83590   1.86764
 Alpha virt. eigenvalues --    1.88313   1.90327   1.92453   1.93572   1.93665
 Alpha virt. eigenvalues --    1.98322   2.01433   2.01617   2.03097   2.04126
 Alpha virt. eigenvalues --    2.07007   2.09171   2.11401   2.14544   2.16760
 Alpha virt. eigenvalues --    2.17732   2.21327   2.23683   2.30503   2.31208
 Alpha virt. eigenvalues --    2.32564   2.35700   2.39385   2.39820   2.43585
 Alpha virt. eigenvalues --    2.45242   2.45959   2.47922   2.51027   2.52192
 Alpha virt. eigenvalues --    2.55336   2.56686   2.57156   2.58437   2.58982
 Alpha virt. eigenvalues --    2.60621   2.61833   2.63501   2.64580   2.65696
 Alpha virt. eigenvalues --    2.67161   2.68239   2.69235   2.69769   2.74739
 Alpha virt. eigenvalues --    2.75676   2.76376   2.79217   2.81892   2.86121
 Alpha virt. eigenvalues --    2.89219   2.92813   2.94414   2.95915   3.01566
 Alpha virt. eigenvalues --    3.03049   3.05449   3.07966   3.11047   3.14165
 Alpha virt. eigenvalues --    3.14766   3.16092   3.17068   3.18087   3.21089
 Alpha virt. eigenvalues --    3.22569   3.23993   3.25340   3.28997   3.29984
 Alpha virt. eigenvalues --    3.30927   3.34331   3.35502   3.38139   3.41326
 Alpha virt. eigenvalues --    3.42379   3.44138   3.45695   3.47318   3.51586
 Alpha virt. eigenvalues --    3.53465   3.53782   3.56706   3.59028   3.61747
 Alpha virt. eigenvalues --    3.63832   3.64017   3.66657   3.67924   3.73756
 Alpha virt. eigenvalues --    3.76014   3.80041   3.82908   3.94356   3.94581
 Alpha virt. eigenvalues --    3.95911   3.98536   4.02582   4.03501   4.04829
 Alpha virt. eigenvalues --    4.05574   4.11091   4.20630   4.21325   4.22988
 Alpha virt. eigenvalues --    4.28070   4.29521   4.33335   4.38439   4.42525
 Alpha virt. eigenvalues --    4.44046   4.50746   4.52775   4.59926   4.62023
 Alpha virt. eigenvalues --    4.65711   4.70727   4.77743   4.79806   4.81055
 Alpha virt. eigenvalues --    4.84349   4.87016   4.88018   4.93164   5.00052
 Alpha virt. eigenvalues --    5.12476   5.19239   5.25959   5.30586   5.39401
 Alpha virt. eigenvalues --    5.44890   5.56612   5.75946   5.76375   5.85130
 Alpha virt. eigenvalues --    5.85910   6.14977   6.15725   6.71348   6.75272
 Alpha virt. eigenvalues --    6.89277   7.19248   7.22921  22.48347  22.56286
 Alpha virt. eigenvalues --   22.59381  22.68640  22.69874  32.12470  44.26626
          Condensed to atoms (all electrons):
               1          2          3          4          5          6
     1  N    6.736486   0.218355  -0.050311   0.010572  -0.000548   0.010572
     2  C    0.218355   5.263751   0.201170  -0.031137  -0.014047  -0.031139
     3  C   -0.050311   0.201170   5.344652   0.222112  -0.038677  -0.019592
     4  C    0.010572  -0.031137   0.222112   4.946784   0.247277  -0.064359
     5  O   -0.000548  -0.014047  -0.038677   0.247277   8.055261   0.247277
     6  C    0.010572  -0.031139  -0.019592  -0.064359   0.247277   4.946780
     7  C   -0.050308   0.201173   0.023867  -0.019593  -0.038677   0.222117
     8  H    0.358703  -0.036242   0.013398  -0.001716   0.000071   0.000822
     9  H    0.358702  -0.036242  -0.013438   0.000821   0.000071  -0.001716
    10  H   -0.045645   0.481837  -0.089661   0.012328  -0.001546   0.012327
    11  H   -0.003532  -0.057711   0.417378  -0.033606   0.005420   0.000405
    12  H    0.007864  -0.042527   0.405353  -0.025769   0.000818   0.002729
    13  H    0.000319  -0.017667  -0.082536   0.452407  -0.046849  -0.008651
    14  H   -0.000392   0.011655  -0.047442   0.418677  -0.033920   0.007916
    15  H   -0.000392   0.011655  -0.001896   0.007916  -0.033920   0.418677
    16  H    0.000319  -0.017667  -0.001172  -0.008651  -0.046849   0.452407
    17  H   -0.003532  -0.057712   0.009766   0.000405   0.005420  -0.033606
    18  H    0.007864  -0.042528  -0.011284   0.002729   0.000818  -0.025769
               7          8          9         10         11         12
     1  N   -0.050308   0.358703   0.358702  -0.045645  -0.003532   0.007864
     2  C    0.201173  -0.036242  -0.036242   0.481837  -0.057711  -0.042527
     3  C    0.023867   0.013398  -0.013438  -0.089661   0.417378   0.405353
     4  C   -0.019593  -0.001716   0.000821   0.012328  -0.033606  -0.025769
     5  O   -0.038677   0.000071   0.000071  -0.001546   0.005420   0.000818
     6  C    0.222117   0.000822  -0.001716   0.012327   0.000405   0.002729
     7  C    5.344642  -0.013439   0.013398  -0.089657   0.009766  -0.011283
     8  H   -0.013439   0.485991  -0.033233  -0.005741  -0.000167  -0.000328
     9  H    0.013398  -0.033233   0.485991  -0.005741   0.005356  -0.000763
    10  H   -0.089657  -0.005741  -0.005741   0.597773  -0.007688   0.008989
    11  H    0.009766  -0.000167   0.005356  -0.007688   0.549352  -0.020308
    12  H   -0.011283  -0.000328  -0.000763   0.008989  -0.020308   0.513220
    13  H   -0.001172   0.000046   0.000043   0.002172   0.004747   0.007109
    14  H   -0.001896   0.000035  -0.000028  -0.000701  -0.003443  -0.006798
    15  H   -0.047443  -0.000028   0.000035  -0.000701   0.000152  -0.000238
    16  H   -0.082537   0.000043   0.000046   0.002172   0.000406   0.000383
    17  H    0.417378   0.005356  -0.000167  -0.007689  -0.000100  -0.000125
    18  H    0.405355  -0.000763  -0.000328   0.008989  -0.000125   0.004026
              13         14         15         16         17         18
     1  N    0.000319  -0.000392  -0.000392   0.000319  -0.003532   0.007864
     2  C   -0.017667   0.011655   0.011655  -0.017667  -0.057712  -0.042528
     3  C   -0.082536  -0.047442  -0.001896  -0.001172   0.009766  -0.011284
     4  C    0.452407   0.418677   0.007916  -0.008651   0.000405   0.002729
     5  O   -0.046849  -0.033920  -0.033920  -0.046849   0.005420   0.000818
     6  C   -0.008651   0.007916   0.418677   0.452407  -0.033606  -0.025769
     7  C   -0.001172  -0.001896  -0.047443  -0.082537   0.417378   0.405355
     8  H    0.000046   0.000035  -0.000028   0.000043   0.005356  -0.000763
     9  H    0.000043  -0.000028   0.000035   0.000046  -0.000167  -0.000328
    10  H    0.002172  -0.000701  -0.000701   0.002172  -0.007689   0.008989
    11  H    0.004747  -0.003443   0.000152   0.000406  -0.000100  -0.000125
    12  H    0.007109  -0.006798  -0.000238   0.000383  -0.000125   0.004026
    13  H    0.574147  -0.027437  -0.000090   0.010828   0.000406   0.000383
    14  H   -0.027437   0.546027  -0.000267  -0.000090   0.000152  -0.000238
    15  H   -0.000090  -0.000267   0.546028  -0.027438  -0.003442  -0.006798
    16  H    0.010828  -0.000090  -0.027438   0.574148   0.004747   0.007109
    17  H    0.000406   0.000152  -0.003442   0.004747   0.549352  -0.020309
    18  H    0.000383  -0.000238  -0.006798   0.007109  -0.020309   0.513220
 Mulliken charges:
               1
     1  N   -0.555097
     2  C   -0.004977
     3  C   -0.281687
     4  C   -0.137195
     5  O   -0.307399
     6  C   -0.137195
     7  C   -0.281690
     8  H    0.227192
     9  H    0.227193
    10  H    0.128185
    11  H    0.133700
    12  H    0.157647
    13  H    0.131796
    14  H    0.138193
    15  H    0.138192
    16  H    0.131795
    17  H    0.133700
    18  H    0.157647
 Sum of Mulliken charges =  -0.00000
 Mulliken charges with hydrogens summed into heavy atoms:
               1
     1  N   -0.100712
     2  C    0.123208
     3  C    0.009660
     4  C    0.132793
     5  O   -0.307399
     6  C    0.132793
     7  C    0.009657
 Electronic spatial extent (au):  <R**2>=            781.9300
 Charge=              0.0000 electrons
 Dipole moment (field-independent basis, Debye):
    X=              1.3410    Y=             -0.0000    Z=              2.0127  Tot=              2.4185
 Quadrupole moment (field-independent basis, Debye-Ang):
   XX=            -46.8019   YY=            -39.9996   ZZ=            -46.0265
   XY=             -0.0001   XZ=              2.3550   YZ=              0.0000
 Traceless Quadrupole moment (field-independent basis, Debye-Ang):
   XX=             -2.5259   YY=              4.2764   ZZ=             -1.7505
   XY=             -0.0001   XZ=              2.3550   YZ=              0.0000
 Octapole moment (field-independent basis, Debye-Ang**2):
  XXX=             17.0732  YYY=              0.0000  ZZZ=             -0.1618  XYY=             -1.1158
  XXY=             -0.0001  XXZ=             12.5039  XZZ=             -3.8823  YZZ=              0.0000
  YYZ=             -0.4910  XYZ=              0.0001
 Hexadecapole moment (field-independent basis, Debye-Ang**3):
 XXXX=           -573.6038 YYYY=           -330.0271 ZZZZ=           -100.5428 XXXY=             -0.0004
 XXXZ=             27.4505 YYYX=             -0.0001 YYYZ=              0.0000 ZZZX=              4.2473
 ZZZY=              0.0001 XXYY=           -132.9262 XXZZ=           -126.6817 YYZZ=            -73.3345
 XXYZ=              0.0003 YYXZ=              6.5632 ZZXY=             -0.0000
 N-N= 3.345282993117D+02 E-N=-1.431207817933D+03  KE= 3.253560086603D+02
 Unable to Open any file for archive entry.
 1\1\GINC-NOTCH275\SP\RM062X\def2TZVP\C5H11N1O1\U6032257\21-Feb-2022\0\
 \# M062X/def2tzvp int=(grid=ultrafine) nmr=giao guess=read geom=check\
 \N5.xyz\\0,1\N,0,2.0007120055,0.2937523072,0.9013542664\C,0,0.59807788
 76,0.426579483,0.5048201933\C,0,0.4944244213,0.5596093107,-1.018428242
 8\C,0,-0.9690030781,0.5283141498,-1.4605778515\O,0,-1.6262852661,-0.65
 2020249,-1.0197795416\C,0,-1.6163730387,-0.7623095806,0.3969919998\C,0
 ,-0.1918770271,-0.8086317796,0.9508560355\H,0,2.0665383453,0.236234928
 8,1.9157221584\H,0,2.5146605122,1.1296600668,0.6298745526\H,0,0.105617
 1695,1.3142603102,0.9499480594\H,0,0.9649611197,1.4918641956,-1.357850
 8762\H,0,1.0373955171,-0.2735061365,-1.4783087243\H,0,-1.497578403,1.4
 181929987,-1.0746366145\H,0,-1.0524033964,0.5352074571,-2.5506954626\H
 ,0,-2.1628730831,-1.6786703611,0.6357005854\H,0,-2.1658586953,0.085879
 6798,0.842939873\H,0,-0.2214998504,-0.8735048979,2.0465878542\H,0,0.32
 05648601,-1.702611883,0.5785817355\\Version=ES64L-G16RevC.01\State=1-A
 \HF=-327.0981871\RMSD=1.752e-09\Dipole=0.1505276,0.7461786,0.5709018\Q
 uadrupole=-2.6158022,0.5764826,2.0393195,1.6938204,-0.8427322,-1.21819
 82\PG=C01 [X(C5H11N1O1)]\\@
 The archive entry for this job was punched.


 IN THE FIGHT BETWEEN YOU AND THE WORLD, BACK THE WORLD

                                        -- FRANZ KAFKA
 Job cpu time:       0 days  0 hours 11 minutes 58.3 seconds.
 Elapsed time:       0 days  0 hours  0 minutes 16.7 seconds.
 File lengths (MBytes):  RWF=     50 Int=      0 D2E=      0 Chk=      9 Scr=      1
 Normal termination of Gaussian 16 at Mon Feb 21 19:54:26 2022.
