 Entering Gaussian System, Link 0=/uufs/chpc.utah.edu/sys/installdir/gaussian16/C01/AVX2/g16/g16
 Input=N5_conf-4-1.com
 Output=N5_conf-4-1.log
 Initial command:
 /uufs/chpc.utah.edu/sys/installdir/gaussian16/C01/AVX2/g16/l1.exe "/scratch/general/lustre/u6032257/4361799/notchpeak.peaks/Gau-28567.inp" -scrdir="/scratch/general/lustre/u6032257/4361799/notchpeak.peaks/"
 Entering Link 1 = /uufs/chpc.utah.edu/sys/installdir/gaussian16/C01/AVX2/g16/l1.exe PID=     28569.
  
 Copyright (c) 1988-2019, Gaussian, Inc.  All Rights Reserved.
  
 This is part of the Gaussian(R) 16 program.  It is based on
 the Gaussian(R) 09 system (copyright 2009, Gaussian, Inc.),
 the Gaussian(R) 03 system (copyright 2003, Gaussian, Inc.),
 the Gaussian(R) 98 system (copyright 1998, Gaussian, Inc.),
 the Gaussian(R) 94 system (copyright 1995, Gaussian, Inc.),
 the Gaussian 92(TM) system (copyright 1992, Gaussian, Inc.),
 the Gaussian 90(TM) system (copyright 1990, Gaussian, Inc.),
 the Gaussian 88(TM) system (copyright 1988, Gaussian, Inc.),
 the Gaussian 86(TM) system (copyright 1986, Carnegie Mellon
 University), and the Gaussian 82(TM) system (copyright 1983,
 Carnegie Mellon University). Gaussian is a federally registered
 trademark of Gaussian, Inc.
  
 This software contains proprietary and confidential information,
 including trade secrets, belonging to Gaussian, Inc.
  
 This software is provided under written license and may be
 used, copied, transmitted, or stored only in accord with that
 written license.
  
 The following legend is applicable only to US Government
 contracts under FAR:
  
                    RESTRICTED RIGHTS LEGEND
  
 Use, reproduction and disclosure by the US Government is
 subject to restrictions as set forth in subparagraphs (a)
 and (c) of the Commercial Computer Software - Restricted
 Rights clause in FAR 52.227-19.
  
 Gaussian, Inc.
 340 Quinnipiac St., Bldg. 40, Wallingford CT 06492
  
  
 ---------------------------------------------------------------
 Warning -- This program may not be used in any manner that
 competes with the business of Gaussian, Inc. or will provide
 assistance to any competitor of Gaussian, Inc.  The licensee
 of this program is prohibited from giving any competitor of
 Gaussian, Inc. access to this program.  By using this program,
 the user acknowledges that Gaussian, Inc. is engaged in the
 business of creating and licensing software in the field of
 computational chemistry and represents and warrants to the
 licensee that it is not a competitor of Gaussian, Inc. and that
 it will not use this program in any manner prohibited above.
 ---------------------------------------------------------------
  

 Cite this work as:
 Gaussian 16, Revision C.01,
 M. J. Frisch, G. W. Trucks, H. B. Schlegel, G. E. Scuseria, 
 M. A. Robb, J. R. Cheeseman, G. Scalmani, V. Barone, 
 G. A. Petersson, H. Nakatsuji, X. Li, M. Caricato, A. V. Marenich, 
 J. Bloino, B. G. Janesko, R. Gomperts, B. Mennucci, H. P. Hratchian, 
 J. V. Ortiz, A. F. Izmaylov, J. L. Sonnenberg, D. Williams-Young, 
 F. Ding, F. Lipparini, F. Egidi, J. Goings, B. Peng, A. Petrone, 
 T. Henderson, D. Ranasinghe, V. G. Zakrzewski, J. Gao, N. Rega, 
 G. Zheng, W. Liang, M. Hada, M. Ehara, K. Toyota, R. Fukuda, 
 J. Hasegawa, M. Ishida, T. Nakajima, Y. Honda, O. Kitao, H. Nakai, 
 T. Vreven, K. Throssell, J. A. Montgomery, Jr., J. E. Peralta, 
 F. Ogliaro, M. J. Bearpark, J. J. Heyd, E. N. Brothers, K. N. Kudin, 
 V. N. Staroverov, T. A. Keith, R. Kobayashi, J. Normand, 
 K. Raghavachari, A. P. Rendell, J. C. Burant, S. S. Iyengar, 
 J. Tomasi, M. Cossi, J. M. Millam, M. Klene, C. Adamo, R. Cammi, 
 J. W. Ochterski, R. L. Martin, K. Morokuma, O. Farkas, 
 J. B. Foresman, and D. J. Fox, Gaussian, Inc., Wallingford CT, 2019.
 
 ******************************************
 Gaussian 16:  ES64L-G16RevC.01  3-Jul-2019
                 4-May-2022 
 ******************************************
 %NProcShared=32
 Will use up to   32 processors via shared memory.
 %mem=16GB
 %chk=N5_conf-4-1.chk
 ----------------------------------------------------------------------
 # B3LYP/6-31G(d,p) empiricaldispersion=GD3BJ int=(grid=ultrafine) opt=
 (calcfc,tight) freq=noraman
 ----------------------------------------------------------------------
 1/7=10,10=4,18=20,19=15,26=4,38=1/1,3;
 2/9=110,12=2,17=6,18=5,40=1/2;
 3/5=1,6=6,7=101,11=2,25=1,30=1,71=2,74=-5,75=-5,124=41,140=1/1,2,3;
 4//1;
 5/5=2,38=5/2;
 8/6=4,10=90,11=11/1;
 11/6=1,8=1,9=11,15=111,16=1/1,2,10;
 10/6=1,13=1/2;
 6/7=2,8=2,9=2,10=2,28=1/1;
 7/10=1,25=1/1,2,3,16;
 1/7=10,10=4,18=20,19=15,26=4/3(2);
 2/9=110/2;
 99//99;
 2/9=110/2;
 3/5=1,6=6,7=101,11=2,25=1,30=1,71=1,74=-5,75=-5,124=41/1,2,3;
 4/5=5,16=3,69=1/1;
 5/5=2,38=5/2;
 7//1,2,3,16;
 1/7=10,18=20,19=15,26=4/3(-5);
 2/9=110/2;
 6/7=2,8=2,9=2,10=2,19=2,28=1/1;
 99/9=1/99;
 ------
 N5.xyz
 ------
 Symbolic Z-matrix:
 Charge =  0 Multiplicity = 1
 N                     2.4455    0.        0.0286 
 C                     1.0115    0.        0.3549 
 C                     0.284    -1.2459   -0.1669 
 C                    -1.2058   -1.1771    0.1722 
 O                    -1.8079    0.       -0.3497 
 C                    -1.2058    1.1771    0.1722 
 C                     0.284     1.2459   -0.1669 
 H                     2.6812    0.8132   -0.5329 
 H                     2.6812   -0.8133   -0.5327 
 H                     0.9073    0.        1.4526 
 H                     0.401    -1.2997   -1.2574 
 H                     0.7251   -2.1541    0.2628 
 H                    -1.3408   -1.2153    1.267 
 H                    -1.7511   -2.0184   -0.2636 
 H                    -1.3408    1.2153    1.267 
 H                    -1.7511    2.0184   -0.2636 
 H                     0.7251    2.1541    0.2628 
 H                     0.401     1.2997   -1.2574 
 

 GradGradGradGradGradGradGradGradGradGradGradGradGradGradGradGradGradGrad
 Berny optimization.
 Initialization pass.
                           ----------------------------
                           !    Initial Parameters    !
                           ! (Angstroms and Degrees)  !
 --------------------------                            --------------------------
 ! Name  Definition              Value          Derivative Info.                !
 --------------------------------------------------------------------------------
 ! R1    R(1,2)                  1.4707         calculate D2E/DX2 analytically  !
 ! R2    R(1,8)                  1.0159         calculate D2E/DX2 analytically  !
 ! R3    R(1,9)                  1.0159         calculate D2E/DX2 analytically  !
 ! R4    R(2,3)                  1.5342         calculate D2E/DX2 analytically  !
 ! R5    R(2,7)                  1.5342         calculate D2E/DX2 analytically  !
 ! R6    R(2,10)                 1.1026         calculate D2E/DX2 analytically  !
 ! R7    R(3,4)                  1.5295         calculate D2E/DX2 analytically  !
 ! R8    R(3,11)                 1.0981         calculate D2E/DX2 analytically  !
 ! R9    R(3,12)                 1.0973         calculate D2E/DX2 analytically  !
 ! R10   R(4,5)                  1.4214         calculate D2E/DX2 analytically  !
 ! R11   R(4,13)                 1.1038         calculate D2E/DX2 analytically  !
 ! R12   R(4,14)                 1.0932         calculate D2E/DX2 analytically  !
 ! R13   R(5,6)                  1.4214         calculate D2E/DX2 analytically  !
 ! R14   R(6,7)                  1.5295         calculate D2E/DX2 analytically  !
 ! R15   R(6,15)                 1.1038         calculate D2E/DX2 analytically  !
 ! R16   R(6,16)                 1.0932         calculate D2E/DX2 analytically  !
 ! R17   R(7,17)                 1.0973         calculate D2E/DX2 analytically  !
 ! R18   R(7,18)                 1.0981         calculate D2E/DX2 analytically  !
 ! A1    A(2,1,8)              110.4168         calculate D2E/DX2 analytically  !
 ! A2    A(2,1,9)              110.4148         calculate D2E/DX2 analytically  !
 ! A3    A(8,1,9)              106.3564         calculate D2E/DX2 analytically  !
 ! A4    A(1,2,3)              112.7621         calculate D2E/DX2 analytically  !
 ! A5    A(1,2,7)              112.7621         calculate D2E/DX2 analytically  !
 ! A6    A(1,2,10)             108.2417         calculate D2E/DX2 analytically  !
 ! A7    A(3,2,7)              108.5992         calculate D2E/DX2 analytically  !
 ! A8    A(3,2,10)             107.0842         calculate D2E/DX2 analytically  !
 ! A9    A(7,2,10)             107.0842         calculate D2E/DX2 analytically  !
 ! A10   A(2,3,4)              110.4845         calculate D2E/DX2 analytically  !
 ! A11   A(2,3,11)             109.0884         calculate D2E/DX2 analytically  !
 ! A12   A(2,3,12)             110.3854         calculate D2E/DX2 analytically  !
 ! A13   A(4,3,11)             109.0368         calculate D2E/DX2 analytically  !
 ! A14   A(4,3,12)             109.9974         calculate D2E/DX2 analytically  !
 ! A15   A(11,3,12)            107.7892         calculate D2E/DX2 analytically  !
 ! A16   A(3,4,5)              111.6201         calculate D2E/DX2 analytically  !
 ! A17   A(3,4,13)             109.7244         calculate D2E/DX2 analytically  !
 ! A18   A(3,4,14)             111.2771         calculate D2E/DX2 analytically  !
 ! A19   A(5,4,13)             109.9401         calculate D2E/DX2 analytically  !
 ! A20   A(5,4,14)             106.2385         calculate D2E/DX2 analytically  !
 ! A21   A(13,4,14)            107.925          calculate D2E/DX2 analytically  !
 ! A22   A(4,5,6)              111.8099         calculate D2E/DX2 analytically  !
 ! A23   A(5,6,7)              111.6201         calculate D2E/DX2 analytically  !
 ! A24   A(5,6,15)             109.9401         calculate D2E/DX2 analytically  !
 ! A25   A(5,6,16)             106.2385         calculate D2E/DX2 analytically  !
 ! A26   A(7,6,15)             109.7244         calculate D2E/DX2 analytically  !
 ! A27   A(7,6,16)             111.2771         calculate D2E/DX2 analytically  !
 ! A28   A(15,6,16)            107.925          calculate D2E/DX2 analytically  !
 ! A29   A(2,7,6)              110.4845         calculate D2E/DX2 analytically  !
 ! A30   A(2,7,17)             110.3854         calculate D2E/DX2 analytically  !
 ! A31   A(2,7,18)             109.0884         calculate D2E/DX2 analytically  !
 ! A32   A(6,7,17)             109.9974         calculate D2E/DX2 analytically  !
 ! A33   A(6,7,18)             109.0368         calculate D2E/DX2 analytically  !
 ! A34   A(17,7,18)            107.7892         calculate D2E/DX2 analytically  !
 ! D1    D(8,1,2,3)            120.3829         calculate D2E/DX2 analytically  !
 ! D2    D(8,1,2,7)             -3.0627         calculate D2E/DX2 analytically  !
 ! D3    D(8,1,2,10)          -121.3399         calculate D2E/DX2 analytically  !
 ! D4    D(9,1,2,3)              3.0496         calculate D2E/DX2 analytically  !
 ! D5    D(9,1,2,7)           -120.3961         calculate D2E/DX2 analytically  !
 ! D6    D(9,1,2,10)           121.3267         calculate D2E/DX2 analytically  !
 ! D7    D(1,2,3,4)           -178.7            calculate D2E/DX2 analytically  !
 ! D8    D(1,2,3,11)           -58.8501         calculate D2E/DX2 analytically  !
 ! D9    D(1,2,3,12)            59.4109         calculate D2E/DX2 analytically  !
 ! D10   D(7,2,3,4)            -52.9745         calculate D2E/DX2 analytically  !
 ! D11   D(7,2,3,11)            66.8754         calculate D2E/DX2 analytically  !
 ! D12   D(7,2,3,12)          -174.8636         calculate D2E/DX2 analytically  !
 ! D13   D(10,2,3,4)            62.3472         calculate D2E/DX2 analytically  !
 ! D14   D(10,2,3,11)         -177.8029         calculate D2E/DX2 analytically  !
 ! D15   D(10,2,3,12)          -59.5419         calculate D2E/DX2 analytically  !
 ! D16   D(1,2,7,6)            178.7            calculate D2E/DX2 analytically  !
 ! D17   D(1,2,7,17)           -59.4109         calculate D2E/DX2 analytically  !
 ! D18   D(1,2,7,18)            58.8501         calculate D2E/DX2 analytically  !
 ! D19   D(3,2,7,6)             52.9745         calculate D2E/DX2 analytically  !
 ! D20   D(3,2,7,17)           174.8636         calculate D2E/DX2 analytically  !
 ! D21   D(3,2,7,18)           -66.8754         calculate D2E/DX2 analytically  !
 ! D22   D(10,2,7,6)           -62.3472         calculate D2E/DX2 analytically  !
 ! D23   D(10,2,7,17)           59.5419         calculate D2E/DX2 analytically  !
 ! D24   D(10,2,7,18)          177.8029         calculate D2E/DX2 analytically  !
 ! D25   D(2,3,4,5)             56.8909         calculate D2E/DX2 analytically  !
 ! D26   D(2,3,4,13)           -65.237          calculate D2E/DX2 analytically  !
 ! D27   D(2,3,4,14)           175.3899         calculate D2E/DX2 analytically  !
 ! D28   D(11,3,4,5)           -62.9901         calculate D2E/DX2 analytically  !
 ! D29   D(11,3,4,13)          174.882          calculate D2E/DX2 analytically  !
 ! D30   D(11,3,4,14)           55.509          calculate D2E/DX2 analytically  !
 ! D31   D(12,3,4,5)           179.0083         calculate D2E/DX2 analytically  !
 ! D32   D(12,3,4,13)           56.8804         calculate D2E/DX2 analytically  !
 ! D33   D(12,3,4,14)          -62.4926         calculate D2E/DX2 analytically  !
 ! D34   D(3,4,5,6)            -60.0547         calculate D2E/DX2 analytically  !
 ! D35   D(13,4,5,6)            61.949          calculate D2E/DX2 analytically  !
 ! D36   D(14,4,5,6)           178.4791         calculate D2E/DX2 analytically  !
 ! D37   D(4,5,6,7)             60.0547         calculate D2E/DX2 analytically  !
 ! D38   D(4,5,6,15)           -61.949          calculate D2E/DX2 analytically  !
 ! D39   D(4,5,6,16)          -178.4791         calculate D2E/DX2 analytically  !
 ! D40   D(5,6,7,2)            -56.8909         calculate D2E/DX2 analytically  !
 ! D41   D(5,6,7,17)          -179.0083         calculate D2E/DX2 analytically  !
 ! D42   D(5,6,7,18)            62.9901         calculate D2E/DX2 analytically  !
 ! D43   D(15,6,7,2)            65.237          calculate D2E/DX2 analytically  !
 ! D44   D(15,6,7,17)          -56.8804         calculate D2E/DX2 analytically  !
 ! D45   D(15,6,7,18)         -174.882          calculate D2E/DX2 analytically  !
 ! D46   D(16,6,7,2)          -175.3899         calculate D2E/DX2 analytically  !
 ! D47   D(16,6,7,17)           62.4926         calculate D2E/DX2 analytically  !
 ! D48   D(16,6,7,18)          -55.509          calculate D2E/DX2 analytically  !
 --------------------------------------------------------------------------------
 Trust Radius=3.00D-01 FncErr=1.00D-07 GrdErr=1.00D-06 EigMax=2.50D+02 EigMin=1.00D-04
 Number of steps in this run=    108 maximum allowed number of steps=    108.
 GradGradGradGradGradGradGradGradGradGradGradGradGradGradGradGradGradGrad

                          Input orientation:                          
 ---------------------------------------------------------------------
 Center     Atomic      Atomic             Coordinates (Angstroms)
 Number     Number       Type             X           Y           Z
 ---------------------------------------------------------------------
      1          7           0        2.445500    0.000000    0.028600
      2          6           0        1.011500    0.000000    0.354900
      3          6           0        0.284000   -1.245900   -0.166900
      4          6           0       -1.205800   -1.177100    0.172200
      5          8           0       -1.807900    0.000000   -0.349700
      6          6           0       -1.205800    1.177100    0.172200
      7          6           0        0.284000    1.245900   -0.166900
      8          1           0        2.681200    0.813200   -0.532900
      9          1           0        2.681200   -0.813300   -0.532700
     10          1           0        0.907300    0.000000    1.452600
     11          1           0        0.401000   -1.299700   -1.257400
     12          1           0        0.725100   -2.154100    0.262800
     13          1           0       -1.340800   -1.215300    1.267000
     14          1           0       -1.751100   -2.018400   -0.263600
     15          1           0       -1.340800    1.215300    1.267000
     16          1           0       -1.751100    2.018400   -0.263600
     17          1           0        0.725100    2.154100    0.262800
     18          1           0        0.401000    1.299700   -1.257400
 ---------------------------------------------------------------------
                    Distance matrix (angstroms):
                    1          2          3          4          5
     1  N    0.000000
     2  C    1.470656   0.000000
     3  C    2.502513   1.534209   0.000000
     4  C    3.839033   2.517015   1.529453   0.000000
     5  O    4.270190   2.906110   2.441665   1.421432   0.000000
     6  C    3.839033   2.517015   2.864511   2.354200   1.421432
     7  C    2.502513   1.534209   2.491800   2.864511   2.441665
     8  H    1.015938   2.058490   3.181260   4.423486   4.565838
     9  H    1.015908   2.058443   2.463234   3.967115   4.565848
    10  H    2.096148   1.102635   2.136247   2.736819   3.258926
    11  H    2.742808   2.159037   1.098077   2.154204   2.718893
    12  H    2.766726   2.175007   1.097287   2.165898   3.381034
    13  H    4.164932   2.800392   2.167252   1.103753   2.075778
    14  H    4.665916   3.476843   2.178931   1.093188   2.021034
    15  H    4.164932   2.800392   3.279261   2.634462   2.075778
    16  H    4.665916   3.476843   3.847939   3.270855   2.021034
    17  H    2.766726   2.175007   3.455316   3.851425   3.381034
    18  H    2.742808   2.159037   2.771815   3.280259   2.718893
                    6          7          8          9         10
     6  C    0.000000
     7  C    1.529453   0.000000
     8  H    3.967160   2.463281   0.000000
     9  H    4.423499   3.181302   1.626500   0.000000
    10  H    2.736819   2.136247   2.783923   2.783809   0.000000
    11  H    3.280259   2.771815   3.191952   2.441534   3.047894
    12  H    3.851425   3.455316   3.642023   2.501378   2.467583
    13  H    2.634462   3.279261   4.850870   4.424591   2.562295
    14  H    3.270855   3.847939   5.266476   4.601083   3.753182
    15  H    1.103753   2.167252   4.424682   4.850837   2.562295
    16  H    1.093188   2.178931   4.601121   5.266519   3.753182
    17  H    2.165898   1.097287   2.501495   3.642061   2.467583
    18  H    2.154204   1.098077   2.441494   3.192064   3.047894
                   11         12         13         14         15
    11  H    0.000000
    12  H    1.773710   0.000000
    13  H    3.068157   2.481473   0.000000
    14  H    2.477035   2.535168   1.776528   0.000000
    15  H    3.966319   4.077894   2.430600   3.601097   0.000000
    16  H    4.077862   4.880412   3.601097   4.036800   1.776528
    17  H    3.787451   4.308200   4.077894   4.880412   2.481473
    18  H    2.599400   3.787451   3.966319   4.077862   3.068157
                   16         17         18
    16  H    0.000000
    17  H    2.535168   0.000000
    18  H    2.477035   1.773710   0.000000
 Stoichiometry    C5H11NO
 Framework group  C1[X(C5H11NO)]
 Deg. of freedom    48
 Full point group                 C1      NOp   1
 Largest Abelian subgroup         C1      NOp   1
 Largest concise Abelian subgroup C1      NOp   1
                         Standard orientation:                         
 ---------------------------------------------------------------------
 Center     Atomic      Atomic             Coordinates (Angstroms)
 Number     Number       Type             X           Y           Z
 ---------------------------------------------------------------------
      1          7           0       -2.445486   -0.000013    0.028596
      2          6           0       -1.011486   -0.000006    0.354896
      3          6           0       -0.283991    1.245897   -0.166904
      4          6           0        1.205809    1.177104    0.172196
      5          8           0        1.807914    0.000006   -0.349704
      6          6           0        1.205820   -1.177096    0.172196
      7          6           0       -0.283980   -1.245903   -0.166904
      8          1           0       -2.681182   -0.813214   -0.532904
      9          1           0       -2.681189    0.813286   -0.532704
     10          1           0       -0.907286   -0.000006    1.452596
     11          1           0       -0.400992    1.299696   -1.257404
     12          1           0       -0.725096    2.154095    0.262796
     13          1           0        1.340809    1.215304    1.266996
     14          1           0        1.751105    2.018406   -0.263604
     15          1           0        1.340820   -1.215296    1.266996
     16          1           0        1.751124   -2.018394   -0.263604
     17          1           0       -0.725076   -2.154105    0.262796
     18          1           0       -0.400980   -1.299704   -1.257404
 ---------------------------------------------------------------------
 Rotational constants (GHZ):           4.5969121           2.2377118           1.6436024
 Standard basis: 6-31G(d,p) (6D, 7F)
 There are   160 symmetry adapted cartesian basis functions of A   symmetry.
 There are   160 symmetry adapted basis functions of A   symmetry.
   160 basis functions,   273 primitive gaussians,   160 cartesian basis functions
    28 alpha electrons       28 beta electrons
       nuclear repulsion energy       334.3789540962 Hartrees.
 NAtoms=   18 NActive=   18 NUniq=   18 SFac= 1.00D+00 NAtFMM=   60 NAOKFM=F Big=F
 Integral buffers will be    131072 words long.
 Raffenetti 2 integral format.
 Two-electron integral symmetry is turned on.
 Nuclear repulsion after empirical dispersion term =      334.3527284534 Hartrees.
 One-electron integrals computed using PRISM.
 NBasis=   160 RedAO= T EigKep=  3.22D-03  NBF=   160
 NBsUse=   160 1.00D-06 EigRej= -1.00D+00 NBFU=   160
 ExpMin= 1.61D-01 ExpMax= 5.48D+03 ExpMxC= 8.25D+02 IAcc=3 IRadAn=         5 AccDes= 0.00D+00
 Harris functional with IExCor=  402 and IRadAn=       5 diagonalized for initial guess.
 HarFok:  IExCor=  402 AccDes= 0.00D+00 IRadAn=         5 IDoV= 1 UseB2=F ITyADJ=14
 ICtDFT=  3500011 ScaDFX=  1.000000  1.000000  1.000000  1.000000
 FoFCou: FMM=F IPFlag=           0 FMFlag=      100000 FMFlg1=           0
         NFxFlg=           0 DoJE=T BraDBF=F KetDBF=T FulRan=T
         wScrn=  0.000000 ICntrl=       500 IOpCl=  0 I1Cent=   200000004 NGrid=           0
         NMat0=    1 NMatS0=      1 NMatT0=    0 NMatD0=    1 NMtDS0=    0 NMtDT0=    0
 Petite list used in FoFCou.
 Requested convergence on RMS density matrix=1.00D-08 within 128 cycles.
 Requested convergence on MAX density matrix=1.00D-06.
 Requested convergence on             energy=1.00D-06.
 No special actions if energy rises.
 Integral accuracy reduced to 1.0D-05 until final iterations.
 Initial convergence to 1.0D-05 achieved.  Increase integral accuracy.
 SCF Done:  E(RB3LYP) =  -327.155136571     A.U. after   12 cycles
            NFock= 12  Conv=0.81D-08     -V/T= 2.0094
 DoSCS=F DFT=T ScalE2(SS,OS)=  1.000000  1.000000
 Range of M.O.s used for correlation:     1   160
 NBasis=   160 NAE=    28 NBE=    28 NFC=     0 NFV=     0
 NROrb=    160 NOA=    28 NOB=    28 NVA=   132 NVB=   132
 Symmetrizing basis deriv contribution to polar:
 IMax=3 JMax=2 DiffMx= 0.00D+00
 G2DrvN: will do    19 centers at a time, making    1 passes.
 Calling FoFCou, ICntrl=  3107 FMM=F I1Cent=   0 AccDes= 0.00D+00.
 End of G2Drv F.D. properties file   721 does not exist.
 End of G2Drv F.D. properties file   722 does not exist.
 End of G2Drv F.D. properties file   788 does not exist.
          IDoAtm=111111111111111111
          Differentiating once with respect to nuclear coordinates.
 Keep R1 ints in memory in canonical form, NReq=114506659.
          There are    57 degrees of freedom in the 1st order CPHF.  IDoFFX=6 NUNeed=     0.
     51 vectors produced by pass  0 Test12= 6.48D-15 1.75D-09 XBig12= 7.98D-02 1.05D-01.
 AX will form    51 AO Fock derivatives at one time.
     51 vectors produced by pass  1 Test12= 6.48D-15 1.75D-09 XBig12= 1.45D-02 3.35D-02.
     51 vectors produced by pass  2 Test12= 6.48D-15 1.75D-09 XBig12= 2.35D-04 2.96D-03.
     51 vectors produced by pass  3 Test12= 6.48D-15 1.75D-09 XBig12= 1.36D-06 1.86D-04.
     51 vectors produced by pass  4 Test12= 6.48D-15 1.75D-09 XBig12= 1.71D-09 5.92D-06.
     26 vectors produced by pass  5 Test12= 6.48D-15 1.75D-09 XBig12= 1.28D-12 1.50D-07.
      1 vectors produced by pass  6 Test12= 6.48D-15 1.75D-09 XBig12= 1.03D-15 4.91D-09.
 InvSVY:  IOpt=1 It=  1 EMax= 2.22D-16
 Solved reduced A of dimension   282 with    57 vectors.
 End of Minotr F.D. properties file   721 does not exist.
 End of Minotr F.D. properties file   722 does not exist.
 End of Minotr F.D. properties file   788 does not exist.

 **********************************************************************

            Population analysis using the SCF Density.

 **********************************************************************

 Orbital symmetries:
       Occupied  (A) (A) (A) (A) (A) (A) (A) (A) (A) (A) (A) (A)
                 (A) (A) (A) (A) (A) (A) (A) (A) (A) (A) (A) (A)
                 (A) (A) (A) (A)
       Virtual   (A) (A) (A) (A) (A) (A) (A) (A) (A) (A) (A) (A)
                 (A) (A) (A) (A) (A) (A) (A) (A) (A) (A) (A) (A)
                 (A) (A) (A) (A) (A) (A) (A) (A) (A) (A) (A) (A)
                 (A) (A) (A) (A) (A) (A) (A) (A) (A) (A) (A) (A)
                 (A) (A) (A) (A) (A) (A) (A) (A) (A) (A) (A) (A)
                 (A) (A) (A) (A) (A) (A) (A) (A) (A) (A) (A) (A)
                 (A) (A) (A) (A) (A) (A) (A) (A) (A) (A) (A) (A)
                 (A) (A) (A) (A) (A) (A) (A) (A) (A) (A) (A) (A)
                 (A) (A) (A) (A) (A) (A) (A) (A) (A) (A) (A) (A)
                 (A) (A) (A) (A) (A) (A) (A) (A) (A) (A) (A) (A)
                 (A) (A) (A) (A) (A) (A) (A) (A) (A) (A) (A) (A)
 The electronic state is 1-A.
 Alpha  occ. eigenvalues --  -19.14343 -14.30751 -10.22921 -10.22920 -10.21178
 Alpha  occ. eigenvalues --  -10.18308 -10.18307  -1.02880  -0.88239  -0.76774
 Alpha  occ. eigenvalues --   -0.76229  -0.63909  -0.62534  -0.56646  -0.49190
 Alpha  occ. eigenvalues --   -0.47934  -0.46661  -0.45324  -0.44068  -0.40740
 Alpha  occ. eigenvalues --   -0.40301  -0.38446  -0.35389  -0.34299  -0.31843
 Alpha  occ. eigenvalues --   -0.30407  -0.25546  -0.22535
 Alpha virt. eigenvalues --    0.08820   0.09342   0.11948   0.12833   0.13264
 Alpha virt. eigenvalues --    0.14256   0.15820   0.16927   0.17209   0.17763
 Alpha virt. eigenvalues --    0.17845   0.19535   0.24645   0.24703   0.26056
 Alpha virt. eigenvalues --    0.27119   0.27853   0.30224   0.52526   0.53181
 Alpha virt. eigenvalues --    0.53478   0.55858   0.56604   0.56845   0.57374
 Alpha virt. eigenvalues --    0.64669   0.64938   0.65892   0.71292   0.71558
 Alpha virt. eigenvalues --    0.73820   0.77971   0.78053   0.81872   0.82166
 Alpha virt. eigenvalues --    0.84440   0.85382   0.86847   0.87512   0.87985
 Alpha virt. eigenvalues --    0.88489   0.90442   0.91555   0.92349   0.94294
 Alpha virt. eigenvalues --    0.96324   0.98673   0.99910   1.07434   1.16464
 Alpha virt. eigenvalues --    1.23365   1.27483   1.30212   1.30367   1.38173
 Alpha virt. eigenvalues --    1.39229   1.48358   1.50410   1.56924   1.59301
 Alpha virt. eigenvalues --    1.63251   1.67836   1.69880   1.72408   1.77899
 Alpha virt. eigenvalues --    1.79621   1.84476   1.87475   1.91112   1.91327
 Alpha virt. eigenvalues --    1.92123   1.95312   1.97151   1.97721   2.02454
 Alpha virt. eigenvalues --    2.03383   2.04380   2.09708   2.12611   2.16504
 Alpha virt. eigenvalues --    2.17027   2.18127   2.22250   2.23110   2.24901
 Alpha virt. eigenvalues --    2.27763   2.29431   2.32764   2.36926   2.38498
 Alpha virt. eigenvalues --    2.39505   2.41455   2.48968   2.50167   2.52963
 Alpha virt. eigenvalues --    2.53896   2.58703   2.61067   2.63222   2.65296
 Alpha virt. eigenvalues --    2.69847   2.74283   2.75250   2.77934   2.80055
 Alpha virt. eigenvalues --    2.81824   2.84614   2.87578   2.91225   2.93590
 Alpha virt. eigenvalues --    2.95423   2.97081   3.00804   3.03985   3.21162
 Alpha virt. eigenvalues --    3.27527   3.28427   3.32102   3.32124   3.39934
 Alpha virt. eigenvalues --    3.45299   3.46222   3.48185   3.50601   3.56452
 Alpha virt. eigenvalues --    3.98019   4.03335   4.37404   4.38510   4.56859
 Alpha virt. eigenvalues --    4.72256   4.75638
          Condensed to atoms (all electrons):
               1          2          3          4          5          6
     1  N    6.760762   0.336707  -0.054066   0.003860   0.000020   0.003859
     2  C    0.336707   4.764978   0.373879  -0.027865  -0.010702  -0.027867
     3  C   -0.054066   0.373879   5.095667   0.333518  -0.048315  -0.018761
     4  C    0.003860  -0.027865   0.333518   4.730180   0.267005  -0.037287
     5  O    0.000020  -0.010702  -0.048315   0.267005   8.196195   0.267005
     6  C    0.003859  -0.027867  -0.018761  -0.037287   0.267005   4.730174
     7  C   -0.054061   0.373880  -0.026187  -0.018763  -0.048315   0.333527
     8  H    0.342053  -0.045348   0.003367  -0.000207   0.000017   0.000354
     9  H    0.342059  -0.045351  -0.009801   0.000354   0.000017  -0.000207
    10  H   -0.055705   0.384768  -0.063917  -0.001477  -0.000494  -0.001479
    11  H   -0.000117  -0.039003   0.358909  -0.030394   0.001324  -0.000143
    12  H   -0.003468  -0.036122   0.359621  -0.025164   0.003206   0.000158
    13  H   -0.000002  -0.011414  -0.056050   0.365486  -0.039968  -0.010213
    14  H   -0.000102   0.003780  -0.034381   0.387923  -0.035246   0.005600
    15  H   -0.000002  -0.011414  -0.001214  -0.010213  -0.039968   0.365486
    16  H   -0.000102   0.003780   0.000153   0.005600  -0.035246   0.387924
    17  H   -0.003467  -0.036123   0.006600   0.000158   0.003206  -0.025164
    18  H   -0.000118  -0.039002  -0.010581  -0.000142   0.001324  -0.030396
               7          8          9         10         11         12
     1  N   -0.054061   0.342053   0.342059  -0.055705  -0.000117  -0.003468
     2  C    0.373880  -0.045348  -0.045351   0.384768  -0.039003  -0.036122
     3  C   -0.026187   0.003367  -0.009801  -0.063917   0.358909   0.359621
     4  C   -0.018763  -0.000207   0.000354  -0.001477  -0.030394  -0.025164
     5  O   -0.048315   0.000017   0.000017  -0.000494   0.001324   0.003206
     6  C    0.333527   0.000354  -0.000207  -0.001479  -0.000143   0.000158
     7  C    5.095645  -0.009804   0.003368  -0.063913  -0.010581   0.006600
     8  H   -0.009804   0.494460  -0.033432   0.005384   0.000876  -0.000208
     9  H    0.003368  -0.033432   0.494451   0.005383   0.004380   0.002601
    10  H   -0.063913   0.005384   0.005383   0.691693   0.007633  -0.007735
    11  H   -0.010581   0.000876   0.004380   0.007633   0.640596  -0.037289
    12  H    0.006600  -0.000208   0.002601  -0.007735  -0.037289   0.642370
    13  H   -0.001214   0.000003   0.000024   0.006746   0.006662  -0.000192
    14  H    0.000153   0.000005  -0.000012  -0.000225  -0.006833  -0.000419
    15  H   -0.056050   0.000024   0.000003   0.006746   0.000341   0.000073
    16  H   -0.034382  -0.000012   0.000005  -0.000225  -0.000078   0.000019
    17  H    0.359622   0.002599  -0.000208  -0.007736  -0.000108  -0.000130
    18  H    0.358910   0.004382   0.000876   0.007633   0.007057  -0.000108
              13         14         15         16         17         18
     1  N   -0.000002  -0.000102  -0.000002  -0.000102  -0.003467  -0.000118
     2  C   -0.011414   0.003780  -0.011414   0.003780  -0.036123  -0.039002
     3  C   -0.056050  -0.034381  -0.001214   0.000153   0.006600  -0.010581
     4  C    0.365486   0.387923  -0.010213   0.005600   0.000158  -0.000142
     5  O   -0.039968  -0.035246  -0.039968  -0.035246   0.003206   0.001324
     6  C   -0.010213   0.005600   0.365486   0.387924  -0.025164  -0.030396
     7  C   -0.001214   0.000153  -0.056050  -0.034382   0.359622   0.358910
     8  H    0.000003   0.000005   0.000024  -0.000012   0.002599   0.004382
     9  H    0.000024  -0.000012   0.000003   0.000005  -0.000208   0.000876
    10  H    0.006746  -0.000225   0.006746  -0.000225  -0.007736   0.007633
    11  H    0.006662  -0.006833   0.000341  -0.000078  -0.000108   0.007057
    12  H   -0.000192  -0.000419   0.000073   0.000019  -0.000130  -0.000108
    13  H    0.685268  -0.041879   0.014570  -0.000207   0.000073   0.000341
    14  H   -0.041879   0.619645  -0.000207  -0.000248   0.000019  -0.000078
    15  H    0.014570  -0.000207   0.685268  -0.041879  -0.000192   0.006662
    16  H   -0.000207  -0.000248  -0.041879   0.619644  -0.000419  -0.006833
    17  H    0.000073   0.000019  -0.000192  -0.000419   0.642365  -0.037289
    18  H    0.000341  -0.000078   0.006662  -0.006833  -0.037289   0.640596
 Mulliken charges:
               1
     1  N   -0.618107
     2  C    0.088436
     3  C   -0.208438
     4  C    0.057429
     5  O   -0.481067
     6  C    0.057429
     7  C   -0.208435
     8  H    0.235485
     9  H    0.235489
    10  H    0.086920
    11  H    0.096766
    12  H    0.096190
    13  H    0.081965
    14  H    0.102505
    15  H    0.081966
    16  H    0.102505
    17  H    0.096194
    18  H    0.096766
 Sum of Mulliken charges =  -0.00000
 Mulliken charges with hydrogens summed into heavy atoms:
               1
     1  N   -0.147133
     2  C    0.175356
     3  C   -0.015481
     4  C    0.241899
     5  O   -0.481067
     6  C    0.241900
     7  C   -0.015475
 APT charges:
               1
     1  N   -1.034442
     2  C   -0.313408
     3  C   -0.672846
     4  C   -0.675317
     5  O   -0.355012
     6  C   -0.675315
     7  C   -0.672856
     8  H    0.490708
     9  H    0.490693
    10  H    0.330027
    11  H    0.302708
    12  H    0.417489
    13  H    0.311966
    14  H    0.511717
    15  H    0.311966
    16  H    0.511718
    17  H    0.417494
    18  H    0.302708
 Sum of APT charges =  -0.00000
 APT charges with hydrogens summed into heavy atoms:
               1
     1  N   -0.053041
     2  C    0.016619
     3  C    0.047351
     4  C    0.148366
     5  O   -0.355012
     6  C    0.148370
     7  C    0.047346
 Electronic spatial extent (au):  <R**2>=            781.5048
 Charge=             -0.0000 electrons
 Dipole moment (field-independent basis, Debye):
    X=             -0.4476    Y=              0.0001    Z=             -0.5407  Tot=              0.7019
 Quadrupole moment (field-independent basis, Debye-Ang):
   XX=            -50.2863   YY=            -39.5197   ZZ=            -44.1138
   XY=             -0.0005   XZ=              5.6923   YZ=              0.0002
 Traceless Quadrupole moment (field-independent basis, Debye-Ang):
   XX=             -5.6464   YY=              5.1202   ZZ=              0.5261
   XY=             -0.0005   XZ=              5.6923   YZ=              0.0002
 Octapole moment (field-independent basis, Debye-Ang**2):
  XXX=              3.3349  YYY=              0.0002  ZZZ=             -2.3954  XYY=              1.5235
  XXY=              0.0015  XXZ=            -11.2578  XZZ=              0.4193  YZZ=             -0.0001
  YYZ=             -1.6795  XYZ=             -0.0006
 Hexadecapole moment (field-independent basis, Debye-Ang**3):
 XXXX=           -630.2968 YYYY=           -323.1448 ZZZZ=            -96.2127 XXXY=             -0.0051
 XXXZ=             42.3611 YYYX=             -0.0007 YYYZ=             -0.0002 ZZZX=              2.5452
 ZZZY=              0.0000 XXYY=           -132.8453 XXZZ=           -114.5802 YYZZ=            -71.1782
 XXYZ=              0.0016 YYXZ=             -0.8791 ZZXY=              0.0003
 N-N= 3.343527284534D+02 E-N=-1.429739871172D+03  KE= 3.241172166391D+02
  Exact polarizability:       0.000       0.000       0.000       0.000       0.000       0.000
 Approx polarizability:      83.856      -0.000      88.356       1.645       0.001      82.582
 Calling FoFJK, ICntrl=    100127 FMM=F ISym2X=0 I1Cent= 0 IOpClX= 0 NMat=1 NMatS=1 NMatT=0.
 ***** Axes restored to original set *****
 -------------------------------------------------------------------
 Center     Atomic                   Forces (Hartrees/Bohr)
 Number     Number              X              Y              Z
 -------------------------------------------------------------------
      1        7           0.000046523    0.000019410    0.000140525
      2        6          -0.000130171    0.000001249   -0.000069380
      3        6           0.000023675    0.000006095   -0.000033054
      4        6           0.000032554    0.000067166    0.000023115
      5        8          -0.000014806   -0.000000044    0.000002769
      6        6           0.000032776   -0.000067629    0.000023088
      7        6           0.000025283   -0.000005622   -0.000031889
      8        1           0.000010021    0.000016860   -0.000051844
      9        1           0.000019802   -0.000037219   -0.000065563
     10        1           0.000027929    0.000000059    0.000016337
     11        1          -0.000017059    0.000005972    0.000025188
     12        1          -0.000000362   -0.000012633    0.000011329
     13        1          -0.000018505   -0.000000670    0.000004254
     14        1          -0.000000955   -0.000007963   -0.000017615
     15        1          -0.000018481    0.000000692    0.000004200
     16        1          -0.000000842    0.000007970   -0.000017671
     17        1          -0.000000257    0.000012356    0.000011126
     18        1          -0.000017125   -0.000006050    0.000025086
 -------------------------------------------------------------------
 Cartesian Forces:  Max     0.000140525 RMS     0.000037041
 FormGI is forming the generalized inverse of G from B-inverse, IUseBI=4.

 GradGradGradGradGradGradGradGradGradGradGradGradGradGradGradGradGradGrad
 Berny optimization.
 Internal  Forces:  Max     0.000070529 RMS     0.000016091
 Search for a local minimum.
 Step number   1 out of a maximum of  108
 All quantities printed in internal units (Hartrees-Bohrs-Radians)
 Mixed Optimization -- En-DIIS/RFO-DIIS
 Second derivative matrix not updated -- analytic derivatives used.
 ITU=  0
     Eigenvalues ---   -0.00327   0.00514   0.00604   0.00970   0.02132
     Eigenvalues ---    0.02444   0.02666   0.03965   0.04064   0.04189
     Eigenvalues ---    0.04588   0.05044   0.05270   0.05729   0.05917
     Eigenvalues ---    0.06309   0.06340   0.06832   0.08145   0.08792
     Eigenvalues ---    0.10063   0.10511   0.10567   0.11828   0.12545
     Eigenvalues ---    0.14671   0.17518   0.18618   0.21093   0.22829
     Eigenvalues ---    0.24638   0.25686   0.26091   0.27922   0.30248
     Eigenvalues ---    0.30705   0.30995   0.32799   0.32929   0.33072
     Eigenvalues ---    0.33283   0.33448   0.33570   0.35329   0.35545
     Eigenvalues ---    0.36499   0.44923   0.45169
 RFO step:  Lambda=-3.26500849D-03 EMin=-3.26500551D-03
 I=     1 Eig=   -3.27D-03 Dot1=  5.49D-07
 I=     1 Stepn=  6.00D-01 RXN=   6.00D-01 EDone=F
 Mixed    1 eigenvectors in step.  Raw Step.Grad=  5.49D-07.
 RFO eigenvector is Hessian eigenvector with negative curvature.
 Taking step of  6.00D-01 in eigenvector direction(s).  Step.Grad=  4.26D-07.
 Linear search not attempted -- first point.
 Iteration  1 RMS(Cart)=  0.04569953 RMS(Int)=  0.01229839
 Iteration  2 RMS(Cart)=  0.01230210 RMS(Int)=  0.00032150
 Iteration  3 RMS(Cart)=  0.00031413 RMS(Int)=  0.00002905
 Iteration  4 RMS(Cart)=  0.00000015 RMS(Int)=  0.00002905
 Variable       Old X    -DE/DX   Delta X   Delta X   Delta X     New X
                                 (Linear)    (Quad)   (Total)
    R1        2.77914   0.00007   0.00000  -0.00000  -0.00000   2.77913
    R2        1.91985   0.00004   0.00000  -0.00004  -0.00004   1.91981
    R3        1.91979   0.00007   0.00000   0.00004   0.00004   1.91983
    R4        2.89924  -0.00002   0.00000   0.00316   0.00314   2.90238
    R5        2.89924  -0.00002   0.00000  -0.00316  -0.00318   2.89606
    R6        2.08368   0.00001   0.00000  -0.00000  -0.00000   2.08368
    R7        2.89025  -0.00000   0.00000   0.00031   0.00031   2.89056
    R8        2.07507  -0.00003   0.00000  -0.00058  -0.00058   2.07448
    R9        2.07357   0.00001   0.00000   0.00080   0.00080   2.07437
   R10        2.68612  -0.00003   0.00000   0.00015   0.00017   2.68628
   R11        2.08579   0.00001   0.00000   0.00020   0.00020   2.08599
   R12        2.06583   0.00001   0.00000   0.00002   0.00002   2.06585
   R13        2.68612  -0.00003   0.00000  -0.00015  -0.00014   2.68598
   R14        2.89025  -0.00000   0.00000  -0.00031  -0.00031   2.88994
   R15        2.08579   0.00001   0.00000  -0.00020  -0.00020   2.08560
   R16        2.06583   0.00001   0.00000  -0.00002  -0.00002   2.06580
   R17        2.07357   0.00001   0.00000  -0.00080  -0.00080   2.07278
   R18        2.07507  -0.00003   0.00000   0.00058   0.00058   2.07565
    A1        1.92714  -0.00000   0.00000  -0.00426  -0.00425   1.92288
    A2        1.92710   0.00001   0.00000   0.00425   0.00425   1.93135
    A3        1.85627  -0.00002   0.00000  -0.00000   0.00000   1.85627
    A4        1.96807   0.00001   0.00000   0.01938   0.01938   1.98745
    A5        1.96807   0.00001   0.00000  -0.01938  -0.01938   1.94869
    A6        1.88917  -0.00002   0.00000  -0.00000  -0.00020   1.88897
    A7        1.89541  -0.00000   0.00000   0.00000   0.00006   1.89547
    A8        1.86897   0.00000   0.00000   0.00307   0.00302   1.87200
    A9        1.86897   0.00000   0.00000  -0.00306  -0.00310   1.86587
   A10        1.92832  -0.00001   0.00000   0.00007   0.00004   1.92836
   A11        1.90395   0.00001   0.00000   0.00028   0.00028   1.90423
   A12        1.92659   0.00000   0.00000   0.00035   0.00037   1.92696
   A13        1.90305  -0.00001   0.00000   0.00209   0.00210   1.90515
   A14        1.91982   0.00000   0.00000  -0.00228  -0.00228   1.91754
   A15        1.88128   0.00000   0.00000  -0.00047  -0.00047   1.88080
   A16        1.94814   0.00001   0.00000  -0.00116  -0.00115   1.94699
   A17        1.91505   0.00002   0.00000   0.00003   0.00003   1.91508
   A18        1.94215  -0.00002   0.00000   0.00137   0.00136   1.94352
   A19        1.91882  -0.00001   0.00000  -0.00025  -0.00026   1.91856
   A20        1.85421  -0.00001   0.00000   0.00013   0.00014   1.85435
   A21        1.88365   0.00000   0.00000  -0.00010  -0.00010   1.88355
   A22        1.95145  -0.00003   0.00000  -0.00000  -0.00001   1.95144
   A23        1.94814   0.00001   0.00000   0.00116   0.00118   1.94931
   A24        1.91882  -0.00001   0.00000   0.00025   0.00023   1.91905
   A25        1.85421  -0.00001   0.00000  -0.00013  -0.00012   1.85409
   A26        1.91505   0.00002   0.00000  -0.00003  -0.00003   1.91502
   A27        1.94215  -0.00002   0.00000  -0.00137  -0.00138   1.94078
   A28        1.88365   0.00000   0.00000   0.00010   0.00010   1.88374
   A29        1.92832  -0.00001   0.00000  -0.00006  -0.00009   1.92823
   A30        1.92659   0.00000   0.00000  -0.00035  -0.00034   1.92625
   A31        1.90395   0.00001   0.00000  -0.00028  -0.00028   1.90367
   A32        1.91982   0.00000   0.00000   0.00229   0.00229   1.92211
   A33        1.90305  -0.00001   0.00000  -0.00210  -0.00209   1.90096
   A34        1.88128   0.00000   0.00000   0.00047   0.00047   1.88174
    D1        2.10108  -0.00001   0.00000  -0.24936  -0.24944   1.85164
    D2       -0.05345  -0.00002   0.00000  -0.24936  -0.24928  -0.30273
    D3       -2.11778  -0.00001   0.00000  -0.23393  -0.23393  -2.35172
    D4        0.05323   0.00002   0.00000  -0.24935  -0.24943  -0.19620
    D5       -2.10131   0.00001   0.00000  -0.24935  -0.24927  -2.35058
    D6        2.11755   0.00001   0.00000  -0.23393  -0.23393   1.88363
    D7       -3.11890  -0.00001   0.00000   0.01068   0.01070  -3.10820
    D8       -1.02713  -0.00002   0.00000   0.01348   0.01349  -1.01364
    D9        1.03692  -0.00001   0.00000   0.01328   0.01330   1.05021
   D10       -0.92458   0.00001   0.00000  -0.00062  -0.00061  -0.92519
   D11        1.16720  -0.00000   0.00000   0.00217   0.00218   1.16938
   D12       -3.05195   0.00001   0.00000   0.00198   0.00199  -3.04996
   D13        1.08816   0.00001   0.00000  -0.00261  -0.00263   1.08553
   D14       -3.10325   0.00000   0.00000   0.00019   0.00015  -3.10309
   D15       -1.03920   0.00001   0.00000  -0.00001  -0.00004  -1.03924
   D16        3.11890   0.00001   0.00000   0.01068   0.01066   3.12957
   D17       -1.03692   0.00001   0.00000   0.01328   0.01327  -1.02365
   D18        1.02713   0.00002   0.00000   0.01348   0.01347   1.04059
   D19        0.92458  -0.00001   0.00000  -0.00062  -0.00064   0.92394
   D20        3.05195  -0.00001   0.00000   0.00198   0.00196   3.05391
   D21       -1.16720   0.00000   0.00000   0.00217   0.00216  -1.16503
   D22       -1.08816  -0.00001   0.00000  -0.00262  -0.00259  -1.09075
   D23        1.03920  -0.00001   0.00000  -0.00002   0.00001   1.03921
   D24        3.10325  -0.00000   0.00000   0.00018   0.00021   3.10346
   D25        0.99293   0.00001   0.00000   0.00016   0.00014   0.99307
   D26       -1.13860   0.00000   0.00000   0.00123   0.00122  -1.13738
   D27        3.06113  -0.00000   0.00000   0.00047   0.00046   3.06159
   D28       -1.09938   0.00001   0.00000  -0.00154  -0.00155  -1.10093
   D29        3.05227  -0.00000   0.00000  -0.00047  -0.00047   3.05180
   D30        0.96881  -0.00000   0.00000  -0.00123  -0.00123   0.96758
   D31        3.12428   0.00001   0.00000  -0.00088  -0.00089   3.12339
   D32        0.99275  -0.00000   0.00000   0.00019   0.00019   0.99294
   D33       -1.09070  -0.00000   0.00000  -0.00058  -0.00058  -1.09128
   D34       -1.04815  -0.00001   0.00000   0.00010   0.00009  -1.04806
   D35        1.08121   0.00002   0.00000  -0.00082  -0.00083   1.08039
   D36        3.11505   0.00001   0.00000  -0.00098  -0.00099   3.11405
   D37        1.04815   0.00001   0.00000   0.00010   0.00011   1.04826
   D38       -1.08121  -0.00002   0.00000  -0.00082  -0.00081  -1.08202
   D39       -3.11505  -0.00001   0.00000  -0.00098  -0.00097  -3.11602
   D40       -0.99293  -0.00001   0.00000   0.00016   0.00018  -0.99275
   D41       -3.12428  -0.00001   0.00000  -0.00088  -0.00087  -3.12516
   D42        1.09938  -0.00001   0.00000  -0.00154  -0.00153   1.09785
   D43        1.13860  -0.00000   0.00000   0.00123   0.00125   1.13985
   D44       -0.99275   0.00000   0.00000   0.00019   0.00019  -0.99256
   D45       -3.05227   0.00000   0.00000  -0.00047  -0.00047  -3.05273
   D46       -3.06113   0.00000   0.00000   0.00047   0.00048  -3.06065
   D47        1.09070   0.00000   0.00000  -0.00058  -0.00057   1.09013
   D48       -0.96881   0.00000   0.00000  -0.00123  -0.00123  -0.97005
         Item               Value     Threshold  Converged?
 Maximum Force            0.000071     0.000015     NO 
 RMS     Force            0.000016     0.000010     NO 
 Maximum Displacement     0.354927     0.000060     NO 
 RMS     Displacement     0.056209     0.000040     NO 
 Predicted change in Energy=-5.882494D-04
 GradGradGradGradGradGradGradGradGradGradGradGradGradGradGradGradGradGrad

                          Input orientation:                          
 ---------------------------------------------------------------------
 Center     Atomic      Atomic             Coordinates (Angstroms)
 Number     Number       Type             X           Y           Z
 ---------------------------------------------------------------------
      1          7           0        2.444465    0.046312    0.024089
      2          6           0        1.011383    0.006942    0.352038
      3          6           0        0.285525   -1.236864   -0.181801
      4          6           0       -1.203934   -1.175849    0.161015
      5          8           0       -1.809071    0.005342   -0.348216
      6          6           0       -1.208374    1.178235    0.184467
      7          6           0        0.280696    1.254830   -0.155422
      8          1           0        2.618211    0.731586   -0.705501
      9          1           0        2.752432   -0.848746   -0.344881
     10          1           0        0.908827   -0.000468    1.449867
     11          1           0        0.402667   -1.280787   -1.272419
     12          1           0        0.728249   -2.148692    0.239542
     13          1           0       -1.336582   -1.224560    1.255790
     14          1           0       -1.748926   -2.013878   -0.281453
     15          1           0       -1.342329    1.205881    1.279608
     16          1           0       -1.755332    2.022753   -0.242918
     17          1           0        0.721506    2.159322    0.281264
     18          1           0        0.394187    1.318541   -1.246068
 ---------------------------------------------------------------------
                    Distance matrix (angstroms):
                    1          2          3          4          5
     1  N    0.000000
     2  C    1.470655   0.000000
     3  C    2.519912   1.535873   0.000000
     4  C    3.850097   2.518554   1.529619   0.000000
     5  O    4.269996   2.906083   2.440923   1.421520   0.000000
     6  C    3.827559   2.515419   2.863318   2.354205   1.421360
     7  C    2.484882   1.532529   2.491839   2.865739   2.442440
     8  H    1.015919   2.055577   3.096851   4.358664   4.500657
     9  H    1.015929   2.061346   2.502571   4.001970   4.640775
    10  H    2.096000   1.102634   2.139982   2.739785   3.258850
    11  H    2.758816   2.160472   1.097770   2.155670   2.720306
    12  H    2.794613   2.177056   1.097708   2.164699   3.379839
    13  H    4.174748   2.801125   2.167499   1.103857   2.075750
    14  H    4.682122   3.479127   2.180062   1.093200   2.021219
    15  H    4.154605   2.799608   3.279121   2.634966   2.075802
    16  H    4.649292   3.474505   3.846289   3.270819   2.020872
    17  H    2.738528   2.172965   3.455226   3.852940   3.382262
    18  H    2.726813   2.157584   2.770302   3.279613   2.717531
                    6          7          8          9         10
     6  C    0.000000
     7  C    1.529288   0.000000
     8  H    3.954023   2.457712   0.000000
     9  H    4.480720   3.251216   1.626503   0.000000
    10  H    2.733701   2.132434   2.846667   2.709165   0.000000
    11  H    3.280969   2.773430   3.046256   2.562886   3.050616
    12  H    3.849933   3.455468   3.572263   2.475627   2.472318
    13  H    2.633931   3.279403   4.828412   4.407201   2.564747
    14  H    3.270912   3.849636   5.175836   4.650138   3.756985
    15  H    1.103650   2.167007   4.455502   4.860815   2.559682
    16  H    1.093175   2.177790   4.583555   5.345638   3.749225
    17  H    2.167104   1.096865   2.570919   3.683095   2.462806
    18  H    2.152747   1.098385   2.362840   3.327250   3.045112
                   11         12         13         14         15
    11  H    0.000000
    12  H    1.773496   0.000000
    13  H    3.069200   2.479981   0.000000
    14  H    2.479675   2.534957   1.776561   0.000000
    15  H    3.967540   4.077032   2.430564   3.601261   0.000000
    16  H    4.078015   4.878719   3.600905   4.036820   1.776496
    17  H    3.788131   4.308221   4.078736   4.882139   2.482973
    18  H    2.599476   3.786864   3.965126   4.077798   3.067120
                   16         17         18
    16  H    0.000000
    17  H    2.535379   0.000000
    18  H    2.474400   1.773920   0.000000
 Stoichiometry    C5H11NO
 Framework group  C1[X(C5H11NO)]
 Deg. of freedom    48
 Full point group                 C1      NOp   1
 Largest Abelian subgroup         C1      NOp   1
 Largest concise Abelian subgroup C1      NOp   1
                         Standard orientation:                         
 ---------------------------------------------------------------------
 Center     Atomic      Atomic             Coordinates (Angstroms)
 Number     Number       Type             X           Y           Z
 ---------------------------------------------------------------------
      1          7           0       -2.445075   -0.027200    0.026209
      2          6           0       -1.011623    0.003637    0.353455
      3          6           0       -0.280405    1.247291   -0.173376
      4          6           0        1.208972    1.177397    0.168098
      5          8           0        1.808372   -0.003471   -0.348612
      6          6           0        1.202639   -1.176781    0.177409
      7          6           0       -0.286978   -1.244513   -0.161966
      8          1           0       -2.622414   -0.707275   -0.707371
      9          1           0       -2.749166    0.871460   -0.337178
     10          1           0       -0.908350    0.003980    1.451242
     11          1           0       -0.398024    1.298302   -1.263634
     12          1           0       -0.718683    2.158588    0.253724
     13          1           0        1.342524    1.218921    1.263059
     14          1           0        1.757523    2.015565   -0.269684
     15          1           0        1.337148   -1.211620    1.272277
     16          1           0        1.745454   -2.021211   -0.255397
     17          1           0       -0.731657   -2.149584    0.269567
     18          1           0       -0.401440   -1.301149   -1.252901
 ---------------------------------------------------------------------
 Rotational constants (GHZ):           4.5976761           2.2368320           1.6436242
 Standard basis: 6-31G(d,p) (6D, 7F)
 There are   160 symmetry adapted cartesian basis functions of A   symmetry.
 There are   160 symmetry adapted basis functions of A   symmetry.
   160 basis functions,   273 primitive gaussians,   160 cartesian basis functions
    28 alpha electrons       28 beta electrons
       nuclear repulsion energy       334.3628535142 Hartrees.
 NAtoms=   18 NActive=   18 NUniq=   18 SFac= 1.00D+00 NAtFMM=   60 NAOKFM=F Big=F
 Integral buffers will be    131072 words long.
 Raffenetti 2 integral format.
 Two-electron integral symmetry is turned on.
 Nuclear repulsion after empirical dispersion term =      334.3366319610 Hartrees.
 One-electron integrals computed using PRISM.
 NBasis=   160 RedAO= T EigKep=  3.24D-03  NBF=   160
 NBsUse=   160 1.00D-06 EigRej= -1.00D+00 NBFU=   160
 Initial guess from the checkpoint file:  "N5_conf-4-1.chk"
 B after Tr=     0.000000   -0.000000   -0.000000
         Rot=    1.000000   -0.000811    0.000128    0.000309 Ang=  -0.10 deg.
 ExpMin= 1.61D-01 ExpMax= 5.48D+03 ExpMxC= 8.25D+02 IAcc=3 IRadAn=         5 AccDes= 0.00D+00
 Harris functional with IExCor=  402 and IRadAn=       5 diagonalized for initial guess.
 HarFok:  IExCor=  402 AccDes= 0.00D+00 IRadAn=         5 IDoV= 1 UseB2=F ITyADJ=14
 ICtDFT=  3500011 ScaDFX=  1.000000  1.000000  1.000000  1.000000
 FoFCou: FMM=F IPFlag=           0 FMFlag=      100000 FMFlg1=           0
         NFxFlg=           0 DoJE=T BraDBF=F KetDBF=T FulRan=T
         wScrn=  0.000000 ICntrl=       500 IOpCl=  0 I1Cent=   200000004 NGrid=           0
         NMat0=    1 NMatS0=      1 NMatT0=    0 NMatD0=    1 NMtDS0=    0 NMtDT0=    0
 Petite list used in FoFCou.
 Requested convergence on RMS density matrix=1.00D-08 within 128 cycles.
 Requested convergence on MAX density matrix=1.00D-06.
 Requested convergence on             energy=1.00D-06.
 No special actions if energy rises.
 Integral accuracy reduced to 1.0D-05 until final iterations.
 Initial convergence to 1.0D-05 achieved.  Increase integral accuracy.
 SCF Done:  E(RB3LYP) =  -327.155693863     A.U. after   11 cycles
            NFock= 11  Conv=0.39D-08     -V/T= 2.0094
 Calling FoFJK, ICntrl=      2127 FMM=F ISym2X=0 I1Cent= 0 IOpClX= 0 NMat=1 NMatS=1 NMatT=0.
 ***** Axes restored to original set *****
 -------------------------------------------------------------------
 Center     Atomic                   Forces (Hartrees/Bohr)
 Number     Number              X              Y              Z
 -------------------------------------------------------------------
      1        7          -0.000630622    0.001681254    0.000603560
      2        6           0.000331784   -0.000187968   -0.000218629
      3        6           0.000057965    0.000158328   -0.000419006
      4        6           0.000029801    0.000152125   -0.000093821
      5        8          -0.000079213   -0.000013518    0.000012935
      6        6           0.000041154   -0.000105318   -0.000085307
      7        6           0.000197062    0.000408646    0.000508516
      8        1          -0.000358180   -0.000670282   -0.001114807
      9        1           0.000131340   -0.000660569    0.000942141
     10        1           0.000411399   -0.000733895   -0.000078380
     11        1          -0.000031759   -0.000061781   -0.000001009
     12        1           0.000003226    0.000024913   -0.000029053
     13        1          -0.000013442   -0.000004560    0.000019759
     14        1          -0.000017662   -0.000009662   -0.000016731
     15        1          -0.000018866    0.000003639    0.000026414
     16        1          -0.000025766    0.000013077   -0.000010325
     17        1           0.000035408   -0.000031115   -0.000057881
     18        1          -0.000063629    0.000036685    0.000011626
 -------------------------------------------------------------------
 Cartesian Forces:  Max     0.001681254 RMS     0.000394546

 GradGradGradGradGradGradGradGradGradGradGradGradGradGradGradGradGradGrad
 Berny optimization.
 Using GEDIIS/GDIIS optimizer.
 FormGI is forming the generalized inverse of G from B-inverse, IUseBI=4.
 Internal  Forces:  Max     0.000922307 RMS     0.000215738
 Search for a local minimum.
 Step number   2 out of a maximum of  108
 All quantities printed in internal units (Hartrees-Bohrs-Radians)
 Mixed Optimization -- En-DIIS/RFO-DIIS
 Swapping is turned off.
 Update second derivatives using D2CorX and points    1    2
 ITU=  0  0
     Eigenvalues ---   -0.00295   0.00514   0.00603   0.00970   0.02132
     Eigenvalues ---    0.02443   0.02661   0.03965   0.04064   0.04189
     Eigenvalues ---    0.04588   0.05044   0.05268   0.05728   0.05917
     Eigenvalues ---    0.06309   0.06339   0.06832   0.08145   0.08792
     Eigenvalues ---    0.10063   0.10511   0.10567   0.11827   0.12544
     Eigenvalues ---    0.14669   0.17518   0.18614   0.21092   0.22828
     Eigenvalues ---    0.24637   0.25680   0.26090   0.27921   0.30248
     Eigenvalues ---    0.30700   0.30990   0.32799   0.32928   0.33072
     Eigenvalues ---    0.33282   0.33448   0.33568   0.35294   0.35545
     Eigenvalues ---    0.36431   0.44913   0.45169
 Use linear search instead of GDIIS.
 RFO step:  Lambda=-3.78585192D-03 EMin=-2.95364889D-03
 Skip linear search -- no minimum in search direction.
 Iteration  1 RMS(Cart)=  0.04554293 RMS(Int)=  0.02690274
 Iteration  2 RMS(Cart)=  0.02675825 RMS(Int)=  0.00143205
 Iteration  3 RMS(Cart)=  0.00142388 RMS(Int)=  0.00004412
 Iteration  4 RMS(Cart)=  0.00000305 RMS(Int)=  0.00004406
 Iteration  5 RMS(Cart)=  0.00000000 RMS(Int)=  0.00004406
 Variable       Old X    -DE/DX   Delta X   Delta X   Delta X     New X
                                 (Linear)    (Quad)   (Total)
    R1        2.77913  -0.00092   0.00000  -0.00347  -0.00347   2.77567
    R2        1.91981   0.00029   0.00000   0.00194   0.00194   1.92175
    R3        1.91983   0.00028   0.00000   0.00189   0.00189   1.92171
    R4        2.90238   0.00002   0.00000   0.00416   0.00413   2.90651
    R5        2.89606   0.00010   0.00000  -0.00330  -0.00332   2.89274
    R6        2.08368  -0.00011   0.00000  -0.00089  -0.00089   2.08278
    R7        2.89056   0.00003   0.00000   0.00063   0.00064   2.89120
    R8        2.07448   0.00000   0.00000  -0.00045  -0.00045   2.07404
    R9        2.07437  -0.00003   0.00000   0.00061   0.00061   2.07498
   R10        2.68628  -0.00002   0.00000   0.00005   0.00007   2.68636
   R11        2.08599   0.00002   0.00000   0.00038   0.00038   2.08637
   R12        2.06585   0.00002   0.00000   0.00015   0.00015   2.06600
   R13        2.68598  -0.00001   0.00000  -0.00016  -0.00013   2.68585
   R14        2.88994   0.00002   0.00000  -0.00024  -0.00024   2.88970
   R15        2.08560   0.00003   0.00000  -0.00006  -0.00006   2.08553
   R16        2.06580   0.00003   0.00000   0.00010   0.00010   2.06590
   R17        2.07278  -0.00003   0.00000  -0.00133  -0.00133   2.07145
   R18        2.07565  -0.00002   0.00000   0.00082   0.00082   2.07647
    A1        1.92288  -0.00036   0.00000  -0.01169  -0.01172   1.91117
    A2        1.93135  -0.00032   0.00000  -0.00120  -0.00123   1.93013
    A3        1.85627   0.00017   0.00000  -0.00400  -0.00406   1.85221
    A4        1.98745  -0.00000   0.00000   0.02312   0.02315   2.01060
    A5        1.94869  -0.00001   0.00000  -0.02348  -0.02350   1.92520
    A6        1.88897  -0.00015   0.00000  -0.00538  -0.00564   1.88333
    A7        1.89547   0.00002   0.00000   0.00121   0.00129   1.89676
    A8        1.87200   0.00008   0.00000   0.00532   0.00530   1.87730
    A9        1.86587   0.00007   0.00000  -0.00108  -0.00119   1.86467
   A10        1.92836  -0.00005   0.00000   0.00043   0.00039   1.92875
   A11        1.90423   0.00007   0.00000   0.00059   0.00059   1.90481
   A12        1.92696  -0.00000   0.00000   0.00056   0.00059   1.92755
   A13        1.90515  -0.00005   0.00000   0.00080   0.00081   1.90597
   A14        1.91754   0.00007   0.00000  -0.00117  -0.00117   1.91637
   A15        1.88080  -0.00002   0.00000  -0.00123  -0.00123   1.87957
   A16        1.94699   0.00008   0.00000  -0.00102  -0.00101   1.94598
   A17        1.91508  -0.00001   0.00000   0.00016   0.00015   1.91524
   A18        1.94352  -0.00001   0.00000   0.00165   0.00164   1.94516
   A19        1.91856  -0.00003   0.00000  -0.00048  -0.00050   1.91806
   A20        1.85435  -0.00004   0.00000   0.00003   0.00003   1.85438
   A21        1.88355   0.00000   0.00000  -0.00033  -0.00032   1.88323
   A22        1.95144  -0.00004   0.00000  -0.00038  -0.00040   1.95104
   A23        1.94931   0.00004   0.00000   0.00169   0.00170   1.95101
   A24        1.91905  -0.00002   0.00000  -0.00001  -0.00003   1.91902
   A25        1.85409  -0.00003   0.00000  -0.00027  -0.00026   1.85383
   A26        1.91502   0.00000   0.00000   0.00004   0.00004   1.91506
   A27        1.94078   0.00000   0.00000  -0.00140  -0.00141   1.93937
   A28        1.88374  -0.00000   0.00000  -0.00011  -0.00011   1.88363
   A29        1.92823  -0.00004   0.00000   0.00030   0.00026   1.92849
   A30        1.92625  -0.00002   0.00000  -0.00064  -0.00063   1.92563
   A31        1.90367   0.00006   0.00000  -0.00001  -0.00001   1.90366
   A32        1.92211   0.00007   0.00000   0.00426   0.00427   1.92638
   A33        1.90096  -0.00006   0.00000  -0.00386  -0.00385   1.89711
   A34        1.88174  -0.00002   0.00000  -0.00015  -0.00015   1.88159
    D1        1.85164  -0.00082   0.00000  -0.31717  -0.31723   1.53441
    D2       -0.30273  -0.00084   0.00000  -0.31793  -0.31777  -0.62050
    D3       -2.35172  -0.00082   0.00000  -0.29975  -0.29980  -2.65152
    D4       -0.19620  -0.00061   0.00000  -0.30434  -0.30443  -0.50064
    D5       -2.35058  -0.00063   0.00000  -0.30510  -0.30497  -2.65554
    D6        1.88363  -0.00061   0.00000  -0.28692  -0.28700   1.59662
    D7       -3.10820   0.00001   0.00000   0.01543   0.01546  -3.09275
    D8       -1.01364  -0.00004   0.00000   0.01705   0.01707  -0.99657
    D9        1.05021  -0.00003   0.00000   0.01624   0.01627   1.06648
   D10       -0.92519   0.00002   0.00000   0.00230   0.00233  -0.92286
   D11        1.16938  -0.00004   0.00000   0.00392   0.00394   1.17332
   D12       -3.04996  -0.00003   0.00000   0.00311   0.00314  -3.04682
   D13        1.08553   0.00015   0.00000   0.00440   0.00434   1.08987
   D14       -3.10309   0.00009   0.00000   0.00602   0.00596  -3.09714
   D15       -1.03924   0.00010   0.00000   0.00521   0.00516  -1.03408
   D16        3.12957   0.00001   0.00000   0.01033   0.01031   3.13988
   D17       -1.02365   0.00006   0.00000   0.01546   0.01545  -1.00820
   D18        1.04059   0.00007   0.00000   0.01490   0.01489   1.05548
   D19        0.92394   0.00000   0.00000  -0.00370  -0.00372   0.92022
   D20        3.05391   0.00006   0.00000   0.00143   0.00142   3.05533
   D21       -1.16503   0.00006   0.00000   0.00087   0.00086  -1.16417
   D22       -1.09075  -0.00013   0.00000  -0.00994  -0.00993  -1.10068
   D23        1.03921  -0.00008   0.00000  -0.00481  -0.00479   1.03443
   D24        3.10346  -0.00008   0.00000  -0.00538  -0.00535   3.09811
   D25        0.99307   0.00001   0.00000  -0.00100  -0.00103   0.99204
   D26       -1.13738  -0.00000   0.00000   0.00019   0.00017  -1.13721
   D27        3.06159   0.00001   0.00000  -0.00055  -0.00057   3.06102
   D28       -1.10093  -0.00001   0.00000  -0.00250  -0.00251  -1.10344
   D29        3.05180  -0.00002   0.00000  -0.00131  -0.00131   3.05049
   D30        0.96758  -0.00001   0.00000  -0.00205  -0.00204   0.96554
   D31        3.12339   0.00001   0.00000  -0.00079  -0.00081   3.12258
   D32        0.99294   0.00000   0.00000   0.00040   0.00039   0.99333
   D33       -1.09128   0.00001   0.00000  -0.00034  -0.00034  -1.09162
   D34       -1.04806  -0.00001   0.00000  -0.00077  -0.00078  -1.04884
   D35        1.08039   0.00002   0.00000  -0.00160  -0.00161   1.07878
   D36        3.11405  -0.00001   0.00000  -0.00221  -0.00222   3.11183
   D37        1.04826  -0.00000   0.00000   0.00104   0.00106   1.04932
   D38       -1.08202  -0.00002   0.00000  -0.00014  -0.00013  -1.08215
   D39       -3.11602   0.00001   0.00000   0.00015   0.00016  -3.11586
   D40       -0.99275  -0.00001   0.00000   0.00132   0.00135  -0.99141
   D41       -3.12516  -0.00001   0.00000  -0.00093  -0.00092  -3.12607
   D42        1.09785   0.00001   0.00000  -0.00093  -0.00092   1.09694
   D43        1.13985  -0.00000   0.00000   0.00247   0.00249   1.14233
   D44       -0.99256  -0.00000   0.00000   0.00022   0.00022  -0.99233
   D45       -3.05273   0.00001   0.00000   0.00022   0.00023  -3.05251
   D46       -3.06065  -0.00001   0.00000   0.00147   0.00149  -3.05916
   D47        1.09013  -0.00001   0.00000  -0.00077  -0.00077   1.08935
   D48       -0.97005   0.00001   0.00000  -0.00077  -0.00077  -0.97082
         Item               Value     Threshold  Converged?
 Maximum Force            0.000922     0.000015     NO 
 RMS     Force            0.000216     0.000010     NO 
 Maximum Displacement     0.446847     0.000060     NO 
 RMS     Displacement     0.070288     0.000040     NO 
 Predicted change in Energy=-2.164629D-03
 GradGradGradGradGradGradGradGradGradGradGradGradGradGradGradGradGradGrad

                          Input orientation:                          
 ---------------------------------------------------------------------
 Center     Atomic      Atomic             Coordinates (Angstroms)
 Number     Number       Type             X           Y           Z
 ---------------------------------------------------------------------
      1          7           0        2.439583    0.101798    0.007363
      2          6           0        1.012003    0.015125    0.341936
      3          6           0        0.285936   -1.226486   -0.202908
      4          6           0       -1.202409   -1.173947    0.147571
      5          8           0       -1.812027    0.012032   -0.345023
      6          6           0       -1.211794    1.179311    0.200181
      7          6           0        0.275633    1.266137   -0.143852
      8          1           0        2.550491    0.570045   -0.888527
      9          1           0        2.836781   -0.827163   -0.108419
     10          1           0        0.921786   -0.002136    1.440264
     11          1           0        0.398917   -1.259437   -1.294113
     12          1           0        0.732382   -2.142278    0.206585
     13          1           0       -1.329957   -1.235091    1.242531
     14          1           0       -1.748549   -2.007839   -0.301449
     15          1           0       -1.342069    1.193013    1.295996
     16          1           0       -1.762214    2.027871   -0.214708
     17          1           0        0.718230    2.165187    0.300432
     18          1           0        0.380877    1.343756   -1.234862
 ---------------------------------------------------------------------
                    Distance matrix (angstroms):
                    1          2          3          4          5
     1  N    0.000000
     2  C    1.468821   0.000000
     3  C    2.539045   1.538059   0.000000
     4  C    3.861514   2.520970   1.529956   0.000000
     5  O    4.267133   2.906385   2.440405   1.421560   0.000000
     6  C    3.811925   2.514100   2.862435   2.353865   1.421291
     7  C    2.461957   1.530773   2.493344   2.867673   2.443681
     8  H    1.016944   2.046686   2.970827   4.266060   4.431517
     9  H    1.016927   2.059631   2.583641   4.062123   4.729868
    10  H    2.089908   1.102162   2.145543   2.748891   3.265148
    11  H    2.776891   2.162647   1.097533   2.156386   2.721338
    12  H    2.826677   2.179654   1.098031   2.164384   3.379252
    13  H    4.185970   2.803371   2.168058   1.104058   2.075581
    14  H    4.699615   3.482381   2.181594   1.093281   2.021338
    15  H    4.141523   2.799876   3.278885   2.634556   2.075698
    16  H    4.627544   3.472359   3.845243   3.270515   2.020660
    17  H    2.703057   2.170436   3.455962   3.855131   3.384508
    18  H    2.706262   2.156357   2.771297   3.279747   2.715535
                    6          7          8          9         10
     6  C    0.000000
     7  C    1.529162   0.000000
     8  H    3.963746   2.492803   0.000000
     9  H    4.529032   3.307966   1.625645   0.000000
    10  H    2.736017   2.129660   2.898852   2.597363   0.000000
    11  H    3.282498   2.777918   2.853205   2.745162   3.054671
    12  H    3.848742   3.456692   3.444051   2.501450   2.477508
    13  H    2.632450   3.279652   4.780983   4.399224   2.574805
    14  H    3.270728   3.852411   5.046969   4.738830   3.766577
    15  H    1.103617   2.166903   4.506912   4.849358   2.564026
    16  H    1.093228   2.176712   4.602033   5.414173   3.750161
    17  H    2.169561   1.096162   2.704678   3.689115   2.457222
    18  H    2.150114   1.098819   2.329336   3.466010   3.043075
                   11         12         13         14         15
    11  H    0.000000
    12  H    1.772767   0.000000
    13  H    3.069879   2.479800   0.000000
    14  H    2.481349   2.535979   1.776579   0.000000
    15  H    3.969156   4.076067   2.428723   3.600348   0.000000
    16  H    4.079460   4.877564   3.599627   4.036665   1.776439
    17  H    3.791119   4.308510   4.079769   4.884814   2.486183
    18  H    2.603930   3.788635   3.964199   4.079081   3.065372
                   16         17         18
    16  H    0.000000
    17  H    2.537090   0.000000
    18  H    2.470134   1.773607   0.000000
 Stoichiometry    C5H11NO
 Framework group  C1[X(C5H11NO)]
 Deg. of freedom    48
 Full point group                 C1      NOp   1
 Largest Abelian subgroup         C1      NOp   1
 Largest concise Abelian subgroup C1      NOp   1
                         Standard orientation:                         
 ---------------------------------------------------------------------
 Center     Atomic      Atomic             Coordinates (Angstroms)
 Number     Number       Type             X           Y           Z
 ---------------------------------------------------------------------
      1          7           0       -2.442198   -0.058551    0.015827
      2          6           0       -1.013015    0.008076    0.348142
      3          6           0       -0.275174    1.250083   -0.179717
      4          6           0        1.213340    1.176642    0.166253
      5          8           0        1.809297   -0.008097   -0.345664
      6          6           0        1.198067   -1.177111    0.183365
      7          6           0       -0.290983   -1.243119   -0.158263
      8          1           0       -2.560100   -0.512029   -0.886743
      9          1           0       -2.829858    0.876169   -0.084959
     10          1           0       -0.920083    0.007804    1.446379
     11          1           0       -0.390323    1.300688   -1.270019
     12          1           0       -0.711004    2.164222    0.244633
     13          1           0        1.344055    1.219906    1.261692
     14          1           0        1.767192    2.011441   -0.271495
     15          1           0        1.330721   -1.208721    1.278524
     16          1           0        1.738560   -2.025040   -0.245624
     17          1           0       -0.741996   -2.144080    0.273511
     18          1           0       -0.399559   -1.303149   -1.250056
 ---------------------------------------------------------------------
 Rotational constants (GHZ):           4.5986564           2.2352807           1.6444157
 Standard basis: 6-31G(d,p) (6D, 7F)
 There are   160 symmetry adapted cartesian basis functions of A   symmetry.
 There are   160 symmetry adapted basis functions of A   symmetry.
   160 basis functions,   273 primitive gaussians,   160 cartesian basis functions
    28 alpha electrons       28 beta electrons
       nuclear repulsion energy       334.3406704065 Hartrees.
 NAtoms=   18 NActive=   18 NUniq=   18 SFac= 1.00D+00 NAtFMM=   60 NAOKFM=F Big=F
 Integral buffers will be    131072 words long.
 Raffenetti 2 integral format.
 Two-electron integral symmetry is turned on.
 Nuclear repulsion after empirical dispersion term =      334.3144608961 Hartrees.
 One-electron integrals computed using PRISM.
 NBasis=   160 RedAO= T EigKep=  3.28D-03  NBF=   160
 NBsUse=   160 1.00D-06 EigRej= -1.00D+00 NBFU=   160
 Initial guess from the checkpoint file:  "N5_conf-4-1.chk"
 B after Tr=     0.000000    0.000000    0.000000
         Rot=    0.999998   -0.001799    0.000590    0.000626 Ang=  -0.23 deg.
 ExpMin= 1.61D-01 ExpMax= 5.48D+03 ExpMxC= 8.25D+02 IAcc=3 IRadAn=         5 AccDes= 0.00D+00
 Harris functional with IExCor=  402 and IRadAn=       5 diagonalized for initial guess.
 HarFok:  IExCor=  402 AccDes= 0.00D+00 IRadAn=         5 IDoV= 1 UseB2=F ITyADJ=14
 ICtDFT=  3500011 ScaDFX=  1.000000  1.000000  1.000000  1.000000
 FoFCou: FMM=F IPFlag=           0 FMFlag=      100000 FMFlg1=           0
         NFxFlg=           0 DoJE=T BraDBF=F KetDBF=T FulRan=T
         wScrn=  0.000000 ICntrl=       500 IOpCl=  0 I1Cent=   200000004 NGrid=           0
         NMat0=    1 NMatS0=      1 NMatT0=    0 NMatD0=    1 NMtDS0=    0 NMtDT0=    0
 Petite list used in FoFCou.
 Requested convergence on RMS density matrix=1.00D-08 within 128 cycles.
 Requested convergence on MAX density matrix=1.00D-06.
 Requested convergence on             energy=1.00D-06.
 No special actions if energy rises.
 Integral accuracy reduced to 1.0D-05 until final iterations.
 Initial convergence to 1.0D-05 achieved.  Increase integral accuracy.
 SCF Done:  E(RB3LYP) =  -327.157451777     A.U. after   11 cycles
            NFock= 11  Conv=0.46D-08     -V/T= 2.0094
 Calling FoFJK, ICntrl=      2127 FMM=F ISym2X=0 I1Cent= 0 IOpClX= 0 NMat=1 NMatS=1 NMatT=0.
 ***** Axes restored to original set *****
 -------------------------------------------------------------------
 Center     Atomic                   Forces (Hartrees/Bohr)
 Number     Number              X              Y              Z
 -------------------------------------------------------------------
      1        7          -0.001497991    0.001809522    0.000285337
      2        6           0.000797569    0.000470626    0.000037308
      3        6           0.000548983    0.000079605   -0.000276253
      4        6          -0.000032068    0.000419191   -0.000260383
      5        8          -0.000136274   -0.000160744    0.000025240
      6        6           0.000003287    0.000127605   -0.000266990
      7        6          -0.000265328    0.000624121    0.000511501
      8        1          -0.000391436   -0.001380011   -0.001359014
      9        1           0.000111537   -0.000595647    0.001642443
     10        1           0.000948399   -0.001388076   -0.000210534
     11        1          -0.000043459   -0.000094424   -0.000094040
     12        1           0.000020732    0.000087810   -0.000114213
     13        1           0.000033208   -0.000033281    0.000011660
     14        1           0.000013276   -0.000015014   -0.000017201
     15        1          -0.000021878   -0.000012725    0.000079313
     16        1          -0.000112764   -0.000000680    0.000037733
     17        1           0.000050979   -0.000126719   -0.000087313
     18        1          -0.000026772    0.000188841    0.000055405
 -------------------------------------------------------------------
 Cartesian Forces:  Max     0.001809522 RMS     0.000575940

 GradGradGradGradGradGradGradGradGradGradGradGradGradGradGradGradGradGrad
 Berny optimization.
 Using GEDIIS/GDIIS optimizer.
 FormGI is forming the generalized inverse of G from B-inverse, IUseBI=4.
 Internal  Forces:  Max     0.001867385 RMS     0.000381737
 Search for a local minimum.
 Step number   3 out of a maximum of  108
 All quantities printed in internal units (Hartrees-Bohrs-Radians)
 Mixed Optimization -- En-DIIS/RFO-DIIS
 Update second derivatives using D2CorX and points    2    3
 DE= -1.76D-03 DEPred=-2.16D-03 R= 8.12D-01
 TightC=F SS=  1.41D+00  RLast= 7.50D-01 DXNew= 5.0454D-01 2.2503D+00
 Trust test= 8.12D-01 RLast= 7.50D-01 DXMaxT set to 5.05D-01
 ITU=  1  0  0
 Use linear search instead of GDIIS.
     Eigenvalues ---   -0.00106   0.00514   0.00601   0.00969   0.02130
     Eigenvalues ---    0.02443   0.02659   0.03965   0.04063   0.04188
     Eigenvalues ---    0.04588   0.05044   0.05216   0.05722   0.05917
     Eigenvalues ---    0.06309   0.06337   0.06832   0.08145   0.08790
     Eigenvalues ---    0.10061   0.10511   0.10567   0.11827   0.12447
     Eigenvalues ---    0.14668   0.17499   0.18599   0.21064   0.22821
     Eigenvalues ---    0.24624   0.25658   0.25964   0.27920   0.30237
     Eigenvalues ---    0.30692   0.30989   0.32799   0.32925   0.33070
     Eigenvalues ---    0.33277   0.33448   0.33566   0.35248   0.35544
     Eigenvalues ---    0.36383   0.44911   0.45169
 RFO step:  Lambda=-3.18564838D-03 EMin=-1.05783409D-03
 Skip linear search -- no minimum in search direction.
 Iteration  1 RMS(Cart)=  0.04585209 RMS(Int)=  0.05175614
 Iteration  2 RMS(Cart)=  0.04864216 RMS(Int)=  0.00586733
 Iteration  3 RMS(Cart)=  0.00567232 RMS(Int)=  0.00009653
 Iteration  4 RMS(Cart)=  0.00006290 RMS(Int)=  0.00006771
 Iteration  5 RMS(Cart)=  0.00000002 RMS(Int)=  0.00006771
 Variable       Old X    -DE/DX   Delta X   Delta X   Delta X     New X
                                 (Linear)    (Quad)   (Total)
    R1        2.77567  -0.00187   0.00000  -0.01038  -0.01038   2.76529
    R2        1.92175   0.00052   0.00000   0.00529   0.00529   1.92703
    R3        1.92171   0.00040   0.00000   0.00426   0.00426   1.92597
    R4        2.90651  -0.00024   0.00000   0.00514   0.00512   2.91163
    R5        2.89274   0.00068   0.00000  -0.00062  -0.00064   2.89210
    R6        2.08278  -0.00027   0.00000  -0.00290  -0.00290   2.07988
[...]
      3 vectors produced by pass  5 Test12= 2.38D-13 3.33D-08 XBig12= 1.85D-10 2.52D-06.
      3 vectors produced by pass  6 Test12= 2.38D-13 3.33D-08 XBig12= 1.55D-12 1.79D-07.
 InvSVY:  IOpt=1 It=  1 EMax= 4.44D-16
 Solved reduced A of dimension    21 with     3 vectors.
 Calculating GIAO nuclear magnetic shielding tensors.
 SCF GIAO Magnetic shielding tensor (ppm):
      1  N    Isotropic =   203.7325   Anisotropy =    55.3922
   XX=   239.3308   YX=    -6.9013   ZX=     4.6116
   XY=    -1.1496   YY=   183.3667   ZY=    10.1660
   XZ=    11.2634   YZ=     8.5001   ZZ=   188.5001
   Eigenvalues:   175.2404   195.2965   240.6607
      2  C    Isotropic =   132.5376   Anisotropy =    37.0766
   XX=   145.3037   YX=     1.8380   ZX=    11.6964
   XY=     2.1171   YY=   121.2840   ZY=    -3.9046
   XZ=    23.6972   YZ=    -3.8938   ZZ=   131.0253
   Eigenvalues:   115.7044   124.6531   157.2554
      3  C    Isotropic =   140.0308   Anisotropy =    27.0600
   XX=   148.3315   YX=     7.5614   ZX=     8.2207
   XY=    20.1647   YY=   138.1370   ZY=    -5.1415
   XZ=    -4.3187   YZ=     3.9824   ZZ=   133.6237
   Eigenvalues:   128.0083   134.0132   158.0708
      4  C    Isotropic =   115.1961   Anisotropy =    67.8405
   XX=   103.0362   YX=   -25.9574   ZX=    -4.0240
   XY=   -21.5488   YY=   141.0566   ZY=    24.7099
   XZ=    -6.5450   YZ=    18.1266   ZZ=   101.4954
   Eigenvalues:    88.2312    96.9340   160.4231
      5  O    Isotropic =   284.8156   Anisotropy =    69.7017
   XX=   285.9253   YX=     0.1619   ZX=     0.4792
   XY=     0.4591   YY=   237.3265   ZY=     0.4431
   XZ=    -3.3637   YZ=     3.5751   ZZ=   331.1950
   Eigenvalues:   237.2811   285.8823   331.2834
      6  C    Isotropic =   113.9790   Anisotropy =    66.5878
   XX=   101.8187   YX=    24.6612   ZX=    -3.7455
   XY=    20.5402   YY=   138.9911   ZY=   -25.8529
   XZ=    -6.6129   YZ=   -18.4809   ZZ=   101.1272
   Eigenvalues:    87.2735    96.2926   158.3708
      7  C    Isotropic =   146.8239   Anisotropy =    17.8196
   XX=   152.8202   YX=    -3.8936   ZX=     8.3831
   XY=   -12.8306   YY=   144.9720   ZY=     1.6290
   XZ=    -4.5553   YZ=    -6.8551   ZZ=   142.6796
   Eigenvalues:   139.1961   142.5721   158.7037
      8  H    Isotropic =    31.9522   Anisotropy =    11.3893
   XX=    32.0150   YX=    -0.5668   ZX=     4.8606
   XY=    -1.1532   YY=    26.5795   ZY=     0.5835
   XZ=     3.4052   YZ=     1.2283   ZZ=    37.2621
   Eigenvalues:    26.1721    30.1393    39.5451
      9  H    Isotropic =    31.2361   Anisotropy =    13.6233
   XX=    35.0399   YX=    -6.8614   ZX=    -2.6848
   XY=    -5.1950   YY=    31.0707   ZY=     4.1456
   XZ=    -0.7776   YZ=     2.6183   ZZ=    27.5977
   Eigenvalues:    25.0290    28.3610    40.3183
     10  H    Isotropic =    29.4798   Anisotropy =     5.7053
   XX=    29.5697   YX=     0.2509   ZX=    -0.0293
   XY=     0.4272   YY=    25.6068   ZY=    -0.4593
   XZ=    -0.3289   YZ=    -0.1069   ZZ=    33.2630
   Eigenvalues:    25.5688    29.5874    33.2834
     11  H    Isotropic =    30.7918   Anisotropy =     5.9613
   XX=    29.9392   YX=     0.5121   ZX=     1.1162
   XY=    -0.5764   YY=    29.8719   ZY=    -3.4704
   XZ=     0.1798   YZ=    -2.9549   ZZ=    32.5643
   Eigenvalues:    27.6849    29.9245    34.7660
     12  H    Isotropic =    30.4346   Anisotropy =     6.9583
   XX=    29.7132   YX=    -1.1216   ZX=    -0.7355
   XY=    -2.4450   YY=    34.0013   ZY=     1.3045
   XZ=    -0.5817   YZ=     2.0228   ZZ=    27.5892
   Eigenvalues:    27.1604    29.0699    35.0734
     13  H    Isotropic =    28.7248   Anisotropy =     7.6868
   XX=    28.6156   YX=     0.3509   ZX=     2.0807
   XY=    -0.1192   YY=    28.1243   ZY=     5.6829
   XZ=     2.5810   YZ=     3.0057   ZZ=    29.4344
   Eigenvalues:    23.9127    28.4123    33.8493
     14  H    Isotropic =    28.0574   Anisotropy =     7.9136
   XX=    28.4487   YX=     1.5769   ZX=    -0.6288
   XY=     3.1879   YY=    32.1343   ZY=    -0.7186
   XZ=    -0.9753   YZ=     0.3115   ZZ=    23.5893
   Eigenvalues:    23.4562    27.3830    33.3331
     15  H    Isotropic =    28.6834   Anisotropy =     7.7166
   XX=    28.5745   YX=    -0.3682   ZX=     2.1922
   XY=     0.2474   YY=    27.9525   ZY=    -5.5893
   XZ=     2.7290   YZ=    -2.9604   ZZ=    29.5232
   Eigenvalues:    23.8507    28.3717    33.8278
     16  H    Isotropic =    27.9774   Anisotropy =     7.8212
   XX=    28.5022   YX=    -1.6896   ZX=    -0.5987
   XY=    -3.1549   YY=    31.9156   ZY=     0.5948
   XZ=    -0.9421   YZ=    -0.4188   ZZ=    23.5145
   Eigenvalues:    23.3881    27.3527    33.1915
     17  H    Isotropic =    30.1910   Anisotropy =     8.0289
   XX=    29.2403   YX=     1.5371   ZX=    -0.8514
   XY=     2.6116   YY=    34.1191   ZY=    -1.8199
   XZ=    -0.9339   YZ=    -2.5266   ZZ=    27.2137
   Eigenvalues:    26.5483    28.4812    35.5436
     18  H    Isotropic =    30.8691   Anisotropy =     6.4480
   XX=    29.8715   YX=    -0.6491   ZX=     1.3333
   XY=     0.0402   YY=    29.7174   ZY=     3.5898
   XZ=     0.0350   YZ=     3.1814   ZZ=    33.0183
   Eigenvalues:    27.4413    29.9981    35.1677
 End of Minotr F.D. properties file   721 does not exist.
 End of Minotr F.D. properties file   722 does not exist.
 End of Minotr F.D. properties file   788 does not exist.

 **********************************************************************

            Population analysis using the SCF Density.

 **********************************************************************

 Orbital symmetries:
       Occupied  (A) (A) (A) (A) (A) (A) (A) (A) (A) (A) (A) (A)
                 (A) (A) (A) (A) (A) (A) (A) (A) (A) (A) (A) (A)
                 (A) (A) (A) (A)
       Virtual   (A) (A) (A) (A) (A) (A) (A) (A) (A) (A) (A) (A)
                 (A) (A) (A) (A) (A) (A) (A) (A) (A) (A) (A) (A)
                 (A) (A) (A) (A) (A) (A) (A) (A) (A) (A) (A) (A)
                 (A) (A) (A) (A) (A) (A) (A) (A) (A) (A) (A) (A)
                 (A) (A) (A) (A) (A) (A) (A) (A) (A) (A) (A) (A)
                 (A) (A) (A) (A) (A) (A) (A) (A) (A) (A) (A) (A)
                 (A) (A) (A) (A) (A) (A) (A) (A) (A) (A) (A) (A)
                 (A) (A) (A) (A) (A) (A) (A) (A) (A) (A) (A) (A)
                 (A) (A) (A) (A) (A) (A) (A) (A) (A) (A) (A) (A)
                 (A) (A) (A) (A) (A) (A) (A) (A) (A) (A) (A) (A)
                 (A) (A) (A) (A) (A) (A) (A) (A) (A) (A) (A) (A)
                 (A) (A) (A) (A) (A) (A) (A) (A) (A) (A) (A) (A)
                 (A) (A) (A) (A) (A) (A) (A) (A) (A) (A) (A) (A)
                 (A) (A) (A) (A) (A) (A) (A) (A) (A) (A) (A) (A)
                 (A) (A) (A) (A) (A) (A) (A) (A) (A) (A) (A) (A)
                 (A) (A) (A) (A) (A) (A) (A) (A) (A) (A) (A) (A)
                 (A) (A) (A) (A) (A) (A) (A) (A) (A) (A) (A) (A)
                 (A) (A) (A) (A) (A) (A) (A) (A) (A) (A) (A) (A)
                 (A) (A) (A) (A) (A) (A) (A) (A) (A) (A) (A) (A)
                 (A) (A) (A) (A) (A) (A) (A) (A) (A) (A) (A) (A)
                 (A) (A) (A) (A) (A) (A) (A) (A) (A) (A) (A) (A)
                 (A) (A) (A)
 The electronic state is 1-A.
 Alpha  occ. eigenvalues --  -19.62428 -14.72859 -10.58207 -10.58053 -10.56723
 Alpha  occ. eigenvalues --  -10.53312 -10.53060  -1.15525  -0.99687  -0.86826
 Alpha  occ. eigenvalues --   -0.86008  -0.72623  -0.71493  -0.65224  -0.57262
 Alpha  occ. eigenvalues --   -0.56089  -0.54358  -0.52685  -0.50072  -0.49077
 Alpha  occ. eigenvalues --   -0.46670  -0.45100  -0.41705  -0.40382  -0.39318
 Alpha  occ. eigenvalues --   -0.37043  -0.32943  -0.30792
 Alpha virt. eigenvalues --    0.06312   0.07428   0.09047   0.09893   0.12357
 Alpha virt. eigenvalues --    0.12829   0.14190   0.14296   0.15158   0.15347
 Alpha virt. eigenvalues --    0.16412   0.17180   0.18519   0.22385   0.22787
 Alpha virt. eigenvalues --    0.23500   0.24198   0.25531   0.27209   0.27880
 Alpha virt. eigenvalues --    0.30826   0.32098   0.33165   0.35367   0.35983
 Alpha virt. eigenvalues --    0.38121   0.38597   0.39810   0.40313   0.41523
 Alpha virt. eigenvalues --    0.42158   0.43909   0.44667   0.46273   0.46402
 Alpha virt. eigenvalues --    0.47336   0.47871   0.48755   0.49102   0.50465
 Alpha virt. eigenvalues --    0.51070   0.52447   0.53088   0.55384   0.56257
 Alpha virt. eigenvalues --    0.58047   0.59640   0.60976   0.62888   0.66240
 Alpha virt. eigenvalues --    0.70081   0.72176   0.73491   0.74825   0.78396
 Alpha virt. eigenvalues --    0.78472   0.80447   0.81502   0.84426   0.89314
 Alpha virt. eigenvalues --    0.90065   0.90912   0.93477   0.96361   0.97002
 Alpha virt. eigenvalues --    1.00151   1.00803   1.02755   1.06864   1.08710
 Alpha virt. eigenvalues --    1.12714   1.13503   1.15487   1.18482   1.19802
 Alpha virt. eigenvalues --    1.20591   1.23475   1.23837   1.27101   1.29970
 Alpha virt. eigenvalues --    1.33477   1.38188   1.39232   1.41392   1.45244
 Alpha virt. eigenvalues --    1.46756   1.51161   1.52397   1.56295   1.58361
 Alpha virt. eigenvalues --    1.60607   1.61044   1.63155   1.64378   1.64593
 Alpha virt. eigenvalues --    1.65350   1.70116   1.73249   1.74017   1.75766
 Alpha virt. eigenvalues --    1.76740   1.78791   1.82918   1.84918   1.87381
 Alpha virt. eigenvalues --    1.88643   1.90560   1.92245   1.93848   1.96261
 Alpha virt. eigenvalues --    1.98307   1.99873   2.01483   2.02913   2.04535
 Alpha virt. eigenvalues --    2.07820   2.08518   2.12797   2.13745   2.15126
 Alpha virt. eigenvalues --    2.15638   2.21009   2.25491   2.31026   2.31751
 Alpha virt. eigenvalues --    2.32164   2.37183   2.39473   2.41959   2.42069
 Alpha virt. eigenvalues --    2.44236   2.45515   2.47955   2.49142   2.52223
 Alpha virt. eigenvalues --    2.53288   2.54470   2.56752   2.57729   2.58729
 Alpha virt. eigenvalues --    2.59411   2.60415   2.63738   2.65942   2.66456
 Alpha virt. eigenvalues --    2.67651   2.68278   2.69932   2.73034   2.74099
 Alpha virt. eigenvalues --    2.74615   2.77306   2.77865   2.81014   2.83789
 Alpha virt. eigenvalues --    2.89398   2.92788   2.93630   2.96651   3.00232
 Alpha virt. eigenvalues --    3.03496   3.06034   3.08891   3.10133   3.13081
 Alpha virt. eigenvalues --    3.14301   3.15802   3.16734   3.18023   3.20526
 Alpha virt. eigenvalues --    3.22314   3.23109   3.25032   3.28751   3.29666
 Alpha virt. eigenvalues --    3.31623   3.34887   3.35316   3.39171   3.40863
 Alpha virt. eigenvalues --    3.43125   3.44591   3.45534   3.48359   3.51099
 Alpha virt. eigenvalues --    3.52545   3.53631   3.55534   3.58164   3.60932
 Alpha virt. eigenvalues --    3.63351   3.64656   3.65408   3.73047   3.74519
 Alpha virt. eigenvalues --    3.76410   3.78956   3.82191   3.90507   3.95110
 Alpha virt. eigenvalues --    3.96001   4.00123   4.00653   4.03304   4.05382
 Alpha virt. eigenvalues --    4.05417   4.10444   4.16392   4.21420   4.24332
 Alpha virt. eigenvalues --    4.25406   4.30794   4.31451   4.34474   4.44058
 Alpha virt. eigenvalues --    4.44627   4.52428   4.54441   4.58027   4.59375
 Alpha virt. eigenvalues --    4.65582   4.68783   4.75246   4.80145   4.81739
 Alpha virt. eigenvalues --    4.85240   4.87080   4.89091   4.93319   4.97632
 Alpha virt. eigenvalues --    5.11092   5.21503   5.23859   5.30663   5.39296
 Alpha virt. eigenvalues --    5.44800   5.53555   5.75937   5.77342   5.84870
 Alpha virt. eigenvalues --    5.85701   6.14799   6.15479   6.71118   6.75036
 Alpha virt. eigenvalues --    6.88986   7.18931   7.22742  22.48015  22.55370
 Alpha virt. eigenvalues --   22.59347  22.69052  22.70046  32.13691  44.26337
          Condensed to atoms (all electrons):
               1          2          3          4          5          6
     1  N    6.654632   0.242028  -0.088751   0.022890  -0.000325   0.003667
     2  C    0.242028   5.253823   0.303046  -0.058902  -0.015136  -0.038901
     3  C   -0.088751   0.303046   5.438110   0.134408  -0.040682   0.036793
     4  C    0.022890  -0.058902   0.134408   5.040075   0.249749  -0.109267
     5  O   -0.000325  -0.015136  -0.040682   0.249749   8.057560   0.239550
     6  C    0.003667  -0.038901   0.036793  -0.109267   0.239550   5.009771
     7  C   -0.037434   0.223813  -0.064629   0.019216  -0.036197   0.197305
     8  H    0.368126  -0.031196  -0.012233   0.000918  -0.000004  -0.000248
     9  H    0.380234  -0.074989   0.004120   0.001918   0.000071  -0.001528
    10  H   -0.022260   0.440468  -0.093788   0.013953  -0.001508  -0.006510
    11  H    0.004283  -0.035370   0.382326  -0.024253   0.001832   0.000272
    12  H    0.001738  -0.064339   0.407378  -0.021897   0.005385  -0.000574
    13  H   -0.000081  -0.013725  -0.086908   0.453677  -0.046151  -0.005380
    14  H   -0.000677   0.010848  -0.034648   0.403793  -0.033869   0.010880
    15  H    0.000178  -0.013466  -0.006148  -0.003899  -0.046021   0.451374
    16  H   -0.000316   0.011582  -0.002723   0.008904  -0.033323   0.414694
    17  H    0.003087  -0.053691   0.011676  -0.001194   0.005002  -0.026112
    18  H   -0.003328  -0.026474  -0.022289   0.005744   0.002239  -0.040389
               7          8          9         10         11         12
     1  N   -0.037434   0.368126   0.380234  -0.022260   0.004283   0.001738
     2  C    0.223813  -0.031196  -0.074989   0.440468  -0.035370  -0.064339
     3  C   -0.064629  -0.012233   0.004120  -0.093788   0.382326   0.407378
     4  C    0.019216   0.000918   0.001918   0.013953  -0.024253  -0.021897
     5  O   -0.036197  -0.000004   0.000071  -0.001508   0.001832   0.005385
     6  C    0.197305  -0.000248  -0.001528  -0.006510   0.000272  -0.000574
     7  C    5.341187  -0.023570   0.015154  -0.049967  -0.011054   0.011020
     8  H   -0.023570   0.486012  -0.035454   0.010234   0.006798  -0.000533
     9  H    0.015154  -0.035454   0.491116  -0.008187  -0.000326   0.005245
    10  H   -0.049967   0.010234  -0.008187   0.566982   0.009204  -0.004789
    11  H   -0.011054   0.006798  -0.000326   0.009204   0.543281  -0.018514
    12  H    0.011020  -0.000533   0.005245  -0.004789  -0.018514   0.544703
    13  H   -0.004367  -0.000011   0.000043   0.003114   0.007951   0.004151
    14  H   -0.003653  -0.000023  -0.000030  -0.000740  -0.008060  -0.003844
    15  H   -0.085936  -0.000027   0.000053   0.004108   0.000601   0.000385
    16  H   -0.045956  -0.000017   0.000034  -0.000573  -0.000183   0.000158
    17  H    0.413311  -0.000398  -0.000239  -0.006326  -0.000282  -0.000108
    18  H    0.403784   0.005484  -0.000368   0.007943   0.005419  -0.000038
              13         14         15         16         17         18
     1  N   -0.000081  -0.000677   0.000178  -0.000316   0.003087  -0.003328
     2  C   -0.013725   0.010848  -0.013466   0.011582  -0.053691  -0.026474
     3  C   -0.086908  -0.034648  -0.006148  -0.002723   0.011676  -0.022289
     4  C    0.453677   0.403793  -0.003899   0.008904  -0.001194   0.005744
     5  O   -0.046151  -0.033869  -0.046021  -0.033323   0.005002   0.002239
     6  C   -0.005380   0.010880   0.451374   0.414694  -0.026112  -0.040389
     7  C   -0.004367  -0.003653  -0.085936  -0.045956   0.413311   0.403784
     8  H   -0.000011  -0.000023  -0.000027  -0.000017  -0.000398   0.005484
     9  H    0.000043  -0.000030   0.000053   0.000034  -0.000239  -0.000368
    10  H    0.003114  -0.000740   0.004108  -0.000573  -0.006326   0.007943
    11  H    0.007951  -0.008060   0.000601  -0.000183  -0.000282   0.005419
    12  H    0.004151  -0.003844   0.000385   0.000158  -0.000108  -0.000038
    13  H    0.568854  -0.026401   0.010027  -0.000115   0.000386   0.000498
    14  H   -0.026401   0.549367  -0.000230  -0.000287   0.000161  -0.000216
    15  H    0.010027  -0.000230   0.568591  -0.026649   0.003333   0.008468
    16  H   -0.000115  -0.000287  -0.026649   0.546895  -0.002671  -0.007338
    17  H    0.000386   0.000161   0.003333  -0.002671   0.519786  -0.017452
    18  H    0.000498  -0.000216   0.008468  -0.007338  -0.017452   0.540125
 Mulliken charges:
               1
     1  N   -0.527690
     2  C   -0.059418
     3  C   -0.265056
     4  C   -0.135834
     5  O   -0.308172
     6  C   -0.135395
     7  C   -0.262026
     8  H    0.226142
     9  H    0.223132
    10  H    0.138641
    11  H    0.136075
    12  H    0.134472
    13  H    0.134439
    14  H    0.137630
    15  H    0.135258
    16  H    0.137886
    17  H    0.151731
    18  H    0.138187
 Sum of Mulliken charges =  -0.00000
 Mulliken charges with hydrogens summed into heavy atoms:
               1
     1  N   -0.078416
     2  C    0.079222
     3  C    0.005491
     4  C    0.136235
     5  O   -0.308172
     6  C    0.137748
     7  C    0.027892
 Electronic spatial extent (au):  <R**2>=            784.3167
 Charge=             -0.0000 electrons
 Dipole moment (field-independent basis, Debye):
    X=             -0.6985    Y=              1.1036    Z=              0.3026  Tot=              1.3406
 Quadrupole moment (field-independent basis, Debye-Ang):
   XX=            -50.3554   YY=            -41.7526   ZZ=            -43.3285
   XY=             -4.0235   XZ=              3.1365   YZ=              0.6900
 Traceless Quadrupole moment (field-independent basis, Debye-Ang):
   XX=             -5.2099   YY=              3.3929   ZZ=              1.8170
   XY=             -4.0235   XZ=              3.1365   YZ=              0.6900
 Octapole moment (field-independent basis, Debye-Ang**2):
  XXX=             -1.3471  YYY=              0.5707  ZZZ=             -2.2730  XYY=              6.4666
  XXY=             12.7210  XXZ=             -2.3662  XZZ=             -2.8476  YZZ=              0.0179
  YYZ=             -0.5363  XYZ=             -2.0125
 Hexadecapole moment (field-independent basis, Debye-Ang**3):
 XXXX=           -633.0293 YYYY=           -329.6771 ZZZZ=            -98.4117 XXXY=            -41.3382
 XXXZ=             14.8800 YYYX=             -3.8501 YYYZ=              0.5190 ZZZX=              4.0286
 ZZZY=              0.7293 XXYY=           -148.3823 XXZZ=           -110.2633 YYZZ=            -73.3821
 XXYZ=              5.7984 YYXZ=             -5.3309 ZZXY=             -0.6055
 N-N= 3.341488917409D+02 E-N=-1.430378372718D+03  KE= 3.253546917462D+02
 Unable to Open any file for archive entry.
 1\1\GINC-NOTCH074\SP\RM062X\def2TZVP\C5H11N1O1\U6032257\04-May-2022\0\
 \# M062X/def2tzvp int=(grid=ultrafine) nmr=giao guess=read geom=check\
 \N5.xyz\\0,1\N,0,2.4274710257,0.1529748915,-0.0633895257\C,0,1.0160728
 836,0.038547107,0.3114008279\C,0,0.2886244396,-1.2031960666,-0.2357190
 044\C,0,-1.1980358187,-1.1675280716,0.1263147408\O,0,-1.8207971991,0.0
 203246007,-0.3413423046\C,0,-1.2269274871,1.1818331643,0.2244746577\C,
 0,0.2567616403,1.2940125191,-0.1290411487\H,0,2.5000506089,0.172004026
 3,-1.0800434062\H,0,2.9284226646,-0.6823453676,0.2344654358\H,0,0.9822
 42652,-0.006684273,1.4101852324\H,0,0.3882287308,-1.2221825306,-1.3291
 539779\H,0,0.7476279832,-2.1211018137,0.1538337981\H,0,-1.3163732968,-
 1.2483841135,1.2213977975\H,0,-1.7408013279,-1.9991709725,-0.331459237
 9\H,0,-1.3479961874,1.1671599556,1.3218470346\H,0,-1.7921773282,2.0333
 999367,-0.1637704842\H,0,0.6986768403,2.1812641319,0.3362393321\H,0,0.
 352529176,1.4089728759,-1.2172397673\\Version=ES64L-G16RevC.01\State=1
 -A\HF=-327.0982439\RMSD=1.993e-09\Dipole=0.2789742,-0.4361857,0.10057\
 Quadrupole=-3.8815793,2.5159257,1.3656536,-2.9566031,-2.3799713,-0.456
 5862\PG=C01 [X(C5H11N1O1)]\\@
 The archive entry for this job was punched.


 IF YOU GET CONFUSED, LOGIC OUT YOUR DILEMMA

           --  PICKER X-RAY CORP.    DIGITAL PRINTER MANUAL CA. 1964
 Job cpu time:       0 days  0 hours 10 minutes 17.9 seconds.
 Elapsed time:       0 days  0 hours  0 minutes 22.4 seconds.
 File lengths (MBytes):  RWF=     50 Int=      0 D2E=      0 Chk=      9 Scr=      1
 Normal termination of Gaussian 16 at Wed May  4 11:15:15 2022.
