 Entering Gaussian System, Link 0=/uufs/chpc.utah.edu/sys/installdir/gaussian16/C01/AVX2/g16/g16
 Input=N5_conf-3.com
 Output=N5_conf-3.log
 Initial command:
 /uufs/chpc.utah.edu/sys/installdir/gaussian16/C01/AVX2/g16/l1.exe "/scratch/local/u6032257/4038855/notchpeak.peaks/Gau-38362.inp" -scrdir="/scratch/local/u6032257/4038855/notchpeak.peaks/"
 Entering Link 1 = /uufs/chpc.utah.edu/sys/installdir/gaussian16/C01/AVX2/g16/l1.exe PID=     38364.
  
 Copyright (c) 1988-2019, Gaussian, Inc.  All Rights Reserved.
  
 This is part of the Gaussian(R) 16 program.  It is based on
 the Gaussian(R) 09 system (copyright 2009, Gaussian, Inc.),
 the Gaussian(R) 03 system (copyright 2003, Gaussian, Inc.),
 the Gaussian(R) 98 system (copyright 1998, Gaussian, Inc.),
 the Gaussian(R) 94 system (copyright 1995, Gaussian, Inc.),
 the Gaussian 92(TM) system (copyright 1992, Gaussian, Inc.),
 the Gaussian 90(TM) system (copyright 1990, Gaussian, Inc.),
 the Gaussian 88(TM) system (copyright 1988, Gaussian, Inc.),
 the Gaussian 86(TM) system (copyright 1986, Carnegie Mellon
 University), and the Gaussian 82(TM) system (copyright 1983,
 Carnegie Mellon University). Gaussian is a federally registered
 trademark of Gaussian, Inc.
  
 This software contains proprietary and confidential information,
 including trade secrets, belonging to Gaussian, Inc.
  
 This software is provided under written license and may be
 used, copied, transmitted, or stored only in accord with that
 written license.
  
 The following legend is applicable only to US Government
 contracts under FAR:
  
                    RESTRICTED RIGHTS LEGEND
  
 Use, reproduction and disclosure by the US Government is
 subject to restrictions as set forth in subparagraphs (a)
 and (c) of the Commercial Computer Software - Restricted
 Rights clause in FAR 52.227-19.
  
 Gaussian, Inc.
 340 Quinnipiac St., Bldg. 40, Wallingford CT 06492
  
  
 ---------------------------------------------------------------
 Warning -- This program may not be used in any manner that
 competes with the business of Gaussian, Inc. or will provide
 assistance to any competitor of Gaussian, Inc.  The licensee
 of this program is prohibited from giving any competitor of
 Gaussian, Inc. access to this program.  By using this program,
 the user acknowledges that Gaussian, Inc. is engaged in the
 business of creating and licensing software in the field of
 computational chemistry and represents and warrants to the
 licensee that it is not a competitor of Gaussian, Inc. and that
 it will not use this program in any manner prohibited above.
 ---------------------------------------------------------------
  

 Cite this work as:
 Gaussian 16, Revision C.01,
 M. J. Frisch, G. W. Trucks, H. B. Schlegel, G. E. Scuseria, 
 M. A. Robb, J. R. Cheeseman, G. Scalmani, V. Barone, 
 G. A. Petersson, H. Nakatsuji, X. Li, M. Caricato, A. V. Marenich, 
 J. Bloino, B. G. Janesko, R. Gomperts, B. Mennucci, H. P. Hratchian, 
 J. V. Ortiz, A. F. Izmaylov, J. L. Sonnenberg, D. Williams-Young, 
 F. Ding, F. Lipparini, F. Egidi, J. Goings, B. Peng, A. Petrone, 
 T. Henderson, D. Ranasinghe, V. G. Zakrzewski, J. Gao, N. Rega, 
 G. Zheng, W. Liang, M. Hada, M. Ehara, K. Toyota, R. Fukuda, 
 J. Hasegawa, M. Ishida, T. Nakajima, Y. Honda, O. Kitao, H. Nakai, 
 T. Vreven, K. Throssell, J. A. Montgomery, Jr., J. E. Peralta, 
 F. Ogliaro, M. J. Bearpark, J. J. Heyd, E. N. Brothers, K. N. Kudin, 
 V. N. Staroverov, T. A. Keith, R. Kobayashi, J. Normand, 
 K. Raghavachari, A. P. Rendell, J. C. Burant, S. S. Iyengar, 
 J. Tomasi, M. Cossi, J. M. Millam, M. Klene, C. Adamo, R. Cammi, 
 J. W. Ochterski, R. L. Martin, K. Morokuma, O. Farkas, 
 J. B. Foresman, and D. J. Fox, Gaussian, Inc., Wallingford CT, 2019.
 
 ******************************************
 Gaussian 16:  ES64L-G16RevC.01  3-Jul-2019
                21-Feb-2022 
 ******************************************
 %NProcShared=64
 Will use up to   64 processors via shared memory.
 %mem=16GB
 %chk=N5_conf-3.chk
 ----------------------------------------------------------------------
 # B3LYP/6-31G(d,p) empiricaldispersion=GD3BJ int=(grid=ultrafine) opt 
 freq=noraman
 ----------------------------------------------------------------------
 1/18=20,19=15,26=4,38=1/1,3;
 2/9=110,12=2,17=6,18=5,40=1/2;
 3/5=1,6=6,7=101,11=2,25=1,30=1,71=1,74=-5,75=-5,124=41/1,2,3;
 4//1;
 5/5=2,38=5/2;
 6/7=2,8=2,9=2,10=2,28=1/1;
 7//1,2,3,16;
 1/18=20,19=15,26=4/3(2);
 2/9=110/2;
 99//99;
 2/9=110/2;
 3/5=1,6=6,7=101,11=2,25=1,30=1,71=1,74=-5,75=-5,124=41/1,2,3;
 4/5=5,16=3,69=1/1;
 5/5=2,38=5/2;
 7//1,2,3,16;
 1/18=20,19=15,26=4/3(-5);
 2/9=110/2;
 6/7=2,8=2,9=2,10=2,19=2,28=1/1;
 99/9=1/99;
 ------
 N5.xyz
 ------
 Symbolic Z-matrix:
 Charge =  0 Multiplicity = 1
 N                     1.8115   -0.2607    0.4562 
 C                     0.6399    0.5694    0.6171 
 C                     0.1928    1.1139   -0.7529 
 C                    -0.5677    0.1021   -1.6308 
 O                    -1.6448   -0.4559   -0.889 
 C                    -1.2151   -1.2023    0.2438 
 C                    -0.4979   -0.2656    1.2319 
 H                     1.6236   -0.9946   -0.2093 
 H                     2.5692    0.2872    0.0748 
 H                     0.7885    1.43      1.2727 
 H                    -0.4212    2.       -0.5896 
 H                     1.0513    1.4993   -1.3034 
 H                     0.0971   -0.6847   -1.9927 
 H                    -0.9699    0.5974   -2.5154 
 H                    -0.5649   -2.0252   -0.0598 
 H                    -2.0859   -1.6559    0.7188 
 H                    -0.1117   -0.8498    2.0683 
 H                    -1.2145    0.408     1.7019 
 

 GradGradGradGradGradGradGradGradGradGradGradGradGradGradGradGradGradGrad
 Berny optimization.
 Initialization pass.
                           ----------------------------
                           !    Initial Parameters    !
                           ! (Angstroms and Degrees)  !
 --------------------------                            --------------------------
 ! Name  Definition              Value          Derivative Info.                !
 --------------------------------------------------------------------------------
 ! R1    R(1,2)                  1.4449         estimate D2E/DX2                !
 ! R2    R(1,8)                  1.0084         estimate D2E/DX2                !
 ! R3    R(1,9)                  1.0098         estimate D2E/DX2                !
 ! R4    R(2,3)                  1.5405         estimate D2E/DX2                !
 ! R5    R(2,7)                  1.5394         estimate D2E/DX2                !
 ! R6    R(2,10)                 1.092          estimate D2E/DX2                !
 ! R7    R(3,4)                  1.5404         estimate D2E/DX2                !
 ! R8    R(3,11)                 1.0903         estimate D2E/DX2                !
 ! R9    R(3,12)                 1.0902         estimate D2E/DX2                !
 ! R10   R(4,5)                  1.4219         estimate D2E/DX2                !
 ! R11   R(4,13)                 1.0918         estimate D2E/DX2                !
 ! R12   R(4,14)                 1.0907         estimate D2E/DX2                !
 ! R13   R(5,6)                  1.423          estimate D2E/DX2                !
 ! R14   R(6,7)                  1.5389         estimate D2E/DX2                !
 ! R15   R(6,15)                 1.0918         estimate D2E/DX2                !
 ! R16   R(6,16)                 1.0907         estimate D2E/DX2                !
 ! R17   R(7,17)                 1.0909         estimate D2E/DX2                !
 ! R18   R(7,18)                 1.09           estimate D2E/DX2                !
 ! A1    A(2,1,8)              109.9097         estimate D2E/DX2                !
 ! A2    A(2,1,9)              109.8015         estimate D2E/DX2                !
 ! A3    A(8,1,9)              106.5848         estimate D2E/DX2                !
 ! A4    A(1,2,3)              109.8382         estimate D2E/DX2                !
 ! A5    A(1,2,7)              109.4009         estimate D2E/DX2                !
 ! A6    A(1,2,10)             114.1596         estimate D2E/DX2                !
 ! A7    A(3,2,7)              109.4126         estimate D2E/DX2                !
 ! A8    A(3,2,10)             107.1479         estimate D2E/DX2                !
 ! A9    A(7,2,10)             106.7548         estimate D2E/DX2                !
 ! A10   A(2,3,4)              114.7053         estimate D2E/DX2                !
 ! A11   A(2,3,11)             108.5107         estimate D2E/DX2                !
 ! A12   A(2,3,12)             110.2092         estimate D2E/DX2                !
 ! A13   A(4,3,11)             109.9467         estimate D2E/DX2                !
 ! A14   A(4,3,12)             109.4625         estimate D2E/DX2                !
 ! A15   A(11,3,12)            103.4014         estimate D2E/DX2                !
 ! A16   A(3,4,5)              109.5379         estimate D2E/DX2                !
 ! A17   A(3,4,13)             111.2017         estimate D2E/DX2                !
 ! A18   A(3,4,14)             110.2431         estimate D2E/DX2                !
 ! A19   A(5,4,13)             110.5717         estimate D2E/DX2                !
 ! A20   A(5,4,14)             108.7836         estimate D2E/DX2                !
 ! A21   A(13,4,14)            106.437          estimate D2E/DX2                !
 ! A22   A(4,5,6)              113.1038         estimate D2E/DX2                !
 ! A23   A(5,6,7)              109.4268         estimate D2E/DX2                !
 ! A24   A(5,6,15)             110.7194         estimate D2E/DX2                !
 ! A25   A(5,6,16)             108.8885         estimate D2E/DX2                !
 ! A26   A(7,6,15)             111.0858         estimate D2E/DX2                !
 ! A27   A(7,6,16)             110.2183         estimate D2E/DX2                !
 ! A28   A(15,6,16)            106.4452         estimate D2E/DX2                !
 ! A29   A(2,7,6)              114.7208         estimate D2E/DX2                !
 ! A30   A(2,7,17)             109.574          estimate D2E/DX2                !
 ! A31   A(2,7,18)             108.8392         estimate D2E/DX2                !
 ! A32   A(6,7,17)             109.3496         estimate D2E/DX2                !
 ! A33   A(6,7,18)             110.2807         estimate D2E/DX2                !
 ! A34   A(17,7,18)            103.479          estimate D2E/DX2                !
 ! D1    D(8,1,2,3)            -55.6279         estimate D2E/DX2                !
 ! D2    D(8,1,2,7)             64.4823         estimate D2E/DX2                !
 ! D3    D(8,1,2,10)          -175.9834         estimate D2E/DX2                !
 ! D4    D(9,1,2,3)             61.3125         estimate D2E/DX2                !
 ! D5    D(9,1,2,7)           -178.5774         estimate D2E/DX2                !
 ! D6    D(9,1,2,10)           -59.043          estimate D2E/DX2                !
 ! D7    D(1,2,3,4)             77.6797         estimate D2E/DX2                !
 ! D8    D(1,2,3,11)          -158.9509         estimate D2E/DX2                !
 ! D9    D(1,2,3,12)           -46.388          estimate D2E/DX2                !
 ! D10   D(7,2,3,4)            -42.4233         estimate D2E/DX2                !
 ! D11   D(7,2,3,11)            80.9461         estimate D2E/DX2                !
 ! D12   D(7,2,3,12)          -166.4911         estimate D2E/DX2                !
 ! D13   D(10,2,3,4)          -157.8025         estimate D2E/DX2                !
 ! D14   D(10,2,3,11)          -34.4331         estimate D2E/DX2                !
 ! D15   D(10,2,3,12)           78.1297         estimate D2E/DX2                !
 ! D16   D(1,2,7,6)            -77.7211         estimate D2E/DX2                !
 ! D17   D(1,2,7,17)            45.7031         estimate D2E/DX2                !
 ! D18   D(1,2,7,18)           158.2044         estimate D2E/DX2                !
 ! D19   D(3,2,7,6)             42.6494         estimate D2E/DX2                !
 ! D20   D(3,2,7,17)           166.0735         estimate D2E/DX2                !
 ! D21   D(3,2,7,18)           -81.4251         estimate D2E/DX2                !
 ! D22   D(10,2,7,6)           158.2798         estimate D2E/DX2                !
 ! D23   D(10,2,7,17)          -78.2961         estimate D2E/DX2                !
 ! D24   D(10,2,7,18)           34.2053         estimate D2E/DX2                !
 ! D25   D(2,3,4,5)             52.3834         estimate D2E/DX2                !
 ! D26   D(2,3,4,13)           -70.1351         estimate D2E/DX2                !
 ! D27   D(2,3,4,14)           172.055          estimate D2E/DX2                !
 ! D28   D(11,3,4,5)           -70.2143         estimate D2E/DX2                !
 ! D29   D(11,3,4,13)          167.2673         estimate D2E/DX2                !
 ! D30   D(11,3,4,14)           49.4574         estimate D2E/DX2                !
 ! D31   D(12,3,4,5)           176.8465         estimate D2E/DX2                !
 ! D32   D(12,3,4,13)           54.3281         estimate D2E/DX2                !
 ! D33   D(12,3,4,14)          -63.4818         estimate D2E/DX2                !
 ! D34   D(3,4,5,6)            -63.3011         estimate D2E/DX2                !
 ! D35   D(13,4,5,6)            59.5917         estimate D2E/DX2                !
 ! D36   D(14,4,5,6)           176.1355         estimate D2E/DX2                !
 ! D37   D(4,5,6,7)             63.4703         estimate D2E/DX2                !
 ! D38   D(4,5,6,15)           -59.2997         estimate D2E/DX2                !
 ! D39   D(4,5,6,16)          -175.9998         estimate D2E/DX2                !
 ! D40   D(5,6,7,2)            -52.7654         estimate D2E/DX2                !
 ! D41   D(5,6,7,17)          -176.3095         estimate D2E/DX2                !
 ! D42   D(5,6,7,18)            70.5408         estimate D2E/DX2                !
 ! D43   D(15,6,7,2)            69.7862         estimate D2E/DX2                !
 ! D44   D(15,6,7,17)          -53.7579         estimate D2E/DX2                !
 ! D45   D(15,6,7,18)         -166.9076         estimate D2E/DX2                !
 ! D46   D(16,6,7,2)          -172.4814         estimate D2E/DX2                !
 ! D47   D(16,6,7,17)           63.9746         estimate D2E/DX2                !
 ! D48   D(16,6,7,18)          -49.1752         estimate D2E/DX2                !
 --------------------------------------------------------------------------------
 Trust Radius=3.00D-01 FncErr=1.00D-07 GrdErr=1.00D-06 EigMax=2.50D+02 EigMin=1.00D-04
 Number of steps in this run=    108 maximum allowed number of steps=    108.
 GradGradGradGradGradGradGradGradGradGradGradGradGradGradGradGradGradGrad

                          Input orientation:                          
 ---------------------------------------------------------------------
 Center     Atomic      Atomic             Coordinates (Angstroms)
 Number     Number       Type             X           Y           Z
 ---------------------------------------------------------------------
      1          7           0        1.811500   -0.260700    0.456200
      2          6           0        0.639900    0.569400    0.617100
      3          6           0        0.192800    1.113900   -0.752900
      4          6           0       -0.567700    0.102100   -1.630800
      5          8           0       -1.644800   -0.455900   -0.889000
      6          6           0       -1.215100   -1.202300    0.243800
      7          6           0       -0.497900   -0.265600    1.231900
      8          1           0        1.623600   -0.994600   -0.209300
      9          1           0        2.569200    0.287200    0.074800
     10          1           0        0.788500    1.430000    1.272700
     11          1           0       -0.421200    2.000000   -0.589600
     12          1           0        1.051300    1.499300   -1.303400
     13          1           0        0.097100   -0.684700   -1.992700
     14          1           0       -0.969900    0.597400   -2.515400
     15          1           0       -0.564900   -2.025200   -0.059800
     16          1           0       -2.085900   -1.655900    0.718800
     17          1           0       -0.111700   -0.849800    2.068300
     18          1           0       -1.214500    0.408000    1.701900
 ---------------------------------------------------------------------
                    Distance matrix (angstroms):
                    1          2          3          4          5
     1  N    0.000000
     2  C    1.444853   0.000000
     3  C    2.443693   1.540545   0.000000
     4  C    3.185559   2.594171   1.540392   0.000000
     5  O    3.713984   2.922231   2.420655   1.421892   0.000000
     6  C    3.176796   2.592161   2.887971   2.373755   1.423022
     7  C    2.436198   1.539413   2.513865   2.887062   2.418638
     8  H    1.008368   2.024030   2.605468   2.832880   3.381513
     9  H    1.009836   2.023839   2.648735   3.575399   4.386218
    10  H    2.138146   1.092028   2.134908   3.468848   3.761717
    11  H    3.345058   2.151435   1.090338   2.169697   2.760124
    12  H    2.602248   2.173082   1.090232   2.163451   3.356112
    13  H    3.019280   2.945922   2.186601   1.091781   2.074782
    14  H    4.159679   3.522044   2.173718   1.090690   2.051855
    15  H    3.004496   2.939674   3.302794   2.644514   2.077609
    16  H    4.147923   3.520268   3.876876   3.303955   2.054164
    17  H    2.577713   2.164489   3.450798   3.846738   3.354277
    18  H    3.340001   2.154447   2.916304   3.408638   2.764823
                    6          7          8          9         10
     6  C    0.000000
     7  C    1.538871   0.000000
     8  H    2.882127   2.666320   0.000000
     9  H    4.070393   3.324390   1.617987   0.000000
    10  H    3.464398   2.128744   2.961824   2.431429   0.000000
    11  H    3.402875   2.908039   3.646020   3.509644   2.292692
    12  H    3.850849   3.455812   2.782826   2.381731   2.590397
    13  H    2.644184   3.305709   2.367859   3.366070   3.951307
    14  H    3.303366   3.874250   3.818220   4.396657   4.258509
    15  H    1.091832   2.183843   2.423638   3.897165   3.942798
    16  H    1.090720   2.172084   3.880603   5.085305   4.253441
    17  H    2.161145   1.090874   2.867001   3.529028   2.576980
    18  H    2.172354   1.090024   3.697943   4.120489   2.289259
                   11         12         13         14         15
    11  H    0.000000
    12  H    1.711276   0.000000
    13  H    3.073262   2.481026   0.000000
    14  H    2.444803   2.523414   1.747994   0.000000
    15  H    4.062459   4.071946   2.443622   3.615526   0.000000
    16  H    4.224777   4.887392   3.613994   4.096690   1.748154
    17  H    3.909166   4.270738   4.069715   4.882745   2.473007
    18  H    2.900821   3.918752   4.069933   4.228631   3.073439
                   16         17         18
    16  H    0.000000
    17  H    2.523571   0.000000
    18  H    2.446530   1.712448   0.000000
 Stoichiometry    C5H11NO
 Framework group  C1[X(C5H11NO)]
 Deg. of freedom    48
 Full point group                 C1      NOp   1
 Largest Abelian subgroup         C1      NOp   1
 Largest concise Abelian subgroup C1      NOp   1
                         Standard orientation:                         
 ---------------------------------------------------------------------
 Center     Atomic      Atomic             Coordinates (Angstroms)
 Number     Number       Type             X           Y           Z
 ---------------------------------------------------------------------
      1          7           0        1.900531   -0.138032   -0.763578
      2          6           0        1.152708   -0.102045    0.472168
      3          6           0        0.353622    1.212011    0.561599
      4          6           0       -0.930123    1.244033   -0.289154
      5          8           0       -1.724852    0.102538    0.006096
      6          6           0       -1.088759   -1.123980   -0.334534
      7          6           0        0.181469   -1.295557    0.517056
      8          1           0        1.277342   -0.010091   -1.545928
      9          1           0        2.556402    0.629403   -0.789003
     10          1           0        1.770505   -0.164961    1.370441
     11          1           0        0.111138    1.399165    1.608027
     12          1           0        0.987876    2.057446    0.294078
     13          1           0       -0.696612    1.283657   -1.354934
     14          1           0       -1.508252    2.141644   -0.066298
     15          1           0       -0.854155   -1.154457   -1.400428
     16          1           0       -1.781860   -1.945096   -0.147314
     17          1           0        0.703027   -2.202941    0.209426
     18          1           0       -0.083816   -1.494619    1.555396
 ---------------------------------------------------------------------
 Rotational constants (GHZ):           3.8480254           2.5999034           1.9627262
 Standard basis: 6-31G(d,p) (6D, 7F)
 There are   160 symmetry adapted cartesian basis functions of A   symmetry.
 There are   160 symmetry adapted basis functions of A   symmetry.
   160 basis functions,   273 primitive gaussians,   160 cartesian basis functions
    28 alpha electrons       28 beta electrons
       nuclear repulsion energy       338.7121036095 Hartrees.
 NAtoms=   18 NActive=   18 NUniq=   18 SFac= 1.00D+00 NAtFMM=   60 NAOKFM=F Big=F
 Integral buffers will be    131072 words long.
 Raffenetti 2 integral format.
 Two-electron integral symmetry is turned on.
 Nuclear repulsion after empirical dispersion term =      338.6852986034 Hartrees.
 One-electron integrals computed using PRISM.
 NBasis=   160 RedAO= T EigKep=  3.53D-03  NBF=   160
 NBsUse=   160 1.00D-06 EigRej= -1.00D+00 NBFU=   160
 ExpMin= 1.61D-01 ExpMax= 5.48D+03 ExpMxC= 8.25D+02 IAcc=3 IRadAn=         5 AccDes= 0.00D+00
 Harris functional with IExCor=  402 and IRadAn=       5 diagonalized for initial guess.
 HarFok:  IExCor=  402 AccDes= 0.00D+00 IRadAn=         5 IDoV= 1 UseB2=F ITyADJ=14
 ICtDFT=  3500011 ScaDFX=  1.000000  1.000000  1.000000  1.000000
 FoFCou: FMM=F IPFlag=           0 FMFlag=      100000 FMFlg1=           0
         NFxFlg=           0 DoJE=T BraDBF=F KetDBF=T FulRan=T
         wScrn=  0.000000 ICntrl=       500 IOpCl=  0 I1Cent=   200000004 NGrid=           0
         NMat0=    1 NMatS0=      1 NMatT0=    0 NMatD0=    1 NMtDS0=    0 NMtDT0=    0
 Petite list used in FoFCou.
 Requested convergence on RMS density matrix=1.00D-08 within 128 cycles.
 Requested convergence on MAX density matrix=1.00D-06.
 Requested convergence on             energy=1.00D-06.
 No special actions if energy rises.
 Integral accuracy reduced to 1.0D-05 until final iterations.
 Initial convergence to 1.0D-05 achieved.  Increase integral accuracy.
 SCF Done:  E(RB3LYP) =  -327.149309225     A.U. after   13 cycles
            NFock= 13  Conv=0.39D-08     -V/T= 2.0090

 **********************************************************************

            Population analysis using the SCF Density.

 **********************************************************************

 Orbital symmetries:
       Occupied  (A) (A) (A) (A) (A) (A) (A) (A) (A) (A) (A) (A)
                 (A) (A) (A) (A) (A) (A) (A) (A) (A) (A) (A) (A)
                 (A) (A) (A) (A)
       Virtual   (A) (A) (A) (A) (A) (A) (A) (A) (A) (A) (A) (A)
                 (A) (A) (A) (A) (A) (A) (A) (A) (A) (A) (A) (A)
                 (A) (A) (A) (A) (A) (A) (A) (A) (A) (A) (A) (A)
                 (A) (A) (A) (A) (A) (A) (A) (A) (A) (A) (A) (A)
                 (A) (A) (A) (A) (A) (A) (A) (A) (A) (A) (A) (A)
                 (A) (A) (A) (A) (A) (A) (A) (A) (A) (A) (A) (A)
                 (A) (A) (A) (A) (A) (A) (A) (A) (A) (A) (A) (A)
                 (A) (A) (A) (A) (A) (A) (A) (A) (A) (A) (A) (A)
                 (A) (A) (A) (A) (A) (A) (A) (A) (A) (A) (A) (A)
                 (A) (A) (A) (A) (A) (A) (A) (A) (A) (A) (A) (A)
                 (A) (A) (A) (A) (A) (A) (A) (A) (A) (A) (A) (A)
 The electronic state is 1-A.
 Alpha  occ. eigenvalues --  -19.14003 -14.30646 -10.22967 -10.22779 -10.21130
 Alpha  occ. eigenvalues --  -10.17509 -10.17434  -1.02508  -0.89194  -0.75971
 Alpha  occ. eigenvalues --   -0.75759  -0.64034  -0.63621  -0.54894  -0.51178
 Alpha  occ. eigenvalues --   -0.47319  -0.46585  -0.44860  -0.44606  -0.42082
 Alpha  occ. eigenvalues --   -0.38639  -0.36717  -0.35464  -0.35174  -0.32835
 Alpha  occ. eigenvalues --   -0.29580  -0.24446  -0.22662
 Alpha virt. eigenvalues --    0.06857   0.09572   0.12878   0.13210   0.13931
 Alpha virt. eigenvalues --    0.14130   0.16797   0.17334   0.17744   0.18918
 Alpha virt. eigenvalues --    0.19665   0.21493   0.22310   0.25008   0.26186
 Alpha virt. eigenvalues --    0.26399   0.28625   0.29956   0.52082   0.52429
 Alpha virt. eigenvalues --    0.54751   0.55635   0.56170   0.57707   0.59406
 Alpha virt. eigenvalues --    0.63008   0.63398   0.65875   0.66666   0.71632
 Alpha virt. eigenvalues --    0.73164   0.76832   0.79057   0.82444   0.82713
 Alpha virt. eigenvalues --    0.83115   0.85305   0.86145   0.87678   0.87961
 Alpha virt. eigenvalues --    0.90373   0.92690   0.93916   0.94996   0.96364
 Alpha virt. eigenvalues --    0.96744   0.99729   1.00767   1.08143   1.17018
 Alpha virt. eigenvalues --    1.22044   1.27650   1.28488   1.30565   1.39864
 Alpha virt. eigenvalues --    1.42802   1.46385   1.50109   1.56374   1.57826
 Alpha virt. eigenvalues --    1.59907   1.69209   1.70653   1.71743   1.75085
 Alpha virt. eigenvalues --    1.77703   1.86221   1.87700   1.90456   1.92409
 Alpha virt. eigenvalues --    1.93084   1.96533   1.98199   2.00593   2.01388
 Alpha virt. eigenvalues --    2.04152   2.06201   2.10462   2.13417   2.14345
 Alpha virt. eigenvalues --    2.17052   2.19821   2.23311   2.25557   2.27229
 Alpha virt. eigenvalues --    2.27569   2.28816   2.33918   2.36303   2.37060
 Alpha virt. eigenvalues --    2.38556   2.40581   2.46207   2.48706   2.51886
 Alpha virt. eigenvalues --    2.54738   2.58095   2.62188   2.62428   2.66369
 Alpha virt. eigenvalues --    2.68168   2.73653   2.76077   2.77656   2.79956
 Alpha virt. eigenvalues --    2.83677   2.86268   2.88856   2.89356   2.95280
 Alpha virt. eigenvalues --    2.95971   2.96529   3.03005   3.04107   3.26786
 Alpha virt. eigenvalues --    3.29229   3.32174   3.33481   3.35208   3.38160
 Alpha virt. eigenvalues --    3.47696   3.49219   3.52221   3.54014   3.55797
 Alpha virt. eigenvalues --    3.97128   4.04995   4.37496   4.38616   4.63365
 Alpha virt. eigenvalues --    4.71844   4.76035
          Condensed to atoms (all electrons):
               1          2          3          4          5          6
     1  N    6.738163   0.334971  -0.087735  -0.003590  -0.000355  -0.002082
     2  C    0.334971   4.794922   0.367644  -0.024206  -0.012594  -0.026073
     3  C   -0.087735   0.367644   5.143473   0.346563  -0.048208  -0.023005
     4  C   -0.003590  -0.024206   0.346563   4.716671   0.264785  -0.031275
     5  O   -0.000355  -0.012594  -0.048208   0.264785   8.200499   0.260562
     6  C   -0.002082  -0.026073  -0.023005  -0.031275   0.260562   4.718035
     7  C   -0.066432   0.374511  -0.048029  -0.020122  -0.049412   0.356287
     8  H    0.346646  -0.046027  -0.005193   0.003039  -0.000320   0.003831
     9  H    0.344256  -0.043985  -0.002743  -0.000456   0.000004  -0.000022
    10  H   -0.035224   0.399667  -0.057244   0.004696  -0.000189   0.004616
    11  H    0.007507  -0.032029   0.342340  -0.029336   0.000815  -0.000097
    12  H   -0.005946  -0.038143   0.350421  -0.030390   0.003755   0.000234
    13  H    0.004511  -0.009782  -0.058087   0.356760  -0.039597  -0.010378
    14  H    0.000001   0.003671  -0.036014   0.392475  -0.031338   0.004850
    15  H    0.001676  -0.010090   0.000618  -0.010858  -0.039072   0.363415
    16  H   -0.000023   0.004007  -0.000048   0.004836  -0.031159   0.391330
    17  H    0.001225  -0.033346   0.006790   0.000105   0.003686  -0.029782
    18  H    0.004895  -0.036581   0.001818  -0.000696   0.000993  -0.033372
               7          8          9         10         11         12
     1  N   -0.066432   0.346646   0.344256  -0.035224   0.007507  -0.005946
     2  C    0.374511  -0.046027  -0.043985   0.399667  -0.032029  -0.038143
     3  C   -0.048029  -0.005193  -0.002743  -0.057244   0.342340   0.350421
     4  C   -0.020122   0.003039  -0.000456   0.004696  -0.029336  -0.030390
     5  O   -0.049412  -0.000320   0.000004  -0.000189   0.000815   0.003755
     6  C    0.356287   0.003831  -0.000022   0.004616  -0.000097   0.000234
     7  C    5.041373  -0.007577   0.007549  -0.041252   0.000301   0.005807
     8  H   -0.007577   0.494295  -0.035608   0.006683   0.000160  -0.000139
     9  H    0.007549  -0.035608   0.497126  -0.005278   0.000128   0.006309
    10  H   -0.041252   0.006683  -0.005278   0.645883  -0.004292  -0.002076
    11  H    0.000301   0.000160   0.000128  -0.004292   0.655403  -0.035660
    12  H    0.005807  -0.000139   0.006309  -0.002076  -0.035660   0.669318
    13  H    0.000116   0.005128   0.000422  -0.000101   0.007207   0.000279
    14  H   -0.000010  -0.000185  -0.000007  -0.000146  -0.007757   0.000558
    15  H   -0.053730   0.002596  -0.000146  -0.000185   0.000156   0.000078
    16  H   -0.036048  -0.000151   0.000006  -0.000144  -0.000015   0.000018
    17  H    0.350764  -0.000511   0.000027  -0.003033  -0.000248  -0.000133
    18  H    0.370772  -0.000043  -0.000292  -0.007818   0.001114  -0.000103
              13         14         15         16         17         18
     1  N    0.004511   0.000001   0.001676  -0.000023   0.001225   0.004895
     2  C   -0.009782   0.003671  -0.010090   0.004007  -0.033346  -0.036581
     3  C   -0.058087  -0.036014   0.000618  -0.000048   0.006790   0.001818
     4  C    0.356760   0.392475  -0.010858   0.004836   0.000105  -0.000696
     5  O   -0.039597  -0.031338  -0.039072  -0.031159   0.003686   0.000993
     6  C   -0.010378   0.004850   0.363415   0.391330  -0.029782  -0.033372
     7  C    0.000116  -0.000010  -0.053730  -0.036048   0.350764   0.370772
     8  H    0.005128  -0.000185   0.002596  -0.000151  -0.000511  -0.000043
     9  H    0.000422  -0.000007  -0.000146   0.000006   0.000027  -0.000292
    10  H   -0.000101  -0.000146  -0.000185  -0.000144  -0.003033  -0.007818
    11  H    0.007207  -0.007757   0.000156  -0.000015  -0.000248   0.001114
    12  H    0.000279   0.000558   0.000078   0.000018  -0.000133  -0.000103
    13  H    0.705622  -0.045854   0.012949  -0.000075   0.000023   0.000162
    14  H   -0.045854   0.614055  -0.000115  -0.000187   0.000017  -0.000031
    15  H    0.012949  -0.000115   0.692135  -0.045587   0.000112   0.006505
    16  H   -0.000075  -0.000187  -0.045587   0.614736   0.000411  -0.007918
    17  H    0.000023   0.000017   0.000112   0.000411   0.635195  -0.034263
    18  H    0.000162  -0.000031   0.006505  -0.007918  -0.034263   0.635564
 Mulliken charges:
               1
     1  N   -0.582465
     2  C    0.033462
     3  C   -0.193363
     4  C    0.061001
     5  O   -0.482855
     6  C    0.052927
     7  C   -0.184865
     8  H    0.233374
     9  H    0.232710
    10  H    0.095436
    11  H    0.094304
    12  H    0.075811
    13  H    0.070694
    14  H    0.106019
    15  H    0.079543
    16  H    0.106010
    17  H    0.102962
    18  H    0.099294
 Sum of Mulliken charges =  -0.00000
 Mulliken charges with hydrogens summed into heavy atoms:
               1
     1  N   -0.116381
     2  C    0.128898
     3  C   -0.023248
     4  C    0.237714
     5  O   -0.482855
     6  C    0.238480
     7  C    0.017391
 Electronic spatial extent (au):  <R**2>=            722.8687
 Charge=              0.0000 electrons
 Dipole moment (field-independent basis, Debye):
    X=              0.7202    Y=              1.0107    Z=             -0.2788  Tot=              1.2720
 Quadrupole moment (field-independent basis, Debye-Ang):
   XX=            -49.2647   YY=            -41.2301   ZZ=            -42.2650
   XY=              3.9365   XZ=              1.5633   YZ=             -1.4079
 Traceless Quadrupole moment (field-independent basis, Debye-Ang):
   XX=             -5.0114   YY=              3.0231   ZZ=              1.9883
   XY=              3.9365   XZ=              1.5633   YZ=             -1.4079
 Octapole moment (field-independent basis, Debye-Ang**2):
  XXX=              2.8039  YYY=              1.1537  ZZZ=             -3.1735  XYY=             -6.7327
  XXY=              8.2310  XXZ=              1.5993  XZZ=              0.4046  YZZ=              0.9861
  YYZ=             -0.3204  XYZ=             -3.5297
 Hexadecapole moment (field-independent basis, Debye-Ang**3):
 XXXX=           -466.5314 YYYY=           -328.4144 ZZZZ=           -145.2084 XXXY=             27.5352
 XXXZ=              2.8786 YYYX=              1.0314 YYYZ=             -1.3032 ZZZX=             -4.1724
 ZZZY=             -2.2007 XXYY=           -122.7812 XXZZ=           -100.3636 YYZZ=            -83.2512
 XXYZ=             -8.4426 YYXZ=             -0.4390 ZZXY=              3.0858
 N-N= 3.386852986034D+02 E-N=-1.438563198788D+03  KE= 3.242238208766D+02
 Calling FoFJK, ICntrl=      2127 FMM=F ISym2X=0 I1Cent= 0 IOpClX= 0 NMat=1 NMatS=1 NMatT=0.
 ***** Axes restored to original set *****
 -------------------------------------------------------------------
 Center     Atomic                   Forces (Hartrees/Bohr)
 Number     Number              X              Y              Z
 -------------------------------------------------------------------
      1        7           0.015041854   -0.002672904    0.019587389
      2        6          -0.019798609   -0.009851159   -0.019844993
      3        6          -0.006731867    0.011940267   -0.005353935
      4        6           0.002262299    0.007282044    0.018458859
      5        8          -0.010317955   -0.006115477   -0.008322994
      6        6           0.008172342    0.018485588    0.002901778
      7        6          -0.002227258   -0.004997534    0.009866317
      8        1          -0.001398388   -0.004923948   -0.004082013
      9        1           0.005093757    0.002207049   -0.003067169
     10        1           0.012194092   -0.002549417    0.002842573
     11        1          -0.009693093    0.000872688   -0.001343913
     12        1           0.006790376   -0.000958235   -0.001710654
     13        1           0.005298651   -0.006582751   -0.000358444
     14        1          -0.004880271    0.000040778    0.000541381
     15        1           0.005742620   -0.004354695   -0.003460199
     16        1          -0.004162275    0.002145283   -0.002430533
     17        1           0.005582979   -0.003170222    0.000833241
     18        1          -0.006969254    0.003202644   -0.005056691
 -------------------------------------------------------------------
 Cartesian Forces:  Max     0.019844993 RMS     0.008141385

 GradGradGradGradGradGradGradGradGradGradGradGradGradGradGradGradGradGrad
 Berny optimization.
 FormGI is forming the generalized inverse of G from B-inverse, IUseBI=4.
 Internal  Forces:  Max     0.016900793 RMS     0.004423322
 Search for a local minimum.
 Step number   1 out of a maximum of  108
 All quantities printed in internal units (Hartrees-Bohrs-Radians)
 Mixed Optimization -- RFO/linear search
 Second derivative matrix not updated -- first step.
 ITU=  0
     Eigenvalues ---    0.00385   0.00479   0.01098   0.01336   0.02382
     Eigenvalues ---    0.03130   0.04004   0.04443   0.04589   0.04601
     Eigenvalues ---    0.04784   0.05215   0.05387   0.05721   0.06016
     Eigenvalues ---    0.06303   0.08676   0.08743   0.08754   0.08829
     Eigenvalues ---    0.10672   0.11422   0.11505   0.13281   0.14306
     Eigenvalues ---    0.15704   0.16000   0.16000   0.17864   0.21095
     Eigenvalues ---    0.27340   0.27764   0.28045   0.28555   0.34579
     Eigenvalues ---    0.34602   0.34608   0.34712   0.34730   0.34733
     Eigenvalues ---    0.34774   0.34786   0.34810   0.38927   0.40297
     Eigenvalues ---    0.40635   0.46000   0.46247
 RFO step:  Lambda=-1.29339671D-02 EMin= 3.85469697D-03
 Linear search not attempted -- first point.
 Iteration  1 RMS(Cart)=  0.04751324 RMS(Int)=  0.00136133
 Iteration  2 RMS(Cart)=  0.00164323 RMS(Int)=  0.00067796
 Iteration  3 RMS(Cart)=  0.00000152 RMS(Int)=  0.00067796
 Iteration  4 RMS(Cart)=  0.00000000 RMS(Int)=  0.00067796
 Variable       Old X    -DE/DX   Delta X   Delta X   Delta X     New X
                                 (Linear)    (Quad)   (Total)
    R1        2.73038   0.01690   0.00000   0.04202   0.04202   2.77240
    R2        1.90554   0.00654   0.00000   0.01375   0.01375   1.91929
    R3        1.90831   0.00618   0.00000   0.01306   0.01306   1.92138
    R4        2.91121   0.00872   0.00000   0.02564   0.02577   2.93698
    R5        2.90907   0.00235   0.00000   0.00293   0.00298   2.91205
    R6        2.06363   0.00136   0.00000   0.00378   0.00378   2.06742
    R7        2.91092  -0.00578   0.00000  -0.02110  -0.02124   2.88968
    R8        2.06044   0.00597   0.00000   0.01654   0.01654   2.07698
    R9        2.06024   0.00587   0.00000   0.01627   0.01627   2.07651
   R10        2.68699  -0.00559   0.00000  -0.00886  -0.00888   2.67811
   R11        2.06317   0.00809   0.00000   0.02254   0.02254   2.08570
   R12        2.06110   0.00138   0.00000   0.00383   0.00383   2.06493
   R13        2.68912  -0.00393   0.00000  -0.00705  -0.00721   2.68191
   R14        2.90804  -0.00618   0.00000  -0.01849  -0.01837   2.88968
   R15        2.06326   0.00767   0.00000   0.02136   0.02136   2.08462
   R16        2.06116   0.00137   0.00000   0.00381   0.00381   2.06497
   R17        2.06145   0.00431   0.00000   0.01198   0.01198   2.07343
   R18        2.05985   0.00438   0.00000   0.01213   0.01213   2.07198
    A1        1.91829  -0.00047   0.00000  -0.00252  -0.00252   1.91577
    A2        1.91640   0.00193   0.00000   0.01137   0.01137   1.92777
    A3        1.86026  -0.00065   0.00000  -0.00336  -0.00336   1.85690
    A4        1.91704   0.01029   0.00000   0.09643   0.09675   2.01379
    A5        1.90941  -0.00250   0.00000   0.00647   0.00354   1.91295
    A6        1.99246  -0.00843   0.00000  -0.11149  -0.11105   1.88141
    A7        1.90961  -0.00188   0.00000  -0.00188  -0.00391   1.90570
    A8        1.87008  -0.00056   0.00000   0.00114   0.00306   1.87315
    A9        1.86322   0.00297   0.00000   0.00909   0.00809   1.87131
   A10        2.00199  -0.00565   0.00000  -0.04227  -0.04224   1.95974
   A11        1.89387   0.00616   0.00000   0.04121   0.04041   1.93428
   A12        1.92351  -0.00120   0.00000  -0.01186  -0.01263   1.91089
   A13        1.91893  -0.00244   0.00000  -0.02762  -0.02733   1.89160
   A14        1.91048   0.00236   0.00000   0.00681   0.00619   1.91667
   A15        1.80470   0.00152   0.00000   0.04257   0.04253   1.84723
   A16        1.91180   0.00911   0.00000   0.03675   0.03662   1.94842
   A17        1.94084  -0.00367   0.00000  -0.01094  -0.01081   1.93003
   A18        1.92411   0.00067   0.00000   0.00756   0.00782   1.93193
   A19        1.92984  -0.00186   0.00000  -0.00739  -0.00738   1.92246
   A20        1.89863  -0.00697   0.00000  -0.04488  -0.04488   1.85375
   A21        1.85768   0.00233   0.00000   0.01696   0.01678   1.87446
   A22        1.97403  -0.00812   0.00000  -0.04046  -0.04086   1.93318
   A23        1.90986   0.00827   0.00000   0.04214   0.04266   1.95252
   A24        1.93242  -0.00093   0.00000  -0.00961  -0.01007   1.92235
   A25        1.90046  -0.00782   0.00000  -0.04955  -0.04965   1.85081
   A26        1.93881  -0.00332   0.00000  -0.00847  -0.00859   1.93022
   A27        1.92367   0.00127   0.00000   0.00726   0.00751   1.93118
   A28        1.85782   0.00215   0.00000   0.01602   0.01582   1.87364
   A29        2.00226  -0.00361   0.00000  -0.03794  -0.03829   1.96396
   A30        1.91243  -0.00266   0.00000  -0.01083  -0.01088   1.90155
   A31        1.89960   0.00456   0.00000   0.01796   0.01679   1.91639
   A32        1.90851   0.00352   0.00000   0.01483   0.01426   1.92277
   A33        1.92476  -0.00371   0.00000  -0.02738  -0.02731   1.89746
   A34        1.80605   0.00251   0.00000   0.05263   0.05274   1.85879
    D1       -0.97089  -0.00085   0.00000  -0.03652  -0.03850  -1.00939
    D2        1.12543   0.00163   0.00000   0.02462   0.02453   1.14996
    D3       -3.07149  -0.00191   0.00000  -0.03258  -0.03050  -3.10199
    D4        1.07011  -0.00078   0.00000  -0.03537  -0.03736   1.03274
    D5       -3.11676   0.00170   0.00000   0.02577   0.02567  -3.09109
    D6       -1.03050  -0.00184   0.00000  -0.03144  -0.02936  -1.05985
    D7        1.35577   0.00119   0.00000   0.00259   0.00333   1.35909
    D8       -2.77422  -0.00122   0.00000  -0.03146  -0.03164  -2.80586
    D9       -0.80962   0.00327   0.00000   0.03497   0.03500  -0.77462
   D10       -0.74043  -0.00092   0.00000  -0.06364  -0.06364  -0.80406
   D11        1.41278  -0.00333   0.00000  -0.09769  -0.09861   1.31417
   D12       -2.90582   0.00116   0.00000  -0.03126  -0.03196  -2.93778
   D13       -2.75417  -0.00315   0.00000  -0.07399  -0.07280  -2.82698
   D14       -0.60097  -0.00556   0.00000  -0.10803  -0.10777  -0.70874
   D15        1.36362  -0.00107   0.00000  -0.04160  -0.04113   1.32249
   D16       -1.35649  -0.00826   0.00000  -0.06480  -0.06471  -1.42120
   D17        0.79767  -0.00834   0.00000  -0.08140  -0.08116   0.71651
   D18        2.76119  -0.00435   0.00000  -0.01542  -0.01516   2.74603
   D19        0.74437   0.00166   0.00000   0.05621   0.05591   0.80029
   D20        2.89853   0.00158   0.00000   0.03960   0.03947   2.93800
   D21       -1.42114   0.00558   0.00000   0.10558   0.10547  -1.31567
   D22        2.76250   0.00165   0.00000   0.06146   0.06187   2.82437
   D23       -1.36652   0.00157   0.00000   0.04485   0.04542  -1.32110
   D24        0.59700   0.00556   0.00000   0.11083   0.11142   0.70842
   D25        0.91426   0.00406   0.00000   0.04827   0.04850   0.96276
   D26       -1.22409   0.00262   0.00000   0.03969   0.03992  -1.18417
   D27        3.00293   0.00159   0.00000   0.02067   0.02091   3.02384
   D28       -1.22547   0.00194   0.00000   0.04608   0.04572  -1.17975
   D29        2.91936   0.00050   0.00000   0.03751   0.03714   2.95651
   D30        0.86319  -0.00053   0.00000   0.01849   0.01814   0.88134
   D31        3.08655   0.00016   0.00000   0.00649   0.00663   3.09319
   D32        0.94820  -0.00128   0.00000  -0.00209  -0.00195   0.94626
   D33       -1.10797  -0.00231   0.00000  -0.02111  -0.02095  -1.12891
   D34       -1.10481   0.00147   0.00000   0.01187   0.01145  -1.09336
   D35        1.04007   0.00177   0.00000   0.01805   0.01780   1.05787
   D36        3.07415  -0.00058   0.00000   0.00792   0.00832   3.08246
   D37        1.10776  -0.00212   0.00000  -0.01853  -0.01820   1.08957
   D38       -1.03497  -0.00293   0.00000  -0.03003  -0.02974  -1.06472
   D39       -3.07178  -0.00034   0.00000  -0.01445  -0.01491  -3.08668
   D40       -0.92093  -0.00462   0.00000  -0.03594  -0.03607  -0.95700
   D41       -3.07718  -0.00126   0.00000  -0.00574  -0.00553  -3.08271
   D42        1.23117  -0.00420   0.00000  -0.06205  -0.06144   1.16973
   D43        1.21800  -0.00236   0.00000  -0.02493  -0.02517   1.19283
   D44       -0.93825   0.00101   0.00000   0.00527   0.00538  -0.93288
   D45       -2.91309  -0.00193   0.00000  -0.05103  -0.05054  -2.96362
   D46       -3.01037  -0.00095   0.00000  -0.00577  -0.00618  -3.01655
   D47        1.11657   0.00241   0.00000   0.02443   0.02436   1.14093
   D48       -0.85827  -0.00053   0.00000  -0.03187  -0.03155  -0.88982
         Item               Value     Threshold  Converged?
 Maximum Force            0.016901     0.000450     NO 
 RMS     Force            0.004423     0.000300     NO 
 Maximum Displacement     0.170051     0.001800     NO 
 RMS     Displacement     0.047573     0.001200     NO 
 Predicted change in Energy=-7.472206D-03
 GradGradGradGradGradGradGradGradGradGradGradGradGradGradGradGradGradGrad

                          Input orientation:                          
 ---------------------------------------------------------------------
 Center     Atomic      Atomic             Coordinates (Angstroms)
 Number     Number       Type             X           Y           Z
 ---------------------------------------------------------------------
      1          7           0        1.848646   -0.286209    0.503933
      2          6           0        0.644964    0.548615    0.584998
      3          6           0        0.154704    1.143528   -0.764521
      4          6           0       -0.591641    0.114733   -1.614730
      5          8           0       -1.671986   -0.465351   -0.904240
      6          6           0       -1.203470   -1.176630    0.230976
      7          6           0       -0.500150   -0.256431    1.229414
      8          1           0        1.689420   -1.057043   -0.137933
      9          1           0        2.626267    0.247493    0.124132
     10          1           0        0.864808    1.388591    1.250590
     11          1           0       -0.511187    2.001254   -0.594526
     12          1           0        1.013815    1.537313   -1.325163
     13          1           0        0.098173   -0.671832   -1.966352
     14          1           0       -1.026544    0.587067   -2.498916
     15          1           0       -0.532167   -1.993697   -0.083124
     16          1           0       -2.085194   -1.635551    0.684877
     17          1           0       -0.097441   -0.842378    2.065097
     18          1           0       -1.240716    0.429128    1.658087
 ---------------------------------------------------------------------
                    Distance matrix (angstroms):
                    1          2          3          4          5
     1  N    0.000000
     2  C    1.467090   0.000000
     3  C    2.553931   1.554181   0.000000
     4  C    3.256453   2.560517   1.529152   0.000000
     5  O    3.796037   2.934999   2.438198   1.417194   0.000000
     6  C    3.191045   2.553138   2.866843   2.334220   1.419204
     7  C    2.458465   1.540992   2.522795   2.869719   2.443220
     8  H    1.015643   2.047353   2.755082   2.959261   3.498053
     9  H    1.016750   2.056363   2.775104   3.660082   4.476681
    10  H    2.080959   1.094031   2.150575   3.457458   3.809950
    11  H    3.465244   2.199574   1.099093   2.146218   2.743632
    12  H    2.714363   2.182267   1.098844   2.164503   3.376591
    13  H    3.052077   2.880601   2.177872   1.103706   2.074652
    14  H    4.248109   3.507983   2.170973   1.092715   2.016722
    15  H    2.988047   2.880169   3.283028   2.606689   2.075876
    16  H    4.162759   3.497759   3.852425   3.253057   2.016284
    17  H    2.556132   2.162572   3.466142   3.834243   3.382057
    18  H    3.374602   2.172922   2.885584   3.351339   2.748019
                    6          7          8          9         10
     6  C    0.000000
     7  C    1.529152   0.000000
     8  H    2.918768   2.702746   0.000000
     9  H    4.087350   3.354112   1.627322   0.000000
    10  H    3.449311   2.137675   2.930718   2.381963   0.000000
    11  H    3.355542   2.902417   3.795304   3.665483   2.381842
    12  H    3.834503   3.469218   2.932003   2.522715   2.584342
    13  H    2.603334   3.277723   2.454296   3.406838   3.896382
    14  H    3.254879   3.858629   3.956488   4.509847   4.275330
    15  H    1.103134   2.177584   2.411591   3.878349   3.894894
    16  H    1.092735   2.170451   3.906327   5.104718   4.262391
    17  H    2.167724   1.097212   2.844696   3.517633   2.562531
    18  H    2.148603   1.096445   3.744342   4.164081   2.349437
                   11         12         13         14         15
    11  H    0.000000
    12  H    1.753483   0.000000
    13  H    3.065717   2.475853   0.000000
    14  H    2.427389   2.538450   1.770153   0.000000
    15  H    4.027606   4.049784   2.385624   3.569426   0.000000
    16  H    4.164219   4.869413   3.567192   4.024587   1.769176
    17  H    3.915485   4.288552   4.039794   4.872038   2.475758
    18  H    2.842193   3.900098   4.017624   4.165512   3.066584
                   16         17         18
    16  H    0.000000
    17  H    2.546624   0.000000
    18  H    2.433759   1.757687   0.000000
 Stoichiometry    C5H11NO
 Framework group  C1[X(C5H11NO)]
 Deg. of freedom    48
 Full point group                 C1      NOp   1
 Largest Abelian subgroup         C1      NOp   1
 Largest concise Abelian subgroup C1      NOp   1
                         Standard orientation:                         
 ---------------------------------------------------------------------
 Center     Atomic      Atomic             Coordinates (Angstroms)
 Number     Number       Type             X           Y           Z
 ---------------------------------------------------------------------
      1          7           0        1.973683   -0.112421   -0.732624
      2          6           0        1.133751   -0.019879    0.466668
      3          6           0        0.254729    1.257874    0.567396
      4          6           0       -0.987393    1.178721   -0.320958
      5          8           0       -1.756564    0.021610   -0.041836
      6          6           0       -1.013668   -1.155350   -0.319342
      7          6           0        0.230644   -1.264802    0.562708
      8          1           0        1.391786   -0.067094   -1.563810
      9          1           0        2.608907    0.679844   -0.783505
     10          1           0        1.793987   -0.030677    1.338950
     11          1           0       -0.070411    1.427826    1.603449
     12          1           0        0.853603    2.137345    0.292920
     13          1           0       -0.703630    1.198480   -1.387380
     14          1           0       -1.645126    2.032760   -0.141987
     15          1           0       -0.736687   -1.186915   -1.386670
     16          1           0       -1.692236   -1.991544   -0.133881
     17          1           0        0.814706   -2.151022    0.284572
     18          1           0       -0.086551   -1.414320    1.601564
 ---------------------------------------------------------------------
 Rotational constants (GHZ):           3.8792939           2.5355933           1.9381904
 Standard basis: 6-31G(d,p) (6D, 7F)
 There are   160 symmetry adapted cartesian basis functions of A   symmetry.
 There are   160 symmetry adapted basis functions of A   symmetry.
   160 basis functions,   273 primitive gaussians,   160 cartesian basis functions
    28 alpha electrons       28 beta electrons
       nuclear repulsion energy       337.5434520019 Hartrees.
 NAtoms=   18 NActive=   18 NUniq=   18 SFac= 1.00D+00 NAtFMM=   60 NAOKFM=F Big=F
 Integral buffers will be    131072 words long.
 Raffenetti 2 integral format.
 Two-electron integral symmetry is turned on.
 Nuclear repulsion after empirical dispersion term =      337.5167653891 Hartrees.
 One-electron integrals computed using PRISM.
 NBasis=   160 RedAO= T EigKep=  3.75D-03  NBF=   160
 NBsUse=   160 1.00D-06 EigRej= -1.00D+00 NBFU=   160
 Initial guess from the checkpoint file:  "N5_conf-3.chk"
 B after Tr=     0.000000    0.000000   -0.000000
         Rot=    0.999579    0.013761    0.011279   -0.022901 Ang=   3.32 deg.
 ExpMin= 1.61D-01 ExpMax= 5.48D+03 ExpMxC= 8.25D+02 IAcc=3 IRadAn=         5 AccDes= 0.00D+00
 Harris functional with IExCor=  402 and IRadAn=       5 diagonalized for initial guess.
 HarFok:  IExCor=  402 AccDes= 0.00D+00 IRadAn=         5 IDoV= 1 UseB2=F ITyADJ=14
 ICtDFT=  3500011 ScaDFX=  1.000000  1.000000  1.000000  1.000000
 FoFCou: FMM=F IPFlag=           0 FMFlag=      100000 FMFlg1=           0
         NFxFlg=           0 DoJE=T BraDBF=F KetDBF=T FulRan=T
         wScrn=  0.000000 ICntrl=       500 IOpCl=  0 I1Cent=   200000004 NGrid=           0
         NMat0=    1 NMatS0=      1 NMatT0=    0 NMatD0=    1 NMtDS0=    0 NMtDT0=    0
 Petite list used in FoFCou.
 Requested convergence on RMS density matrix=1.00D-08 within 128 cycles.
 Requested convergence on MAX density matrix=1.00D-06.
 Requested convergence on             energy=1.00D-06.
 No special actions if energy rises.
 Integral accuracy reduced to 1.0D-05 until final iterations.
 Initial convergence to 1.0D-05 achieved.  Increase integral accuracy.
 SCF Done:  E(RB3LYP) =  -327.155925310     A.U. after   11 cycles
            NFock= 11  Conv=0.49D-08     -V/T= 2.0094
 Calling FoFJK, ICntrl=      2127 FMM=F ISym2X=0 I1Cent= 0 IOpClX= 0 NMat=1 NMatS=1 NMatT=0.
 ***** Axes restored to original set *****
 -------------------------------------------------------------------
 Center     Atomic                   Forces (Hartrees/Bohr)
 Number     Number              X              Y              Z
 -------------------------------------------------------------------
      1        7          -0.001300743    0.000359156    0.001357209
      2        6          -0.006646101    0.002314139   -0.002087905
      3        6           0.002734595    0.002114972   -0.000941820
      4        6           0.000829674    0.002925291   -0.001434357
      5        8           0.000494815   -0.001168563   -0.000504740
      6        6          -0.001146608   -0.000182144    0.003316534
      7        6           0.000002741   -0.000874624    0.004307457
      8        1           0.000632189   -0.001444765   -0.001222360
      9        1          -0.000472267    0.000795156   -0.001198448
     10        1           0.004069418   -0.000225725    0.001036921
     11        1          -0.000409343   -0.002662606    0.002829558
     12        1          -0.000098429   -0.000937957   -0.000060890
     13        1           0.000536237   -0.001018264    0.000582845
     14        1           0.000261135    0.000085736   -0.000933168
     15        1           0.000623362   -0.000327464   -0.001030924
     16        1          -0.000091183   -0.000770543    0.000555629
     17        1           0.000179585   -0.000059160   -0.001698650
     18        1          -0.000199077    0.001077363   -0.002872890
 -------------------------------------------------------------------
 Cartesian Forces:  Max     0.006646101 RMS     0.001788810

 GradGradGradGradGradGradGradGradGradGradGradGradGradGradGradGradGradGrad
 Berny optimization.
 Using GEDIIS/GDIIS optimizer.
 FormGI is forming the generalized inverse of G from B-inverse, IUseBI=4.
 Internal  Forces:  Max     0.002622667 RMS     0.000889350
 Search for a local minimum.
 Step number   2 out of a maximum of  108
 All quantities printed in internal units (Hartrees-Bohrs-Radians)
 Mixed Optimization -- En-DIIS/RFO-DIIS
 Update second derivatives using D2CorX and points    1    2
 DE= -6.62D-03 DEPred=-7.47D-03 R= 8.85D-01
 TightC=F SS=  1.41D+00  RLast= 3.96D-01 DXNew= 5.0454D-01 1.1881D+00
 Trust test= 8.85D-01 RLast= 3.96D-01 DXMaxT set to 5.05D-01
 ITU=  1  0
 Use linear search instead of GDIIS.
     Eigenvalues ---    0.00407   0.00501   0.01098   0.01290   0.02452
     Eigenvalues ---    0.03278   0.04094   0.04359   0.04502   0.04591
     Eigenvalues ---    0.04902   0.05059   0.05529   0.05798   0.05949
     Eigenvalues ---    0.06311   0.08258   0.08287   0.08555   0.08748
     Eigenvalues ---    0.10872   0.11705   0.11780   0.13368   0.14471
     Eigenvalues ---    0.15850   0.15999   0.16832   0.17965   0.21617
     Eigenvalues ---    0.27349   0.27926   0.28339   0.28486   0.34228
     Eigenvalues ---    0.34595   0.34605   0.34721   0.34729   0.34732
     Eigenvalues ---    0.34778   0.34805   0.35098   0.38967   0.40506
     Eigenvalues ---    0.40923   0.45864   0.46156
 RFO step:  Lambda=-1.90834843D-03 EMin= 4.06804290D-03
 Quartic linear search produced a step of  0.03597.
 Iteration  1 RMS(Cart)=  0.05727513 RMS(Int)=  0.00130582
 Iteration  2 RMS(Cart)=  0.00162357 RMS(Int)=  0.00025686
 Iteration  3 RMS(Cart)=  0.00000069 RMS(Int)=  0.00025686
 Variable       Old X    -DE/DX   Delta X   Delta X   Delta X     New X
                                 (Linear)    (Quad)   (Total)
    R1        2.77240  -0.00071   0.00151  -0.00045   0.00106   2.77346
    R2        1.91929   0.00177   0.00049   0.00436   0.00486   1.92414
    R3        1.92138   0.00050   0.00047   0.00155   0.00202   1.92340
    R4        2.93698  -0.00262   0.00093  -0.01353  -0.01283   2.92415
    R5        2.91205   0.00016   0.00011  -0.00307  -0.00321   2.90885
    R6        2.06742   0.00127   0.00014   0.00387   0.00401   2.07142
    R7        2.88968  -0.00047  -0.00076  -0.00230  -0.00311   2.88657
    R8        2.07698  -0.00139   0.00060  -0.00352  -0.00292   2.07406
    R9        2.07651  -0.00038   0.00059  -0.00057   0.00001   2.07652
   R10        2.67811   0.00197  -0.00032   0.00696   0.00689   2.68500
   R11        2.08570   0.00087   0.00081   0.00331   0.00412   2.08982
   R12        2.06493   0.00069   0.00014   0.00214   0.00228   2.06721
   R13        2.68191   0.00130  -0.00026   0.00640   0.00636   2.68827
   R14        2.88968  -0.00041  -0.00066  -0.00145  -0.00204   2.88764
   R15        2.08462   0.00091   0.00077   0.00339   0.00416   2.08878
   R16        2.06497   0.00063   0.00014   0.00196   0.00210   2.06707
   R17        2.07343  -0.00120   0.00043  -0.00310  -0.00267   2.07076
   R18        2.07198  -0.00032   0.00044  -0.00052  -0.00008   2.07190
    A1        1.91577   0.00151  -0.00009   0.00677   0.00667   1.92244
    A2        1.92777  -0.00207   0.00041  -0.01539  -0.01499   1.91278
    A3        1.85690  -0.00027  -0.00012  -0.00734  -0.00747   1.84943
    A4        2.01379  -0.00143   0.00348  -0.01157  -0.00771   2.00608
    A5        1.91295   0.00009   0.00013  -0.00059  -0.00022   1.91273
    A6        1.88141  -0.00061  -0.00400  -0.01903  -0.02317   1.85824
    A7        1.90570   0.00130  -0.00014  -0.00654  -0.00788   1.89782
    A8        1.87315   0.00038   0.00011   0.01794   0.01822   1.89137
    A9        1.87131   0.00035   0.00029   0.02282   0.02331   1.89463
   A10        1.95974   0.00024  -0.00152  -0.01990  -0.02246   1.93728
   A11        1.93428  -0.00198   0.00145  -0.01812  -0.01666   1.91763
   A12        1.91089   0.00043  -0.00045   0.00723   0.00715   1.91804
   A13        1.89160   0.00106  -0.00098   0.00759   0.00644   1.89804
   A14        1.91667  -0.00084   0.00022   0.00094   0.00142   1.91809
   A15        1.84723   0.00113   0.00153   0.02494   0.02633   1.87356
   A16        1.94842  -0.00054   0.00132  -0.00125  -0.00032   1.94809
   A17        1.93003  -0.00037  -0.00039  -0.00728  -0.00765   1.92237
   A18        1.93193   0.00056   0.00028   0.00782   0.00822   1.94014
   A19        1.92246  -0.00012  -0.00027  -0.00801  -0.00833   1.91413
   A20        1.85375   0.00047  -0.00161   0.00686   0.00546   1.85921
   A21        1.87446   0.00005   0.00060   0.00256   0.00316   1.87761
   A22        1.93318   0.00084  -0.00147   0.01458   0.01239   1.94557
   A23        1.95252  -0.00070   0.00153  -0.00107   0.00020   1.95272
   A24        1.92235  -0.00060  -0.00036  -0.01005  -0.01053   1.91182
   A25        1.85081   0.00093  -0.00179   0.00778   0.00622   1.85702
   A26        1.93022   0.00018  -0.00031  -0.00330  -0.00356   1.92666
   A27        1.93118   0.00035   0.00027   0.00604   0.00634   1.93753
   A28        1.87364  -0.00011   0.00057   0.00110   0.00165   1.87530
   A29        1.96396  -0.00014  -0.00138  -0.01746  -0.01982   1.94415
   A30        1.90155   0.00041  -0.00039   0.00332   0.00328   1.90483
   A31        1.91639  -0.00089   0.00060  -0.00643  -0.00597   1.91042
   A32        1.92277  -0.00089   0.00051  -0.00098  -0.00029   1.92248
   A33        1.89746   0.00046  -0.00098  -0.00198  -0.00290   1.89455
   A34        1.85879   0.00112   0.00190   0.02590   0.02768   1.88648
    D1       -1.00939  -0.00041  -0.00139  -0.00282  -0.00385  -1.01325
    D2        1.14996   0.00033   0.00088  -0.02064  -0.02014   1.12982
    D3       -3.10199   0.00046  -0.00110  -0.00442  -0.00549  -3.10748
    D4        1.03274  -0.00107  -0.00134  -0.01684  -0.01783   1.01491
    D5       -3.09109  -0.00033   0.00092  -0.03466  -0.03411  -3.12521
    D6       -1.05985  -0.00020  -0.00106  -0.01844  -0.01947  -1.07932
    D7        1.35909  -0.00021   0.00012  -0.09310  -0.09292   1.26617
    D8       -2.80586  -0.00009  -0.00114  -0.11009  -0.11117  -2.91703
    D9       -0.77462   0.00039   0.00126  -0.08594  -0.08462  -0.85924
   D10       -0.80406  -0.00032  -0.00229  -0.07850  -0.08080  -0.88486
   D11        1.31417  -0.00020  -0.00355  -0.09549  -0.09905   1.21512
   D12       -2.93778   0.00028  -0.00115  -0.07134  -0.07250  -3.01028
   D13       -2.82698  -0.00161  -0.00262  -0.11167  -0.11420  -2.94118
   D14       -0.70874  -0.00149  -0.00388  -0.12866  -0.13245  -0.84120
   D15        1.32249  -0.00101  -0.00148  -0.10451  -0.10590   1.21659
   D16       -1.42120   0.00113  -0.00233   0.09372   0.09139  -1.32981
   D17        0.71651   0.00020  -0.00292   0.08311   0.08019   0.79670
   D18        2.74603   0.00128  -0.00055   0.11252   0.11206   2.85809
   D19        0.80029   0.00030   0.00201   0.07388   0.07592   0.87620
   D20        2.93800  -0.00064   0.00142   0.06327   0.06472   3.00271
   D21       -1.31567   0.00044   0.00379   0.09268   0.09658  -1.21908
   D22        2.82437   0.00161   0.00223   0.10392   0.10608   2.93045
   D23       -1.32110   0.00067   0.00163   0.09331   0.09488  -1.22623
   D24        0.70842   0.00175   0.00401   0.12272   0.12674   0.83516
   D25        0.96276  -0.00084   0.00174   0.02662   0.02800   0.99076
   D26       -1.18417  -0.00005   0.00144   0.04302   0.04429  -1.13988
   D27        3.02384  -0.00023   0.00075   0.03950   0.04005   3.06389
   D28       -1.17975   0.00076   0.00164   0.05735   0.05894  -1.12081
   D29        2.95651   0.00156   0.00134   0.07376   0.07523   3.03174
   D30        0.88134   0.00137   0.00065   0.07024   0.07100   0.95233
   D31        3.09319  -0.00072   0.00024   0.02295   0.02295   3.11614
   D32        0.94626   0.00007  -0.00007   0.03935   0.03925   0.98550
   D33       -1.12891  -0.00011  -0.00075   0.03583   0.03501  -1.09391
   D34       -1.09336   0.00078   0.00041   0.02458   0.02508  -1.06828
   D35        1.05787  -0.00015   0.00064   0.00864   0.00922   1.06709
   D36        3.08246   0.00011   0.00030   0.01141   0.01172   3.09419
   D37        1.08957  -0.00072  -0.00065  -0.03132  -0.03193   1.05764
   D38       -1.06472  -0.00002  -0.00107  -0.01905  -0.01998  -1.08470
   D39       -3.08668  -0.00010  -0.00054  -0.01960  -0.02005  -3.10673
   D40       -0.95700   0.00098  -0.00130  -0.01459  -0.01551  -0.97252
   D41       -3.08271   0.00119  -0.00020  -0.00612  -0.00606  -3.08877
   D42        1.16973   0.00007  -0.00221  -0.03559  -0.03761   1.13211
   D43        1.19283  -0.00017  -0.00091  -0.03073  -0.03147   1.16136
   D44       -0.93288   0.00004   0.00019  -0.02225  -0.02202  -0.95489
   D45       -2.96362  -0.00107  -0.00182  -0.05172  -0.05358  -3.01720
   D46       -3.01655   0.00003  -0.00022  -0.02762  -0.02766  -3.04420
   D47        1.14093   0.00024   0.00088  -0.01914  -0.01820   1.12273
   D48       -0.88982  -0.00087  -0.00113  -0.04861  -0.04976  -0.93957
         Item               Value     Threshold  Converged?
 Maximum Force            0.002623     0.000450     NO 
 RMS     Force            0.000889     0.000300     NO 
 Maximum Displacement     0.167934     0.001800     NO 
 RMS     Displacement     0.057531     0.001200     NO 
 Predicted change in Energy=-1.142144D-03
 GradGradGradGradGradGradGradGradGradGradGradGradGradGradGradGradGradGrad

                          Input orientation:                          
 ---------------------------------------------------------------------
 Center     Atomic      Atomic             Coordinates (Angstroms)
 Number     Number       Type             X           Y           Z
 ---------------------------------------------------------------------
      1          7           0        1.808570   -0.330535    0.453217
      2          6           0        0.640547    0.548297    0.585058
      3          6           0        0.137818    1.168646   -0.740407
      4          6           0       -0.552798    0.118803   -1.608831
      5          8           0       -1.629612   -0.503070   -0.921422
      6          6           0       -1.180193   -1.180882    0.245756
      7          6           0       -0.517531   -0.226970    1.238701
      8          1           0        1.602598   -1.093693   -0.188593
      9          1           0        2.579277    0.186456    0.035265
     10          1           0        0.938194    1.362160    1.256311
     11          1           0       -0.575411    1.975334   -0.527884
     12          1           0        0.980330    1.612283   -1.288887
     13          1           0        0.175830   -0.648262   -1.930849
     14          1           0       -0.978052    0.569617   -2.510269
     15          1           0       -0.479336   -1.986035   -0.041115
     16          1           0       -2.061963   -1.655158    0.686262
     17          1           0       -0.134921   -0.785192    2.100545
     18          1           0       -1.273047    0.480801    1.599741
 ---------------------------------------------------------------------
                    Distance matrix (angstroms):
                    1          2          3          4          5
     1  N    0.000000
     2  C    1.467653   0.000000
     3  C    2.542380   1.547394   0.000000
     4  C    3.167019   2.534104   1.527508   0.000000
     5  O    3.706818   2.920356   2.439511   1.420840   0.000000
     6  C    3.114295   2.533827   2.868789   2.349957   1.422571
     7  C    2.457327   1.539296   2.508804   2.868665   2.445217
     8  H    1.018212   2.054315   2.751047   2.851833   3.366460
     9  H    1.017818   2.047407   2.743554   3.538012   4.370978
    10  H    2.065848   1.096151   2.159845   3.460929   3.849056
    11  H    3.458751   2.180282   1.097546   2.148410   2.721893
    12  H    2.737782   2.181557   1.098850   2.164100   3.379579
    13  H    2.906985   2.824447   2.172499   1.105886   2.073559
    14  H    4.166268   3.493046   2.176330   1.093922   2.024753
    15  H    2.866977   2.840611   3.289666   2.625543   2.072983
    16  H    4.097555   3.488411   3.853348   3.269858   2.024569
    17  H    2.587965   2.162463   3.458740   3.840742   3.383190
    18  H    3.386613   2.167021   2.817794   3.308282   2.729726
                    6          7          8          9         10
     6  C    0.000000
     7  C    1.528074   0.000000
     8  H    2.817834   2.698763   0.000000
     9  H    4.005938   3.348044   1.625668   0.000000
    10  H    3.460613   2.155175   2.925815   2.359319   0.000000
    11  H    3.305447   2.823883   3.778593   3.670052   2.418746
    12  H    3.850293   3.466287   2.986665   2.518530   2.557806
    13  H    2.619177   3.271740   2.295545   3.215419   3.844604
    14  H    3.271205   3.860234   3.849225   4.391031   4.299680
    15  H    1.105336   2.175706   2.269906   3.752421   3.860455
    16  H    1.093847   2.174897   3.809149   5.035519   4.293029
    17  H    2.165504   1.095799   2.890381   3.546316   2.544686
    18  H    2.145480   1.096401   3.734502   4.168288   2.405062
                   11         12         13         14         15
    11  H    0.000000
    12  H    1.769538   0.000000
    13  H    3.068539   2.483828   0.000000
    14  H    2.463334   2.532625   1.774937   0.000000
    15  H    3.992320   4.078658   2.406236   3.588426   0.000000
    16  H    4.106636   4.881899   3.587594   4.042561   1.772925
    17  H    3.837079   4.298828   4.045671   4.879138   2.479386
    18  H    2.692046   3.834336   3.979836   4.121540   3.067192
                   16         17         18
    16  H    0.000000
    17  H    2.543723   0.000000
    18  H    2.453396   1.774506   0.000000
 Stoichiometry    C5H11NO
 Framework group  C1[X(C5H11NO)]
 Deg. of freedom    48
 Full point group                 C1      NOp   1
 Largest Abelian subgroup         C1      NOp   1
 Largest concise Abelian subgroup C1      NOp   1
                         Standard orientation:                         
 ---------------------------------------------------------------------
 Center     Atomic      Atomic             Coordinates (Angstroms)
 Number     Number       Type             X           Y           Z
 ---------------------------------------------------------------------
      1          7           0        1.898731   -0.124232   -0.784389
      2          6           0        1.133070   -0.035007    0.464533
      3          6           0        0.273445    1.243051    0.612993
      4          6           0       -0.940789    1.196589   -0.312621
      5          8           0       -1.735839    0.043116   -0.075593
      6          6           0       -1.003193   -1.152537   -0.315073
      7          6           0        0.217275   -1.265077    0.597506
      8          1           0        1.271008   -0.077262   -1.584710
      9          1           0        2.515663    0.681297   -0.864836
     10          1           0        1.865239   -0.055474    1.280042
     11          1           0       -0.076120    1.339297    1.648922
     12          1           0        0.881132    2.130618    0.388468
     13          1           0       -0.615026    1.213475   -1.369303
     14          1           0       -1.591801    2.061228   -0.153726
     15          1           0       -0.695619   -1.191401   -1.376042
     16          1           0       -1.698067   -1.979926   -0.144542
     17          1           0        0.789474   -2.167087    0.353086
     18          1           0       -0.129131   -1.352187    1.634091
 ---------------------------------------------------------------------
 Rotational constants (GHZ):           3.8117069           2.5989367           1.9961426
 Standard basis: 6-31G(d,p) (6D, 7F)
 There are   160 symmetry adapted cartesian basis functions of A   symmetry.
 There are   160 symmetry adapted basis functions of A   symmetry.
   160 basis functions,   273 primitive gaussians,   160 cartesian basis functions
    28 alpha electrons       28 beta electrons
       nuclear repulsion energy       338.7370407143 Hartrees.
 NAtoms=   18 NActive=   18 NUniq=   18 SFac= 1.00D+00 NAtFMM=   60 NAOKFM=F Big=F
 Integral buffers will be    131072 words long.
 Raffenetti 2 integral format.
 Two-electron integral symmetry is turned on.
 Nuclear repulsion after empirical dispersion term =      338.7100861939 Hartrees.
 One-electron integrals computed using PRISM.
 NBasis=   160 RedAO= T EigKep=  3.68D-03  NBF=   160
 NBsUse=   160 1.00D-06 EigRej= -1.00D+00 NBFU=   160
 Initial guess from the checkpoint file:  "N5_conf-3.chk"
 B after Tr=    -0.000000   -0.000000    0.000000
         Rot=    0.999976   -0.002017   -0.003432    0.005683 Ang=  -0.80 deg.
 ExpMin= 1.61D-01 ExpMax= 5.48D+03 ExpMxC= 8.25D+02 IAcc=3 IRadAn=         5 AccDes= 0.00D+00
 Harris functional with IExCor=  402 and IRadAn=       5 diagonalized for initial guess.
 HarFok:  IExCor=  402 AccDes= 0.00D+00 IRadAn=         5 IDoV= 1 UseB2=F ITyADJ=14
 ICtDFT=  3500011 ScaDFX=  1.000000  1.000000  1.000000  1.000000
 FoFCou: FMM=F IPFlag=           0 FMFlag=      100000 FMFlg1=           0
         NFxFlg=           0 DoJE=T BraDBF=F KetDBF=T FulRan=T
         wScrn=  0.000000 ICntrl=       500 IOpCl=  0 I1Cent=   200000004 NGrid=           0
         NMat0=    1 NMatS0=      1 NMatT0=    0 NMatD0=    1 NMtDS0=    0 NMtDT0=    0
 Petite list used in FoFCou.
 Requested convergence on RMS density matrix=1.00D-08 within 128 cycles.
 Requested convergence on MAX density matrix=1.00D-06.
 Requested convergence on             energy=1.00D-06.
 No special actions if energy rises.
 Integral accuracy reduced to 1.0D-05 until final iterations.
 Initial convergence to 1.0D-05 achieved.  Increase integral accuracy.
 SCF Done:  E(RB3LYP) =  -327.156976800     A.U. after   11 cycles
            NFock= 11  Conv=0.48D-08     -V/T= 2.0094
 Calling FoFJK, ICntrl=      2127 FMM=F ISym2X=0 I1Cent= 0 IOpClX= 0 NMat=1 NMatS=1 NMatT=0.
 ***** Axes restored to original set *****
 -------------------------------------------------------------------
 Center     Atomic                   Forces (Hartrees/Bohr)
 Number     Number              X              Y              Z
 -------------------------------------------------------------------
      1        7           0.000484471   -0.001041560   -0.000610666
      2        6          -0.002253090    0.001458651    0.000041815
      3        6           0.001773349    0.000358589   -0.000126457
      4        6           0.000059903   -0.000162802   -0.000668193
      5        8          -0.000581529    0.000336419    0.000030268
      6        6           0.000432326   -0.000992216   -0.000406435
      7        6           0.000905460    0.000381108    0.001587609
      8        1           0.000713793    0.000442800    0.000483555
      9        1          -0.000062188   -0.000111186   -0.000251519
     10        1           0.000288482   -0.000244540    0.000396015
     11        1           0.000110060   -0.000746399    0.000298219
     12        1          -0.000816851   -0.000008128    0.000163397
     13        1          -0.000288961    0.000603226   -0.000167672
     14        1          -0.000043031   -0.000528008    0.000222048
     15        1          -0.000680023   -0.000040396    0.000466324
     16        1           0.000201620    0.000102242   -0.000389390
     17        1          -0.000582977    0.000195178   -0.000396577
     18        1           0.000339187   -0.000002979   -0.000672342
 -------------------------------------------------------------------
 Cartesian Forces:  Max     0.002253090 RMS     0.000658303

 GradGradGradGradGradGradGradGradGradGradGradGradGradGradGradGradGradGrad
 Berny optimization.
 Using GEDIIS/GDIIS optimizer.
 FormGI is forming the generalized inverse of G from B-inverse, IUseBI=4.
 Internal  Forces:  Max     0.001368291 RMS     0.000339305
 Search for a local minimum.
 Step number   3 out of a maximum of  108
 All quantities printed in internal units (Hartrees-Bohrs-Radians)
 Mixed Optimization -- En-DIIS/RFO-DIIS
 Swapping is turned off.
 Update second derivatives using D2CorX and points    2    3
 DE= -1.05D-03 DEPred=-1.14D-03 R= 9.21D-01
 TightC=F SS=  1.41D+00  RLast= 4.65D-01 DXNew= 8.4853D-01 1.3959D+00
 Trust test= 9.21D-01 RLast= 4.65D-01 DXMaxT set to 8.49D-01
 ITU=  1  1  0
     Eigenvalues ---    0.00512   0.00519   0.01093   0.01262   0.02495
     Eigenvalues ---    0.03385   0.03978   0.04361   0.04557   0.04661
     Eigenvalues ---    0.04984   0.05091   0.05585   0.05829   0.05999
     Eigenvalues ---    0.06518   0.08007   0.08043   0.08370   0.08583
     Eigenvalues ---    0.10875   0.11733   0.11757   0.13142   0.14306
     Eigenvalues ---    0.15758   0.16000   0.16699   0.17764   0.21592
     Eigenvalues ---    0.27327   0.27881   0.28179   0.28571   0.34342
     Eigenvalues ---    0.34593   0.34605   0.34722   0.34731   0.34755
     Eigenvalues ---    0.34791   0.34803   0.34868   0.39164   0.40521
     Eigenvalues ---    0.40885   0.45903   0.46303
 En-DIIS/RFO-DIIS/Sim-DIIS IScMMF=       -3 using points:     3    2
 RFO step:  Lambda=-1.08130234D-04.
 DidBck=F Rises=F RFO-DIIS coefs:    1.14124   -0.14124
 Iteration  1 RMS(Cart)=  0.00875137 RMS(Int)=  0.00007008
 Iteration  2 RMS(Cart)=  0.00005750 RMS(Int)=  0.00003964
 Iteration  3 RMS(Cart)=  0.00000000 RMS(Int)=  0.00003964
 Variable       Old X    -DE/DX   Delta X   Delta X   Delta X     New X
                                 (Linear)    (Quad)   (Total)
    R1        2.77346   0.00137   0.00015   0.00373   0.00388   2.77734
    R2        1.92414  -0.00078   0.00069  -0.00225  -0.00156   1.92258
    R3        1.92340  -0.00000   0.00029  -0.00018   0.00010   1.92350
    R4        2.92415  -0.00017  -0.00181   0.00018  -0.00166   2.92249
    R5        2.90885  -0.00011  -0.00045  -0.00054  -0.00102   2.90782
    R6        2.07142   0.00014   0.00057   0.00005   0.00062   2.07204
    R7        2.88657   0.00054  -0.00044   0.00242   0.00198   2.88855
    R8        2.07406  -0.00056  -0.00041  -0.00143  -0.00184   2.07222
    R9        2.07652  -0.00071   0.00000  -0.00217  -0.00217   2.07436
   R10        2.68500   0.00020   0.00097   0.00013   0.00114   2.68614
   R11        2.08982  -0.00056   0.00058  -0.00211  -0.00152   2.08830
   R12        2.06721  -0.00038   0.00032  -0.00140  -0.00107   2.06614
   R13        2.68827   0.00026   0.00090   0.00039   0.00132   2.68959
   R14        2.88764   0.00084  -0.00029   0.00323   0.00295   2.89059
   R15        2.08878  -0.00052   0.00059  -0.00200  -0.00141   2.08737
   R16        2.06707  -0.00036   0.00030  -0.00132  -0.00102   2.06605
   R17        2.07076  -0.00061  -0.00038  -0.00163  -0.00200   2.06876
   R18        2.07190  -0.00046  -0.00001  -0.00139  -0.00140   2.07050
    A1        1.92244   0.00089   0.00094   0.00526   0.00620   1.92864
    A2        1.91278  -0.00010  -0.00212   0.00070  -0.00141   1.91137
    A3        1.84943  -0.00039  -0.00105  -0.00209  -0.00314   1.84629
    A4        2.00608  -0.00014  -0.00109   0.00065  -0.00038   2.00570
    A5        1.91273   0.00045  -0.00003   0.00361   0.00363   1.91635
    A6        1.85824  -0.00023  -0.00327  -0.00126  -0.00455   1.85369
    A7        1.89782  -0.00020  -0.00111  -0.00075  -0.00203   1.89579
    A8        1.89137   0.00026   0.00257   0.00132   0.00391   1.89527
    A9        1.89463  -0.00015   0.00329  -0.00393  -0.00059   1.89403
   A10        1.93728   0.00049  -0.00317   0.00334  -0.00001   1.93727
   A11        1.91763  -0.00052  -0.00235  -0.00577  -0.00814   1.90949
   A12        1.91804   0.00024   0.00101   0.00621   0.00728   1.92532
   A13        1.89804  -0.00018   0.00091  -0.00513  -0.00428   1.89376
   A14        1.91809  -0.00018   0.00020   0.00274   0.00296   1.92105
   A15        1.87356   0.00013   0.00372  -0.00169   0.00203   1.87559
   A16        1.94809  -0.00039  -0.00005  -0.00076  -0.00086   1.94724
   A17        1.92237  -0.00002  -0.00108   0.00104  -0.00004   1.92234
   A18        1.94014   0.00051   0.00116   0.00202   0.00319   1.94333
   A19        1.91413   0.00040  -0.00118   0.00472   0.00353   1.91766
   A20        1.85921  -0.00024   0.00077  -0.00430  -0.00350   1.85571
   A21        1.87761  -0.00026   0.00045  -0.00288  -0.00244   1.87518
   A22        1.94557   0.00033   0.00175   0.00157   0.00322   1.94879
   A23        1.95272  -0.00035   0.00003  -0.00130  -0.00132   1.95140
   A24        1.91182   0.00037  -0.00149   0.00690   0.00539   1.91720
   A25        1.85702  -0.00020   0.00088  -0.00547  -0.00456   1.85247
   A26        1.92666   0.00022  -0.00050   0.00401   0.00351   1.93017
   A27        1.93753   0.00027   0.00090  -0.00088   0.00001   1.93754
   A28        1.87530  -0.00031   0.00023  -0.00358  -0.00334   1.87196
   A29        1.94415   0.00026  -0.00280   0.00188  -0.00108   1.94307
   A30        1.90483   0.00036   0.00046   0.00655   0.00707   1.91191
   A31        1.91042  -0.00045  -0.00084  -0.00581  -0.00668   1.90374
   A32        1.92248  -0.00029  -0.00004   0.00134   0.00131   1.92379
   A33        1.89455  -0.00002  -0.00041  -0.00350  -0.00393   1.89062
[...]
      3 vectors produced by pass  6 Test12= 2.38D-13 3.33D-08 XBig12= 1.29D-12 2.05D-07.
 InvSVY:  IOpt=1 It=  1 EMax= 8.88D-16
 Solved reduced A of dimension    21 with     3 vectors.
 Calculating GIAO nuclear magnetic shielding tensors.
 SCF GIAO Magnetic shielding tensor (ppm):
      1  N    Isotropic =   220.3057   Anisotropy =    56.7153
   XX=   226.1128   YX=    20.4670   ZX=   -37.9997
   XY=    23.4221   YY=   226.9612   ZY=     8.0715
   XZ=   -26.1690   YZ=     1.7733   ZZ=   207.8431
   Eigenvalues:   177.3245   225.4767   258.1159
      2  C    Isotropic =   138.0963   Anisotropy =    36.4075
   XX=   127.6039   YX=    -3.9301   ZX=   -18.0513
   XY=    -4.7249   YY=   129.9761   ZY=    -2.2209
   XZ=    -9.9894   YZ=    -2.0381   ZZ=   156.7089
   Eigenvalues:   119.6974   132.2236   162.3679
      3  C    Isotropic =   145.9092   Anisotropy =    16.2260
   XX=   148.8058   YX=     3.0454   ZX=   -13.2376
   XY=    -6.8476   YY=   147.8046   ZY=     0.1033
   XZ=    -8.4502   YZ=   -10.3930   ZZ=   141.1172
   Eigenvalues:   131.7036   149.2975   156.7265
      4  C    Isotropic =   120.9483   Anisotropy =    77.8858
   XX=   110.8330   YX=    38.1018   ZX=    -4.9402
   XY=    31.1954   YY=   151.3895   ZY=   -14.4086
   XZ=    -8.0861   YZ=    -3.0189   ZZ=   100.6225
   Eigenvalues:    90.7592    99.2136   172.8722
      5  O    Isotropic =   284.5039   Anisotropy =    71.0962
   XX=   300.1151   YX=    -2.0771   ZX=   -18.8355
   XY=    -0.4340   YY=   234.0515   ZY=    -0.3279
   XZ=   -21.1165   YZ=    -0.2797   ZZ=   319.3452
   Eigenvalues:   234.0218   287.5886   331.9014
      6  C    Isotropic =   120.0778   Anisotropy =    75.9894
   XX=   106.6208   YX=   -34.9931   ZX=    -4.2041
   XY=   -27.5632   YY=   153.1831   ZY=    15.5391
   XZ=    -7.8522   YZ=     3.8861   ZZ=   100.4294
   Eigenvalues:    90.7784    98.7176   170.7374
      7  C    Isotropic =   150.6419   Anisotropy =    11.7366
   XX=   151.9944   YX=    -3.2771   ZX=    -8.2527
   XY=     4.2977   YY=   151.3692   ZY=    -0.4157
   XZ=    -5.6232   YZ=     9.8541   ZZ=   148.5621
   Eigenvalues:   141.4295   152.0300   158.4663
      8  H    Isotropic =    30.5263   Anisotropy =    10.2120
   XX=    30.8150   YX=     0.7983   ZX=     1.6521
   XY=     1.1561   YY=    24.2758   ZY=     0.0456
   XZ=     2.9919   YZ=     0.2510   ZZ=    36.4882
   Eigenvalues:    24.1298    30.1148    37.3343
      9  H    Isotropic =    31.8988   Anisotropy =    14.8396
   XX=    34.4089   YX=     7.2611   ZX=    -2.4945
   XY=     7.6391   YY=    32.3022   ZY=    -0.4239
   XZ=    -4.0091   YZ=    -2.4849   ZZ=    28.9853
   Eigenvalues:    25.4472    28.4573    41.7918
     10  H    Isotropic =    28.8597   Anisotropy =     8.2648
   XX=    29.7653   YX=    -0.4492   ZX=     2.4600
   XY=    -0.9148   YY=    24.8131   ZY=    -0.1641
   XZ=     4.0874   YZ=    -0.1135   ZZ=    32.0008
   Eigenvalues:    24.7036    27.5060    34.3696
     11  H    Isotropic =    29.9975   Anisotropy =     8.1748
   XX=    28.0774   YX=    -1.4567   ZX=    -1.5504
   XY=    -1.3443   YY=    29.0871   ZY=     3.9083
   XZ=    -1.6469   YZ=     2.9270   ZZ=    32.8280
   Eigenvalues:    26.8417    27.7034    35.4473
     12  H    Isotropic =    30.9124   Anisotropy =     8.1497
   XX=    30.7384   YX=     2.6566   ZX=     0.5635
   XY=     3.5401   YY=    34.4651   ZY=     1.3013
   XZ=    -0.2825   YZ=     0.9796   ZZ=    27.5338
   Eigenvalues:    27.2936    29.0982    36.3456
     13  H    Isotropic =    28.3603   Anisotropy =     6.0616
   XX=    27.9110   YX=     0.0822   ZX=     0.5644
   XY=     1.6449   YY=    27.5760   ZY=    -4.9715
   XZ=     0.9367   YZ=    -2.3871   ZZ=    29.5940
   Eigenvalues:    24.3986    28.2810    32.4014
     14  H    Isotropic =    28.2501   Anisotropy =     8.3604
   XX=    27.9060   YX=    -0.8109   ZX=     1.1857
   XY=    -3.5456   YY=    32.9251   ZY=    -0.5550
   XZ=     0.6461   YZ=    -0.7163   ZZ=    23.9193
   Eigenvalues:    23.7159    27.2107    33.8238
     15  H    Isotropic =    28.5221   Anisotropy =     6.2248
   XX=    27.8884   YX=     0.0762   ZX=     1.0781
   XY=    -1.4807   YY=    27.7933   ZY=     4.9992
   XZ=     1.2890   YZ=     2.2513   ZZ=    29.8847
   Eigenvalues:    24.5724    28.3220    32.6720
     16  H    Isotropic =    28.2547   Anisotropy =     8.2290
   XX=    28.3196   YX=     1.2527   ZX=     1.1606
   XY=     3.7588   YY=    32.4912   ZY=     0.3675
   XZ=     0.6818   YZ=     0.6562   ZZ=    23.9533
   Eigenvalues:    23.7669    27.2565    33.7407
     17  H    Isotropic =    30.4463   Anisotropy =     8.4894
   XX=    29.8861   YX=    -2.5506   ZX=     0.0445
   XY=    -3.5606   YY=    34.5302   ZY=    -1.1284
   XZ=    -0.3246   YZ=    -0.6639   ZZ=    26.9226
   Eigenvalues:    26.6998    28.5332    36.1059
     18  H    Isotropic =    30.1044   Anisotropy =     8.3790
   XX=    28.2615   YX=     1.7278   ZX=    -1.2000
   XY=     1.4989   YY=    28.7653   ZY=    -3.9033
   XZ=    -1.6582   YZ=    -2.9589   ZZ=    33.2863
   Eigenvalues:    26.4916    28.1312    35.6904
 End of Minotr F.D. properties file   721 does not exist.
 End of Minotr F.D. properties file   722 does not exist.
 End of Minotr F.D. properties file   788 does not exist.

 **********************************************************************

            Population analysis using the SCF Density.

 **********************************************************************

 Orbital symmetries:
       Occupied  (A) (A) (A) (A) (A) (A) (A) (A) (A) (A) (A) (A)
                 (A) (A) (A) (A) (A) (A) (A) (A) (A) (A) (A) (A)
                 (A) (A) (A) (A)
       Virtual   (A) (A) (A) (A) (A) (A) (A) (A) (A) (A) (A) (A)
                 (A) (A) (A) (A) (A) (A) (A) (A) (A) (A) (A) (A)
                 (A) (A) (A) (A) (A) (A) (A) (A) (A) (A) (A) (A)
                 (A) (A) (A) (A) (A) (A) (A) (A) (A) (A) (A) (A)
                 (A) (A) (A) (A) (A) (A) (A) (A) (A) (A) (A) (A)
                 (A) (A) (A) (A) (A) (A) (A) (A) (A) (A) (A) (A)
                 (A) (A) (A) (A) (A) (A) (A) (A) (A) (A) (A) (A)
                 (A) (A) (A) (A) (A) (A) (A) (A) (A) (A) (A) (A)
                 (A) (A) (A) (A) (A) (A) (A) (A) (A) (A) (A) (A)
                 (A) (A) (A) (A) (A) (A) (A) (A) (A) (A) (A) (A)
                 (A) (A) (A) (A) (A) (A) (A) (A) (A) (A) (A) (A)
                 (A) (A) (A) (A) (A) (A) (A) (A) (A) (A) (A) (A)
                 (A) (A) (A) (A) (A) (A) (A) (A) (A) (A) (A) (A)
                 (A) (A) (A) (A) (A) (A) (A) (A) (A) (A) (A) (A)
                 (A) (A) (A) (A) (A) (A) (A) (A) (A) (A) (A) (A)
                 (A) (A) (A) (A) (A) (A) (A) (A) (A) (A) (A) (A)
                 (A) (A) (A) (A) (A) (A) (A) (A) (A) (A) (A) (A)
                 (A) (A) (A) (A) (A) (A) (A) (A) (A) (A) (A) (A)
                 (A) (A) (A) (A) (A) (A) (A) (A) (A) (A) (A) (A)
                 (A) (A) (A) (A) (A) (A) (A) (A) (A) (A) (A) (A)
                 (A) (A) (A) (A) (A) (A) (A) (A) (A) (A) (A) (A)
                 (A) (A) (A)
 The electronic state is 1-A.
 Alpha  occ. eigenvalues --  -19.62425 -14.72870 -10.58230 -10.58117 -10.56791
 Alpha  occ. eigenvalues --  -10.53297 -10.53043  -1.15511  -0.99641  -0.86437
 Alpha  occ. eigenvalues --   -0.86056  -0.72860  -0.72436  -0.63415  -0.59010
 Alpha  occ. eigenvalues --   -0.54903  -0.54072  -0.52820  -0.51371  -0.49369
 Alpha  occ. eigenvalues --   -0.45318  -0.44378  -0.42448  -0.41698  -0.38989
 Alpha  occ. eigenvalues --   -0.36977  -0.32482  -0.30811
 Alpha virt. eigenvalues --    0.05503   0.07462   0.09901   0.10751   0.11920
 Alpha virt. eigenvalues --    0.12954   0.13273   0.13778   0.15103   0.15662
 Alpha virt. eigenvalues --    0.17034   0.17530   0.20004   0.21699   0.22145
 Alpha virt. eigenvalues --    0.23899   0.24920   0.26042   0.26511   0.26886
 Alpha virt. eigenvalues --    0.30452   0.32057   0.32861   0.35872   0.36237
 Alpha virt. eigenvalues --    0.37509   0.39565   0.40012   0.40446   0.41659
 Alpha virt. eigenvalues --    0.42935   0.43346   0.44049   0.45258   0.46924
 Alpha virt. eigenvalues --    0.47684   0.48126   0.48434   0.49532   0.50034
 Alpha virt. eigenvalues --    0.50653   0.53571   0.54310   0.55309   0.57068
 Alpha virt. eigenvalues --    0.58748   0.60268   0.61494   0.64591   0.65527
 Alpha virt. eigenvalues --    0.70819   0.71695   0.72474   0.73547   0.75500
 Alpha virt. eigenvalues --    0.77341   0.80953   0.83081   0.84770   0.89370
 Alpha virt. eigenvalues --    0.90728   0.91338   0.93336   0.95639   0.96759
 Alpha virt. eigenvalues --    1.01677   1.04873   1.05635   1.06643   1.10471
 Alpha virt. eigenvalues --    1.14013   1.15952   1.16840   1.18281   1.19955
 Alpha virt. eigenvalues --    1.20775   1.23204   1.24895   1.28514   1.30451
 Alpha virt. eigenvalues --    1.34515   1.34693   1.37535   1.40110   1.44936
 Alpha virt. eigenvalues --    1.49669   1.51478   1.53033   1.54667   1.56692
 Alpha virt. eigenvalues --    1.61137   1.61612   1.63312   1.65171   1.65639
 Alpha virt. eigenvalues --    1.66272   1.69375   1.72791   1.75505   1.77071
 Alpha virt. eigenvalues --    1.78860   1.79912   1.81393   1.83279   1.84139
 Alpha virt. eigenvalues --    1.88977   1.90503   1.92022   1.95402   1.97102
 Alpha virt. eigenvalues --    1.99036   2.00270   2.01072   2.03599   2.04594
 Alpha virt. eigenvalues --    2.06006   2.09005   2.11235   2.15545   2.17498
 Alpha virt. eigenvalues --    2.18341   2.23835   2.26542   2.28016   2.30617
 Alpha virt. eigenvalues --    2.33332   2.36408   2.38738   2.41363   2.42516
 Alpha virt. eigenvalues --    2.46473   2.47847   2.48769   2.51261   2.51896
 Alpha virt. eigenvalues --    2.53940   2.56314   2.57335   2.58912   2.60015
 Alpha virt. eigenvalues --    2.61049   2.62174   2.65144   2.65566   2.65956
 Alpha virt. eigenvalues --    2.67765   2.69534   2.70420   2.74103   2.75528
 Alpha virt. eigenvalues --    2.76153   2.77217   2.79535   2.82069   2.85948
 Alpha virt. eigenvalues --    2.91817   2.93769   2.94680   2.98240   3.01412
 Alpha virt. eigenvalues --    3.02664   3.04819   3.05864   3.07750   3.10016
 Alpha virt. eigenvalues --    3.14142   3.15293   3.17191   3.17607   3.19715
 Alpha virt. eigenvalues --    3.20951   3.21868   3.24900   3.30736   3.31756
 Alpha virt. eigenvalues --    3.33809   3.34815   3.35064   3.37600   3.38517
 Alpha virt. eigenvalues --    3.41799   3.43725   3.44499   3.47388   3.49158
 Alpha virt. eigenvalues --    3.50036   3.50970   3.53547   3.58142   3.59059
 Alpha virt. eigenvalues --    3.62951   3.64126   3.68009   3.69887   3.78638
 Alpha virt. eigenvalues --    3.81002   3.84990   3.88288   3.89671   3.92246
 Alpha virt. eigenvalues --    3.94980   3.98136   4.00407   4.04610   4.04898
 Alpha virt. eigenvalues --    4.06935   4.11795   4.17304   4.18098   4.25199
 Alpha virt. eigenvalues --    4.26223   4.31096   4.35744   4.37982   4.43740
 Alpha virt. eigenvalues --    4.45090   4.46982   4.49445   4.53220   4.56160
 Alpha virt. eigenvalues --    4.62597   4.69486   4.74903   4.78983   4.80783
 Alpha virt. eigenvalues --    4.84709   4.88801   4.90041   4.94203   4.98501
 Alpha virt. eigenvalues --    5.12802   5.18499   5.20817   5.29885   5.38842
 Alpha virt. eigenvalues --    5.44898   5.53325   5.75943   5.78992   5.84756
 Alpha virt. eigenvalues --    5.85287   6.14336   6.15205   6.71906   6.74813
 Alpha virt. eigenvalues --    6.88935   7.19021   7.22562  22.49025  22.55797
 Alpha virt. eigenvalues --   22.59866  22.67733  22.69629  32.16976  44.27851
          Condensed to atoms (all electrons):
               1          2          3          4          5          6
     1  N    6.657488   0.240120  -0.070662   0.002986  -0.000428   0.005615
     2  C    0.240120   5.173277   0.292938  -0.038923  -0.009973  -0.001408
     3  C   -0.070662   0.292938   5.332050   0.196643  -0.034580  -0.031006
     4  C    0.002986  -0.038923   0.196643   5.034088   0.234818  -0.084044
     5  O   -0.000428  -0.009973  -0.034580   0.234818   8.067564   0.236784
     6  C    0.005615  -0.001408  -0.031006  -0.084044   0.236784   5.020845
     7  C   -0.040523   0.213800  -0.005985  -0.012303  -0.037682   0.206017
     8  H    0.370121  -0.037202  -0.007665   0.006588  -0.001287   0.010613
     9  H    0.386237  -0.078039   0.007387  -0.001000   0.000078  -0.002167
    10  H   -0.028467   0.446171  -0.071299   0.011286  -0.001404   0.006461
    11  H    0.009908  -0.057342   0.397811  -0.028331   0.001804   0.002898
    12  H   -0.003369  -0.052869   0.421574  -0.047657   0.005713   0.001516
    13  H    0.007355  -0.012566  -0.101856   0.455308  -0.048008  -0.006235
    14  H    0.000868   0.009101  -0.042794   0.416511  -0.033612   0.008165
    15  H   -0.004427  -0.005560  -0.001382  -0.009769  -0.047667   0.460847
    16  H    0.000158   0.009364  -0.001709   0.007422  -0.033330   0.418435
    17  H    0.001540  -0.043722   0.010272  -0.001044   0.005298  -0.033980
    18  H    0.004316  -0.051969   0.000708   0.000432   0.001938  -0.035570
               7          8          9         10         11         12
     1  N   -0.040523   0.370121   0.386237  -0.028467   0.009908  -0.003369
     2  C    0.213800  -0.037202  -0.078039   0.446171  -0.057342  -0.052869
     3  C   -0.005985  -0.007665   0.007387  -0.071299   0.397811   0.421574
     4  C   -0.012303   0.006588  -0.001000   0.011286  -0.028331  -0.047657
     5  O   -0.037682  -0.001287   0.000078  -0.001404   0.001804   0.005713
     6  C    0.206017   0.010613  -0.002167   0.006461   0.002898   0.001516
     7  C    5.305086  -0.019404   0.013461  -0.041917  -0.001400   0.007131
     8  H   -0.019404   0.485725  -0.037008   0.009111  -0.000091  -0.000325
     9  H    0.013461  -0.037008   0.491265  -0.009163   0.000618   0.003421
    10  H   -0.041917   0.009111  -0.009163   0.564292  -0.001706  -0.005399
    11  H   -0.001400  -0.000091   0.000618  -0.001706   0.541343  -0.012390
    12  H    0.007131  -0.000325   0.003421  -0.005399  -0.012390   0.538935
    13  H   -0.004321   0.001581   0.002030  -0.000258   0.009676   0.006316
    14  H   -0.002918  -0.000072   0.000054  -0.000306  -0.004944  -0.002804
    15  H   -0.097285  -0.002651  -0.000089  -0.000553   0.000133   0.000276
    16  H   -0.044933  -0.000169   0.000027  -0.000382  -0.000158   0.000151
    17  H    0.408793  -0.000607  -0.000382  -0.007485  -0.000278  -0.000030
    18  H    0.415645  -0.000071  -0.000587  -0.005391  -0.000943  -0.000045
              13         14         15         16         17         18
     1  N    0.007355   0.000868  -0.004427   0.000158   0.001540   0.004316
     2  C   -0.012566   0.009101  -0.005560   0.009364  -0.043722  -0.051969
     3  C   -0.101856  -0.042794  -0.001382  -0.001709   0.010272   0.000708
     4  C    0.455308   0.416511  -0.009769   0.007422  -0.001044   0.000432
     5  O   -0.048008  -0.033612  -0.047667  -0.033330   0.005298   0.001938
     6  C   -0.006235   0.008165   0.460847   0.418435  -0.033980  -0.035570
     7  C   -0.004321  -0.002918  -0.097285  -0.044933   0.408793   0.415645
     8  H    0.001581  -0.000072  -0.002651  -0.000169  -0.000607  -0.000071
     9  H    0.002030   0.000054  -0.000089   0.000027  -0.000382  -0.000587
    10  H   -0.000258  -0.000306  -0.000553  -0.000382  -0.007485  -0.005391
    11  H    0.009676  -0.004944   0.000133  -0.000158  -0.000278  -0.000943
    12  H    0.006316  -0.002804   0.000276   0.000151  -0.000030  -0.000045
    13  H    0.577394  -0.021766   0.008272  -0.000135   0.000227   0.000091
    14  H   -0.021766   0.532691  -0.000307  -0.000119   0.000113  -0.000149
    15  H    0.008272  -0.000307   0.564996  -0.022779   0.004685   0.008456
    16  H   -0.000135  -0.000119  -0.022779   0.535775  -0.001517  -0.007057
    17  H    0.000227   0.000113   0.004685  -0.001517   0.518378  -0.011985
    18  H    0.000091  -0.000149   0.008456  -0.007057  -0.011985   0.536621
 Mulliken charges:
               1
     1  N   -0.538835
     2  C    0.004804
     3  C   -0.290445
     4  C   -0.143010
     5  O   -0.306026
     6  C   -0.183785
     7  C   -0.261262
     8  H    0.222814
     9  H    0.223857
    10  H    0.136409
    11  H    0.143393
    12  H    0.139856
    13  H    0.126895
    14  H    0.142289
    15  H    0.144804
    16  H    0.140956
    17  H    0.151724
    18  H    0.145560
 Sum of Mulliken charges =  -0.00000
 Mulliken charges with hydrogens summed into heavy atoms:
               1
     1  N   -0.092163
     2  C    0.141213
     3  C   -0.007196
     4  C    0.126174
     5  O   -0.306026
     6  C    0.101976
     7  C    0.036023
 Electronic spatial extent (au):  <R**2>=            721.3966
 Charge=             -0.0000 electrons
 Dipole moment (field-independent basis, Debye):
    X=              0.7789    Y=              1.0487    Z=             -0.1017  Tot=              1.3103
 Quadrupole moment (field-independent basis, Debye-Ang):
   XX=            -50.7375   YY=            -41.7829   ZZ=            -42.8474
   XY=              3.7608   XZ=              0.9698   YZ=             -1.1859
 Traceless Quadrupole moment (field-independent basis, Debye-Ang):
   XX=             -5.6149   YY=              3.3397   ZZ=              2.2752
   XY=              3.7608   XZ=              0.9698   YZ=             -1.1859
 Octapole moment (field-independent basis, Debye-Ang**2):
  XXX=              1.8806  YYY=              0.8941  ZZZ=             -3.6849  XYY=             -6.1097
  XXY=              9.3194  XXZ=              2.4602  XZZ=              0.0673  YZZ=              0.9138
  YYZ=             -0.3142  XYZ=             -3.4439
 Hexadecapole moment (field-independent basis, Debye-Ang**3):
 XXXX=           -478.8016 YYYY=           -330.3298 ZZZZ=           -157.7669 XXXY=             28.3761
 XXXZ=              3.6081 YYYX=              2.6048 YYYZ=             -1.4189 ZZZX=             -5.1389
 ZZZY=             -1.2215 XXYY=           -122.0678 XXZZ=           -104.3015 YYZZ=            -87.1197
 XXYZ=             -9.2229 YYXZ=             -0.6295 ZZXY=              3.2993
 N-N= 3.386764799696D+02 E-N=-1.439417211931D+03  KE= 3.253500616119D+02
 Unable to Open any file for archive entry.
 1\1\GINC-NOTCH244\SP\RM062X\def2TZVP\C5H11N1O1\U6032257\21-Feb-2022\0\
 \# M062X/def2tzvp int=(grid=ultrafine) nmr=giao guess=read geom=check\
 \N5.xyz\\0,1\N,0,1.8126735403,-0.3322675986,0.4499079705\C,0,0.6426965
 327,0.5477917286,0.5854399445\C,0,0.1381669467,1.1698146347,-0.7368676
 165\C,0,-0.5482872711,0.1196956267,-1.6101137192\O,0,-1.6232777933,-0.
 508284544,-0.9243214432\C,0,-1.1774503884,-1.1833149395,0.2463630311\C
 ,0,-0.5162976087,-0.2244951217,1.2383388513\H,0,1.604534923,-1.1043142
 153,-0.1790130688\H,0,2.5759535651,0.1818393812,0.0149124082\H,0,0.945
 0171681,1.3574458506,1.2601059073\H,0,-0.5850763996,1.9639918725,-0.51
 46805023\H,0,0.971209321,1.6284255009,-1.2848123202\H,0,0.1832849602,-
 0.6406899998,-1.9377060985\H,0,-0.9781016025,0.5700618829,-2.508906908
 9\H,0,-0.4824334189,-1.9952044021,-0.0317270603\H,0,-2.063388835,-1.65
 04597598,0.6849923935\H,0,-0.1458230626,-0.7766281402,2.1079801408\H,0
 ,-1.2731005768,0.4891922427,1.5827080905\\Version=ES64L-G16RevC.01\Sta
 te=1-A\HF=-327.0958412\RMSD=2.423e-09\Dipole=0.3854448,0.26382,-0.2181
 13\Quadrupole=-1.9222417,1.8125679,0.1096739,0.8800191,-4.2496234,-0.1
 095015\PG=C01 [X(C5H11N1O1)]\\@
 The archive entry for this job was punched.


    WHAT WE HAVE LEARNED
 IS LIKE A HANDFUL OF EARTH;
  WHAT WE HAVE YET TO LEARN
   IS LIKE THE WHOLE WORLD.

         -- AVVAYIAR
 Job cpu time:       0 days  0 hours 13 minutes 35.6 seconds.
 Elapsed time:       0 days  0 hours  0 minutes 15.3 seconds.
 File lengths (MBytes):  RWF=     50 Int=      0 D2E=      0 Chk=      9 Scr=      1
 Normal termination of Gaussian 16 at Mon Feb 21 19:39:58 2022.
