 Entering Gaussian System, Link 0=/uufs/chpc.utah.edu/sys/installdir/gaussian16/C01/AVX2/g16/g16
 Input=N5_conf-1.com
 Output=N5_conf-1.log
 Initial command:
 /uufs/chpc.utah.edu/sys/installdir/gaussian16/C01/AVX2/g16/l1.exe "/scratch/local/u6032257/4038853/notchpeak.peaks/Gau-72150.inp" -scrdir="/scratch/local/u6032257/4038853/notchpeak.peaks/"
 Entering Link 1 = /uufs/chpc.utah.edu/sys/installdir/gaussian16/C01/AVX2/g16/l1.exe PID=     72152.
  
 Copyright (c) 1988-2019, Gaussian, Inc.  All Rights Reserved.
  
 This is part of the Gaussian(R) 16 program.  It is based on
 the Gaussian(R) 09 system (copyright 2009, Gaussian, Inc.),
 the Gaussian(R) 03 system (copyright 2003, Gaussian, Inc.),
 the Gaussian(R) 98 system (copyright 1998, Gaussian, Inc.),
 the Gaussian(R) 94 system (copyright 1995, Gaussian, Inc.),
 the Gaussian 92(TM) system (copyright 1992, Gaussian, Inc.),
 the Gaussian 90(TM) system (copyright 1990, Gaussian, Inc.),
 the Gaussian 88(TM) system (copyright 1988, Gaussian, Inc.),
 the Gaussian 86(TM) system (copyright 1986, Carnegie Mellon
 University), and the Gaussian 82(TM) system (copyright 1983,
 Carnegie Mellon University). Gaussian is a federally registered
 trademark of Gaussian, Inc.
  
 This software contains proprietary and confidential information,
 including trade secrets, belonging to Gaussian, Inc.
  
 This software is provided under written license and may be
 used, copied, transmitted, or stored only in accord with that
 written license.
  
 The following legend is applicable only to US Government
 contracts under FAR:
  
                    RESTRICTED RIGHTS LEGEND
  
 Use, reproduction and disclosure by the US Government is
 subject to restrictions as set forth in subparagraphs (a)
 and (c) of the Commercial Computer Software - Restricted
 Rights clause in FAR 52.227-19.
  
 Gaussian, Inc.
 340 Quinnipiac St., Bldg. 40, Wallingford CT 06492
  
  
 ---------------------------------------------------------------
 Warning -- This program may not be used in any manner that
 competes with the business of Gaussian, Inc. or will provide
 assistance to any competitor of Gaussian, Inc.  The licensee
 of this program is prohibited from giving any competitor of
 Gaussian, Inc. access to this program.  By using this program,
 the user acknowledges that Gaussian, Inc. is engaged in the
 business of creating and licensing software in the field of
 computational chemistry and represents and warrants to the
 licensee that it is not a competitor of Gaussian, Inc. and that
 it will not use this program in any manner prohibited above.
 ---------------------------------------------------------------
  

 Cite this work as:
 Gaussian 16, Revision C.01,
 M. J. Frisch, G. W. Trucks, H. B. Schlegel, G. E. Scuseria, 
 M. A. Robb, J. R. Cheeseman, G. Scalmani, V. Barone, 
 G. A. Petersson, H. Nakatsuji, X. Li, M. Caricato, A. V. Marenich, 
 J. Bloino, B. G. Janesko, R. Gomperts, B. Mennucci, H. P. Hratchian, 
 J. V. Ortiz, A. F. Izmaylov, J. L. Sonnenberg, D. Williams-Young, 
 F. Ding, F. Lipparini, F. Egidi, J. Goings, B. Peng, A. Petrone, 
 T. Henderson, D. Ranasinghe, V. G. Zakrzewski, J. Gao, N. Rega, 
 G. Zheng, W. Liang, M. Hada, M. Ehara, K. Toyota, R. Fukuda, 
 J. Hasegawa, M. Ishida, T. Nakajima, Y. Honda, O. Kitao, H. Nakai, 
 T. Vreven, K. Throssell, J. A. Montgomery, Jr., J. E. Peralta, 
 F. Ogliaro, M. J. Bearpark, J. J. Heyd, E. N. Brothers, K. N. Kudin, 
 V. N. Staroverov, T. A. Keith, R. Kobayashi, J. Normand, 
 K. Raghavachari, A. P. Rendell, J. C. Burant, S. S. Iyengar, 
 J. Tomasi, M. Cossi, J. M. Millam, M. Klene, C. Adamo, R. Cammi, 
 J. W. Ochterski, R. L. Martin, K. Morokuma, O. Farkas, 
 J. B. Foresman, and D. J. Fox, Gaussian, Inc., Wallingford CT, 2019.
 
 ******************************************
 Gaussian 16:  ES64L-G16RevC.01  3-Jul-2019
                21-Feb-2022 
 ******************************************
 %NProcShared=64
 Will use up to   64 processors via shared memory.
 %mem=16GB
 %chk=N5_conf-1.chk
 ----------------------------------------------------------------------
 # B3LYP/6-31G(d,p) empiricaldispersion=GD3BJ int=(grid=ultrafine) opt 
 freq=noraman
 ----------------------------------------------------------------------
 1/18=20,19=15,26=4,38=1/1,3;
 2/9=110,12=2,17=6,18=5,40=1/2;
 3/5=1,6=6,7=101,11=2,25=1,30=1,71=1,74=-5,75=-5,124=41/1,2,3;
 4//1;
 5/5=2,38=5/2;
 6/7=2,8=2,9=2,10=2,28=1/1;
 7//1,2,3,16;
 1/18=20,19=15,26=4/3(2);
 2/9=110/2;
 99//99;
 2/9=110/2;
 3/5=1,6=6,7=101,11=2,25=1,30=1,71=1,74=-5,75=-5,124=41/1,2,3;
 4/5=5,16=3,69=1/1;
 5/5=2,38=5/2;
 7//1,2,3,16;
 1/18=20,19=15,26=4/3(-5);
 2/9=110/2;
 6/7=2,8=2,9=2,10=2,19=2,28=1/1;
 99/9=1/99;
 ------
 N5.xyz
 ------
 Symbolic Z-matrix:
 Charge =  0 Multiplicity = 1
 N                     1.8003   -0.2719    0.4385 
 C                     0.6384    0.5691    0.6179 
 C                     0.1848    1.1223   -0.7457 
 C                    -0.5541    0.0962   -1.6249 
 O                    -1.6394   -0.458    -0.8896 
 C                    -1.2052   -1.202     0.2435 
 C                    -0.506    -0.2549    1.2364 
 H                     2.1153   -0.6098    1.3365 
 H                     2.5598    0.2763    0.0611 
 H                     0.8049    1.4274    1.2722 
 H                    -0.4426    1.9986   -0.5825 
 H                     1.0417    1.5116   -1.2952 
 H                     0.1248   -0.6895   -1.9639 
 H                    -0.9446    0.5773   -2.5222 
 H                    -0.5392   -2.0133   -0.0584 
 H                    -2.0717   -1.6697    0.712 
 H                    -0.1351   -0.8345    2.0816 
 H                    -1.232     0.4248    1.6827 
 

 GradGradGradGradGradGradGradGradGradGradGradGradGradGradGradGradGradGrad
 Berny optimization.
 Initialization pass.
                           ----------------------------
                           !    Initial Parameters    !
                           ! (Angstroms and Degrees)  !
 --------------------------                            --------------------------
 ! Name  Definition              Value          Derivative Info.                !
 --------------------------------------------------------------------------------
 ! R1    R(1,2)                  1.4455         estimate D2E/DX2                !
 ! R2    R(1,8)                  1.0099         estimate D2E/DX2                !
 ! R3    R(1,9)                  1.0098         estimate D2E/DX2                !
 ! R4    R(2,3)                  1.5399         estimate D2E/DX2                !
 ! R5    R(2,7)                  1.5399         estimate D2E/DX2                !
 ! R6    R(2,10)                 1.092          estimate D2E/DX2                !
 ! R7    R(3,4)                  1.5401         estimate D2E/DX2                !
 ! R8    R(3,11)                 1.09           estimate D2E/DX2                !
 ! R9    R(3,12)                 1.0899         estimate D2E/DX2                !
 ! R10   R(4,5)                  1.4233         estimate D2E/DX2                !
 ! R11   R(4,13)                 1.0923         estimate D2E/DX2                !
 ! R12   R(4,14)                 1.0905         estimate D2E/DX2                !
 ! R13   R(5,6)                  1.4234         estimate D2E/DX2                !
 ! R14   R(6,7)                  1.54           estimate D2E/DX2                !
 ! R15   R(6,15)                 1.0922         estimate D2E/DX2                !
 ! R16   R(6,16)                 1.0904         estimate D2E/DX2                !
 ! R17   R(7,17)                 1.0899         estimate D2E/DX2                !
 ! R18   R(7,18)                 1.0901         estimate D2E/DX2                !
 ! A1    A(2,1,8)              109.5749         estimate D2E/DX2                !
 ! A2    A(2,1,9)              109.5775         estimate D2E/DX2                !
 ! A3    A(8,1,9)              106.2225         estimate D2E/DX2                !
 ! A4    A(1,2,3)              109.6266         estimate D2E/DX2                !
 ! A5    A(1,2,7)              109.6268         estimate D2E/DX2                !
 ! A6    A(1,2,10)             114.1476         estimate D2E/DX2                !
 ! A7    A(3,2,7)              109.2082         estimate D2E/DX2                !
 ! A8    A(3,2,10)             107.0454         estimate D2E/DX2                !
 ! A9    A(7,2,10)             107.0519         estimate D2E/DX2                !
 ! A10   A(2,3,4)              114.0482         estimate D2E/DX2                !
 ! A11   A(2,3,11)             109.0127         estimate D2E/DX2                !
 ! A12   A(2,3,12)             110.072          estimate D2E/DX2                !
 ! A13   A(4,3,11)             110.1784         estimate D2E/DX2                !
 ! A14   A(4,3,12)             109.1101         estimate D2E/DX2                !
 ! A15   A(11,3,12)            103.9382         estimate D2E/DX2                !
 ! A16   A(3,4,5)              109.2903         estimate D2E/DX2                !
 ! A17   A(3,4,13)             110.9909         estimate D2E/DX2                !
 ! A18   A(3,4,14)             110.3418         estimate D2E/DX2                !
 ! A19   A(5,4,13)             110.7438         estimate D2E/DX2                !
 ! A20   A(5,4,14)             108.8953         estimate D2E/DX2                !
 ! A21   A(13,4,14)            106.5316         estimate D2E/DX2                !
 ! A22   A(4,5,6)              112.4695         estimate D2E/DX2                !
 ! A23   A(5,6,7)              109.2862         estimate D2E/DX2                !
 ! A24   A(5,6,15)             110.7468         estimate D2E/DX2                !
 ! A25   A(5,6,16)             108.8938         estimate D2E/DX2                !
 ! A26   A(7,6,15)             110.9884         estimate D2E/DX2                !
 ! A27   A(7,6,16)             110.3373         estimate D2E/DX2                !
 ! A28   A(15,6,16)            106.5415         estimate D2E/DX2                !
 ! A29   A(2,7,6)              114.0505         estimate D2E/DX2                !
 ! A30   A(2,7,17)             110.0684         estimate D2E/DX2                !
 ! A31   A(2,7,18)             109.0113         estimate D2E/DX2                !
 ! A32   A(6,7,17)             109.1132         estimate D2E/DX2                !
 ! A33   A(6,7,18)             110.1849         estimate D2E/DX2                !
 ! A34   A(17,7,18)            103.9303         estimate D2E/DX2                !
 ! D1    D(8,1,2,3)            178.1534         estimate D2E/DX2                !
 ! D2    D(8,1,2,7)            -61.978          estimate D2E/DX2                !
 ! D3    D(8,1,2,10)            58.092          estimate D2E/DX2                !
 ! D4    D(9,1,2,3)             61.9755         estimate D2E/DX2                !
 ! D5    D(9,1,2,7)           -178.1559         estimate D2E/DX2                !
 ! D6    D(9,1,2,10)           -58.086          estimate D2E/DX2                !
 ! D7    D(1,2,3,4)             75.8884         estimate D2E/DX2                !
 ! D8    D(1,2,3,11)          -160.5187         estimate D2E/DX2                !
 ! D9    D(1,2,3,12)           -47.1183         estimate D2E/DX2                !
 ! D10   D(7,2,3,4)            -44.2358         estimate D2E/DX2                !
 ! D11   D(7,2,3,11)            79.3571         estimate D2E/DX2                !
 ! D12   D(7,2,3,12)          -167.2424         estimate D2E/DX2                !
 ! D13   D(10,2,3,4)          -159.8056         estimate D2E/DX2                !
 ! D14   D(10,2,3,11)          -36.2127         estimate D2E/DX2                !
 ! D15   D(10,2,3,12)           77.1878         estimate D2E/DX2                !
 ! D16   D(1,2,7,6)            -75.8843         estimate D2E/DX2                !
 ! D17   D(1,2,7,17)            47.1253         estimate D2E/DX2                !
 ! D18   D(1,2,7,18)           160.5136         estimate D2E/DX2                !
 ! D19   D(3,2,7,6)             44.2397         estimate D2E/DX2                !
 ! D20   D(3,2,7,17)           167.2493         estimate D2E/DX2                !
 ! D21   D(3,2,7,18)           -79.3623         estimate D2E/DX2                !
 ! D22   D(10,2,7,6)           159.8053         estimate D2E/DX2                !
 ! D23   D(10,2,7,17)          -77.1851         estimate D2E/DX2                !
 ! D24   D(10,2,7,18)           36.2033         estimate D2E/DX2                !
 ! D25   D(2,3,4,5)             53.9387         estimate D2E/DX2                !
 ! D26   D(2,3,4,13)           -68.4881         estimate D2E/DX2                !
 ! D27   D(2,3,4,14)           173.6536         estimate D2E/DX2                !
 ! D28   D(11,3,4,5)           -69.0218         estimate D2E/DX2                !
 ! D29   D(11,3,4,13)          168.5513         estimate D2E/DX2                !
 ! D30   D(11,3,4,14)           50.693          estimate D2E/DX2                !
 ! D31   D(12,3,4,5)           177.4672         estimate D2E/DX2                !
 ! D32   D(12,3,4,13)           55.0403         estimate D2E/DX2                !
 ! D33   D(12,3,4,14)          -62.818          estimate D2E/DX2                !
 ! D34   D(3,4,5,6)            -64.2578         estimate D2E/DX2                !
 ! D35   D(13,4,5,6)            58.3169         estimate D2E/DX2                !
 ! D36   D(14,4,5,6)           175.1399         estimate D2E/DX2                !
 ! D37   D(4,5,6,7)             64.2582         estimate D2E/DX2                !
 ! D38   D(4,5,6,15)           -58.3126         estimate D2E/DX2                !
 ! D39   D(4,5,6,16)          -175.1485         estimate D2E/DX2                !
 ! D40   D(5,6,7,2)            -53.9411         estimate D2E/DX2                !
 ! D41   D(5,6,7,17)          -177.4689         estimate D2E/DX2                !
 ! D42   D(5,6,7,18)            69.0244         estimate D2E/DX2                !
 ! D43   D(15,6,7,2)            68.485          estimate D2E/DX2                !
 ! D44   D(15,6,7,17)          -55.0428         estimate D2E/DX2                !
 ! D45   D(15,6,7,18)         -168.5495         estimate D2E/DX2                !
 ! D46   D(16,6,7,2)          -173.6488         estimate D2E/DX2                !
 ! D47   D(16,6,7,17)           62.8234         estimate D2E/DX2                !
 ! D48   D(16,6,7,18)          -50.6833         estimate D2E/DX2                !
 --------------------------------------------------------------------------------
 Trust Radius=3.00D-01 FncErr=1.00D-07 GrdErr=1.00D-06 EigMax=2.50D+02 EigMin=1.00D-04
 Number of steps in this run=    108 maximum allowed number of steps=    108.
 GradGradGradGradGradGradGradGradGradGradGradGradGradGradGradGradGradGrad

                          Input orientation:                          
 ---------------------------------------------------------------------
 Center     Atomic      Atomic             Coordinates (Angstroms)
 Number     Number       Type             X           Y           Z
 ---------------------------------------------------------------------
      1          7           0        1.800300   -0.271900    0.438500
      2          6           0        0.638400    0.569100    0.617900
      3          6           0        0.184800    1.122300   -0.745700
      4          6           0       -0.554100    0.096200   -1.624900
      5          8           0       -1.639400   -0.458000   -0.889600
      6          6           0       -1.205200   -1.202000    0.243500
      7          6           0       -0.506000   -0.254900    1.236400
      8          1           0        2.115300   -0.609800    1.336500
      9          1           0        2.559800    0.276300    0.061100
     10          1           0        0.804900    1.427400    1.272200
     11          1           0       -0.442600    1.998600   -0.582500
     12          1           0        1.041700    1.511600   -1.295200
     13          1           0        0.124800   -0.689500   -1.963900
     14          1           0       -0.944600    0.577300   -2.522200
     15          1           0       -0.539200   -2.013300   -0.058400
     16          1           0       -2.071700   -1.669700    0.712000
     17          1           0       -0.135100   -0.834500    2.081600
     18          1           0       -1.232000    0.424800    1.682700
 ---------------------------------------------------------------------
                    Distance matrix (angstroms):
                    1          2          3          4          5
     1  N    0.000000
     2  C    1.445502   0.000000
     3  C    2.440484   1.539866   0.000000
     4  C    3.152192   2.583765   1.540080   0.000000
     5  O    3.691886   2.918195   2.417801   1.423264   0.000000
     6  C    3.152165   2.583763   2.883225   2.366468   1.423370
     7  C    2.440482   1.539860   2.510499   2.883162   2.417793
     8  H    1.009854   2.021738   3.326042   4.048953   4.367647
     9  H    1.009849   2.021766   2.647124   3.545618   4.367643
    10  H    2.138574   1.092021   2.132963   3.465857   3.768649
    11  H    3.350852   2.157079   1.090031   2.172132   2.749823
    12  H    2.600396   2.170463   1.089854   2.158388   3.351437
    13  H    2.958583   2.917799   2.184086   1.092314   2.078488
    14  H    4.125695   3.516559   2.174516   1.090456   2.054258
    15  H    2.958487   2.917690   3.290675   2.627572   2.078531
    16  H    4.125655   3.516493   3.874525   3.298881   2.054318
    17  H    2.600398   2.170441   3.453263   3.844464   3.351522
    18  H    3.350861   2.157085   2.896715   3.392307   2.749916
                    6          7          8          9         10
     6  C    0.000000
     7  C    1.540042   0.000000
     8  H    3.545570   2.647109   0.000000
     9  H    4.048934   3.326054   1.615363   0.000000
    10  H    3.465901   2.133043   2.423111   2.423111   0.000000
    11  H    3.392296   2.896667   4.126641   3.520645   2.307041
    12  H    3.844448   3.453244   3.546660   2.381206   2.579672
    13  H    2.627579   3.290700   3.855007   3.310985   3.926340
    14  H    3.298927   3.874532   5.065744   4.364042   4.263906
    15  H    1.092203   2.183937   3.310880   3.854912   3.926260
    16  H    1.090439   2.174413   4.363984   5.065706   4.263881
    17  H    2.158421   1.089893   2.381169   3.546658   2.579713
    18  H    2.172209   1.090070   3.520606   4.126668   2.307093
                   11         12         13         14         15
    11  H    0.000000
    12  H    1.717049   0.000000
    13  H    3.075076   2.476430   0.000000
    14  H    2.456529   2.514723   1.749313   0.000000
    15  H    4.047141   4.056333   2.413353   3.598037   0.000000
    16  H    4.217360   4.882907   3.598034   4.096268   1.749324
    17  H    3.901082   4.276894   4.056432   4.882975   2.476382
    18  H    2.868995   3.901120   4.047254   4.217468   3.075018
                   16         17         18
    16  H    0.000000
    17  H    2.514713   0.000000
    18  H    2.456478   1.717017   0.000000
 Stoichiometry    C5H11NO
 Framework group  C1[X(C5H11NO)]
 Deg. of freedom    48
 Full point group                 C1      NOp   1
 Largest Abelian subgroup         C1      NOp   1
 Largest concise Abelian subgroup C1      NOp   1
                         Standard orientation:                         
 ---------------------------------------------------------------------
 Center     Atomic      Atomic             Coordinates (Angstroms)
 Number     Number       Type             X           Y           Z
 ---------------------------------------------------------------------
      1          7           0       -1.863891   -0.000027   -0.786004
      2          6           0       -1.133628   -0.000018    0.461470
      3          6           0       -0.245226   -1.255265    0.540745
      4          6           0        1.022208   -1.183195   -0.331185
      5          8           0        1.745921    0.000005   -0.011877
      6          6           0        1.022129    1.183274   -0.331223
      7          6           0       -0.245243    1.255234    0.540740
      8          1           0       -2.468895    0.807648   -0.823894
      9          1           0       -2.468867   -0.807715   -0.823948
     10          1           0       -1.767892   -0.000093    1.350414
     11          1           0        0.024167   -1.434490    1.581645
     12          1           0       -0.819971   -2.138462    0.262513
     13          1           0        0.768307   -1.206640   -1.393322
     14          1           0        1.659801   -2.048098   -0.145410
     15          1           0        0.768161    1.206713   -1.393229
     16          1           0        1.659662    2.048170   -0.145307
     17          1           0       -0.820106    2.138432    0.262601
     18          1           0        0.024068    1.434505    1.581694
 ---------------------------------------------------------------------
 Rotational constants (GHZ):           3.8674397           2.5789031           1.9417824
 Standard basis: 6-31G(d,p) (6D, 7F)
 There are   160 symmetry adapted cartesian basis functions of A   symmetry.
 There are   160 symmetry adapted basis functions of A   symmetry.
   160 basis functions,   273 primitive gaussians,   160 cartesian basis functions
    28 alpha electrons       28 beta electrons
       nuclear repulsion energy       337.8758012083 Hartrees.
 NAtoms=   18 NActive=   18 NUniq=   18 SFac= 1.00D+00 NAtFMM=   60 NAOKFM=F Big=F
 Integral buffers will be    131072 words long.
 Raffenetti 2 integral format.
 Two-electron integral symmetry is turned on.
 Nuclear repulsion after empirical dispersion term =      337.8494947303 Hartrees.
 One-electron integrals computed using PRISM.
 NBasis=   160 RedAO= T EigKep=  3.52D-03  NBF=   160
 NBsUse=   160 1.00D-06 EigRej= -1.00D+00 NBFU=   160
 ExpMin= 1.61D-01 ExpMax= 5.48D+03 ExpMxC= 8.25D+02 IAcc=3 IRadAn=         5 AccDes= 0.00D+00
 Harris functional with IExCor=  402 and IRadAn=       5 diagonalized for initial guess.
 HarFok:  IExCor=  402 AccDes= 0.00D+00 IRadAn=         5 IDoV= 1 UseB2=F ITyADJ=14
 ICtDFT=  3500011 ScaDFX=  1.000000  1.000000  1.000000  1.000000
 FoFCou: FMM=F IPFlag=           0 FMFlag=      100000 FMFlg1=           0
         NFxFlg=           0 DoJE=T BraDBF=F KetDBF=T FulRan=T
         wScrn=  0.000000 ICntrl=       500 IOpCl=  0 I1Cent=   200000004 NGrid=           0
         NMat0=    1 NMatS0=      1 NMatT0=    0 NMatD0=    1 NMtDS0=    0 NMtDT0=    0
 Petite list used in FoFCou.
 Requested convergence on RMS density matrix=1.00D-08 within 128 cycles.
 Requested convergence on MAX density matrix=1.00D-06.
 Requested convergence on             energy=1.00D-06.
 No special actions if energy rises.
 Integral accuracy reduced to 1.0D-05 until final iterations.
 Initial convergence to 1.0D-05 achieved.  Increase integral accuracy.
 SCF Done:  E(RB3LYP) =  -327.154218418     A.U. after   13 cycles
            NFock= 13  Conv=0.46D-08     -V/T= 2.0091

 **********************************************************************

            Population analysis using the SCF Density.

 **********************************************************************

 Orbital symmetries:
       Occupied  (A) (A) (A) (A) (A) (A) (A) (A) (A) (A) (A) (A)
                 (A) (A) (A) (A) (A) (A) (A) (A) (A) (A) (A) (A)
                 (A) (A) (A) (A)
       Virtual   (A) (A) (A) (A) (A) (A) (A) (A) (A) (A) (A) (A)
                 (A) (A) (A) (A) (A) (A) (A) (A) (A) (A) (A) (A)
                 (A) (A) (A) (A) (A) (A) (A) (A) (A) (A) (A) (A)
                 (A) (A) (A) (A) (A) (A) (A) (A) (A) (A) (A) (A)
                 (A) (A) (A) (A) (A) (A) (A) (A) (A) (A) (A) (A)
                 (A) (A) (A) (A) (A) (A) (A) (A) (A) (A) (A) (A)
                 (A) (A) (A) (A) (A) (A) (A) (A) (A) (A) (A) (A)
                 (A) (A) (A) (A) (A) (A) (A) (A) (A) (A) (A) (A)
                 (A) (A) (A) (A) (A) (A) (A) (A) (A) (A) (A) (A)
                 (A) (A) (A) (A) (A) (A) (A) (A) (A) (A) (A) (A)
                 (A) (A) (A) (A) (A) (A) (A) (A) (A) (A) (A) (A)
 The electronic state is 1-A.
 Alpha  occ. eigenvalues --  -19.13169 -14.31037 -10.21876 -10.21875 -10.21029
 Alpha  occ. eigenvalues --  -10.17489 -10.17488  -1.01612  -0.89157  -0.75884
 Alpha  occ. eigenvalues --   -0.75262  -0.63306  -0.62961  -0.54553  -0.49089
 Alpha  occ. eigenvalues --   -0.48401  -0.46200  -0.45629  -0.44248  -0.39366
 Alpha  occ. eigenvalues --   -0.37887  -0.37576  -0.35379  -0.34917  -0.31442
 Alpha  occ. eigenvalues --   -0.28796  -0.24799  -0.22664
 Alpha virt. eigenvalues --    0.07369   0.11894   0.13234   0.13236   0.13955
 Alpha virt. eigenvalues --    0.14682   0.15550   0.17699   0.18681   0.18854
 Alpha virt. eigenvalues --    0.19541   0.21836   0.22771   0.24002   0.26893
 Alpha virt. eigenvalues --    0.26976   0.28780   0.29671   0.51798   0.52804
 Alpha virt. eigenvalues --    0.54470   0.56635   0.57450   0.57451   0.57927
 Alpha virt. eigenvalues --    0.63125   0.63974   0.66395   0.68367   0.72206
 Alpha virt. eigenvalues --    0.72827   0.76228   0.79483   0.83038   0.83092
 Alpha virt. eigenvalues --    0.84508   0.85565   0.87195   0.87391   0.88298
 Alpha virt. eigenvalues --    0.88526   0.92042   0.94814   0.95083   0.96154
 Alpha virt. eigenvalues --    0.98497   0.99079   1.02796   1.12303   1.17964
 Alpha virt. eigenvalues --    1.22020   1.25603   1.30024   1.30310   1.40820
 Alpha virt. eigenvalues --    1.42154   1.48534   1.50137   1.56420   1.56713
 Alpha virt. eigenvalues --    1.59581   1.70372   1.71136   1.72576   1.75839
 Alpha virt. eigenvalues --    1.78324   1.86624   1.88320   1.89777   1.90829
 Alpha virt. eigenvalues --    1.93593   1.94962   1.97741   2.02535   2.03452
 Alpha virt. eigenvalues --    2.04061   2.05402   2.12698   2.12777   2.16375
 Alpha virt. eigenvalues --    2.18883   2.22608   2.24220   2.27002   2.27316
 Alpha virt. eigenvalues --    2.28001   2.30314   2.30700   2.34956   2.37391
 Alpha virt. eigenvalues --    2.39278   2.40562   2.47660   2.48267   2.51901
 Alpha virt. eigenvalues --    2.54110   2.58427   2.61991   2.62235   2.66725
 Alpha virt. eigenvalues --    2.67987   2.75415   2.76305   2.80477   2.80997
 Alpha virt. eigenvalues --    2.83594   2.86508   2.89223   2.89927   2.95655
 Alpha virt. eigenvalues --    2.96427   2.98422   3.02701   3.03509   3.27522
 Alpha virt. eigenvalues --    3.29966   3.30330   3.34474   3.34833   3.41931
 Alpha virt. eigenvalues --    3.47749   3.50029   3.50079   3.53970   3.55686
 Alpha virt. eigenvalues --    3.96317   4.09118   4.36903   4.39527   4.62808
 Alpha virt. eigenvalues --    4.73039   4.75749
          Condensed to atoms (all electrons):
               1          2          3          4          5          6
     1  N    6.809863   0.287827  -0.063580  -0.001841  -0.000297  -0.001843
     2  C    0.287827   4.818415   0.367661  -0.026236  -0.013120  -0.026235
     3  C   -0.063580   0.367661   5.063478   0.348100  -0.049136  -0.021437
     4  C   -0.001841  -0.026236   0.348100   4.701832   0.263804  -0.030132
     5  O   -0.000297  -0.013120  -0.049136   0.263804   8.200414   0.263791
     6  C   -0.001843  -0.026235  -0.021437  -0.030132   0.263791   4.701834
     7  C   -0.063582   0.367659  -0.030857  -0.021436  -0.049129   0.348105
     8  H    0.331895  -0.032698   0.007501  -0.000050   0.000010  -0.000257
     9  H    0.331897  -0.032695  -0.006178  -0.000257   0.000010  -0.000050
    10  H   -0.048024   0.398427  -0.060583   0.005366  -0.000219   0.005365
    11  H    0.004852  -0.033862   0.367751  -0.032065   0.001285  -0.000345
    12  H   -0.008117  -0.035981   0.350584  -0.028495   0.003771   0.000188
    13  H    0.007383  -0.011162  -0.049965   0.370779  -0.035865  -0.010545
    14  H   -0.000019   0.004203  -0.039092   0.387597  -0.031850   0.004931
    15  H    0.007387  -0.011163  -0.000174  -0.010537  -0.035855   0.370787
    16  H   -0.000019   0.004203  -0.000005   0.004929  -0.031843   0.387604
    17  H   -0.008118  -0.035984   0.005768   0.000188   0.003771  -0.028495
    18  H    0.004852  -0.033859  -0.002078  -0.000344   0.001283  -0.032060
               7          8          9         10         11         12
     1  N   -0.063582   0.331895   0.331897  -0.048024   0.004852  -0.008117
     2  C    0.367659  -0.032698  -0.032695   0.398427  -0.033862  -0.035981
     3  C   -0.030857   0.007501  -0.006178  -0.060583   0.367751   0.350584
     4  C   -0.021436  -0.000050  -0.000257   0.005366  -0.032065  -0.028495
     5  O   -0.049129   0.000010   0.000010  -0.000219   0.001285   0.003771
     6  C    0.348105  -0.000257  -0.000050   0.005365  -0.000345   0.000188
     7  C    5.063469  -0.006178   0.007500  -0.060573  -0.002077   0.005768
     8  H   -0.006178   0.498389  -0.033244  -0.004500  -0.000314   0.000094
     9  H    0.007500  -0.033244   0.498382  -0.004500  -0.000181   0.006092
    10  H   -0.060573  -0.004500  -0.004500   0.713521  -0.003252  -0.002848
    11  H   -0.002077  -0.000314  -0.000181  -0.003252   0.634568  -0.037049
    12  H    0.005768   0.000094   0.006092  -0.002848  -0.037049   0.667872
    13  H   -0.000173  -0.000179  -0.000004   0.000019   0.006202   0.000093
    14  H   -0.000006   0.000006  -0.000022  -0.000138  -0.007156   0.000358
    15  H   -0.049966  -0.000004  -0.000179   0.000019   0.000233   0.000081
    16  H   -0.039092  -0.000022   0.000006  -0.000138  -0.000033   0.000017
    17  H    0.350579   0.006093   0.000094  -0.002849  -0.000091  -0.000132
    18  H    0.367749  -0.000181  -0.000314  -0.003251   0.002385  -0.000091
              13         14         15         16         17         18
     1  N    0.007383  -0.000019   0.007387  -0.000019  -0.008118   0.004852
     2  C   -0.011162   0.004203  -0.011163   0.004203  -0.035984  -0.033859
     3  C   -0.049965  -0.039092  -0.000174  -0.000005   0.005768  -0.002078
     4  C    0.370779   0.387597  -0.010537   0.004929   0.000188  -0.000344
     5  O   -0.035865  -0.031850  -0.035855  -0.031843   0.003771   0.001283
     6  C   -0.010545   0.004931   0.370787   0.387604  -0.028495  -0.032060
     7  C   -0.000173  -0.000006  -0.049966  -0.039092   0.350579   0.367749
     8  H   -0.000179   0.000006  -0.000004  -0.000022   0.006093  -0.000181
     9  H   -0.000004  -0.000022  -0.000179   0.000006   0.000094  -0.000314
    10  H    0.000019  -0.000138   0.000019  -0.000138  -0.002849  -0.003251
    11  H    0.006202  -0.007156   0.000233  -0.000033  -0.000091   0.002385
    12  H    0.000093   0.000358   0.000081   0.000017  -0.000132  -0.000091
    13  H    0.659582  -0.045936   0.013375  -0.000093   0.000081   0.000232
    14  H   -0.045936   0.630974  -0.000093  -0.000211   0.000017  -0.000033
    15  H    0.013375  -0.000093   0.659501  -0.045927   0.000091   0.006202
    16  H   -0.000093  -0.000211  -0.045927   0.630938   0.000358  -0.007156
    17  H    0.000081   0.000017   0.000091   0.000358   0.667898  -0.037058
    18  H    0.000232  -0.000033   0.006202  -0.007156  -0.037058   0.634576
 Mulliken charges:
               1
     1  N   -0.590516
     2  C    0.044600
     3  C   -0.187756
     4  C    0.068797
     5  O   -0.490824
     6  C    0.068794
     7  C   -0.187762
     8  H    0.233639
     9  H    0.233642
    10  H    0.068159
    11  H    0.099149
    12  H    0.077794
    13  H    0.096175
    14  H    0.096470
    15  H    0.096222
    16  H    0.096485
    17  H    0.077788
    18  H    0.099145
 Sum of Mulliken charges =  -0.00000
 Mulliken charges with hydrogens summed into heavy atoms:
               1
     1  N   -0.123235
     2  C    0.112759
     3  C   -0.010814
     4  C    0.261442
     5  O   -0.490824
     6  C    0.261500
     7  C   -0.010829
 Electronic spatial extent (au):  <R**2>=            728.4011
 Charge=             -0.0000 electrons
 Dipole moment (field-independent basis, Debye):
    X=             -2.3657    Y=              0.0003    Z=              0.3753  Tot=              2.3953
 Quadrupole moment (field-independent basis, Debye-Ang):
   XX=            -43.2992   YY=            -39.6012   ZZ=            -45.3159
   XY=              0.0003   XZ=             -0.6519   YZ=             -0.0001
 Traceless Quadrupole moment (field-independent basis, Debye-Ang):
   XX=             -0.5604   YY=              3.1376   ZZ=             -2.5772
   XY=              0.0003   XZ=             -0.6519   YZ=             -0.0001
 Octapole moment (field-independent basis, Debye-Ang**2):
  XXX=            -22.6672  YYY=              0.0013  ZZZ=              1.7364  XYY=              1.9536
  XXY=             -0.0004  XXZ=             -4.6352  XZZ=              2.7402  YZZ=              0.0005
  YYZ=             -2.2898  XYZ=             -0.0003
 Hexadecapole moment (field-independent basis, Debye-Ang**3):
 XXXX=           -429.7693 YYYY=           -330.6372 ZZZZ=           -152.2226 XXXY=              0.0010
 XXXZ=             17.1521 YYYX=              0.0030 YYYZ=              0.0006 ZZZX=             -0.6498
 ZZZY=             -0.0011 XXYY=           -114.7929 XXZZ=           -101.5375 YYZZ=            -81.0499
 XXYZ=              0.0009 YYXZ=              4.3271 ZZXY=              0.0006
 N-N= 3.378494947303D+02 E-N=-1.437112761430D+03  KE= 3.242026923875D+02
 Calling FoFJK, ICntrl=      2127 FMM=F ISym2X=0 I1Cent= 0 IOpClX= 0 NMat=1 NMatS=1 NMatT=0.
 ***** Axes restored to original set *****
 -------------------------------------------------------------------
 Center     Atomic                   Forces (Hartrees/Bohr)
 Number     Number              X              Y              Z
 -------------------------------------------------------------------
      1        7           0.003245201   -0.007011976   -0.003730325
      2        6          -0.017561312   -0.002620976   -0.007960868
      3        6           0.002182052    0.000956277   -0.006710623
      4        6           0.004024574    0.004971527    0.015699788
      5        8          -0.009254909   -0.005927024   -0.007285858
      6        6           0.008680224    0.014460118    0.002168899
      7        6          -0.001340593   -0.006065078    0.003491470
      8        1           0.002312542   -0.003648616    0.005497369
      9        1           0.005453122    0.002616178   -0.003513928
     10        1           0.003992777    0.005439739    0.005181055
     11        1          -0.007231943   -0.000315638    0.001594084
     12        1           0.006947736    0.000148112   -0.002310508
     13        1           0.004318483   -0.004495292    0.001704281
     14        1          -0.005961515    0.001029798    0.000636021
     15        1           0.005791991   -0.001669097   -0.002465913
     16        1          -0.005097669    0.002746248   -0.001860923
     17        1           0.004839492   -0.004036470    0.003694955
     18        1          -0.005340253    0.003422171   -0.003828977
 -------------------------------------------------------------------
 Cartesian Forces:  Max     0.017561312 RMS     0.005852091

 GradGradGradGradGradGradGradGradGradGradGradGradGradGradGradGradGradGrad
 Berny optimization.
 FormGI is forming the generalized inverse of G from B-inverse, IUseBI=4.
 Internal  Forces:  Max     0.013755091 RMS     0.003541275
 Search for a local minimum.
 Step number   1 out of a maximum of  108
 All quantities printed in internal units (Hartrees-Bohrs-Radians)
 Mixed Optimization -- RFO/linear search
 Second derivative matrix not updated -- first step.
 ITU=  0
     Eigenvalues ---    0.00399   0.00484   0.01090   0.01340   0.02410
     Eigenvalues ---    0.03196   0.04030   0.04492   0.04609   0.04676
     Eigenvalues ---    0.04799   0.05232   0.05370   0.05762   0.06037
     Eigenvalues ---    0.06365   0.08591   0.08609   0.08611   0.08713
     Eigenvalues ---    0.10606   0.11396   0.11470   0.13229   0.14234
     Eigenvalues ---    0.15611   0.16000   0.16000   0.17751   0.21101
     Eigenvalues ---    0.27296   0.27778   0.28008   0.28514   0.34547
     Eigenvalues ---    0.34559   0.34580   0.34760   0.34762   0.34805
     Eigenvalues ---    0.34809   0.34825   0.34829   0.38840   0.40203
     Eigenvalues ---    0.40465   0.45997   0.45998
 RFO step:  Lambda=-6.76901459D-03 EMin= 3.98861779D-03
 Linear search not attempted -- first point.
 Iteration  1 RMS(Cart)=  0.04677849 RMS(Int)=  0.00113201
 Iteration  2 RMS(Cart)=  0.00130389 RMS(Int)=  0.00024477
 Iteration  3 RMS(Cart)=  0.00000089 RMS(Int)=  0.00024477
 Variable       Old X    -DE/DX   Delta X   Delta X   Delta X     New X
                                 (Linear)    (Quad)   (Total)
    R1        2.73160   0.01376   0.00000   0.03481   0.03481   2.76641
    R2        1.90835   0.00683   0.00000   0.01463   0.01463   1.92298
    R3        1.90834   0.00683   0.00000   0.01464   0.01464   1.92298
    R4        2.90993   0.00021   0.00000  -0.00113  -0.00127   2.90866
    R5        2.90991   0.00021   0.00000  -0.00113  -0.00127   2.90864
    R6        2.06362   0.00799   0.00000   0.02266   0.02266   2.08628
    R7        2.91033  -0.00654   0.00000  -0.02231  -0.02230   2.88803
    R8        2.05986   0.00415   0.00000   0.01169   0.01169   2.07155
    R9        2.05953   0.00668   0.00000   0.01882   0.01882   2.07834
   R10        2.68958  -0.00384   0.00000  -0.00769  -0.00755   2.68203
   R11        2.06418   0.00539   0.00000   0.01529   0.01529   2.07947
   R12        2.06066   0.00207   0.00000   0.00583   0.00583   2.06650
   R13        2.68978  -0.00389   0.00000  -0.00783  -0.00768   2.68210
   R14        2.91026  -0.00653   0.00000  -0.02225  -0.02224   2.88801
   R15        2.06396   0.00545   0.00000   0.01547   0.01547   2.07943
   R16        2.06063   0.00207   0.00000   0.00585   0.00585   2.06648
   R17        2.05960   0.00666   0.00000   0.01876   0.01876   2.07836
   R18        2.05993   0.00412   0.00000   0.01162   0.01162   2.07155
    A1        1.91244   0.00183   0.00000   0.01615   0.01596   1.92841
    A2        1.91249   0.00182   0.00000   0.01611   0.01592   1.92841
    A3        1.85393  -0.00048   0.00000   0.00810   0.00772   1.86166
    A4        1.91335  -0.00138   0.00000  -0.00589  -0.00561   1.90774
    A5        1.91335  -0.00138   0.00000  -0.00590  -0.00562   1.90773
    A6        1.99225   0.00018   0.00000  -0.00753  -0.00762   1.98463
    A7        1.90604   0.00276   0.00000   0.00667   0.00604   1.91208
    A8        1.86829   0.00003   0.00000   0.00695   0.00695   1.87524
    A9        1.86841   0.00002   0.00000   0.00685   0.00684   1.87525
   A10        1.99052  -0.00549   0.00000  -0.03717  -0.03770   1.95282
   A11        1.90263   0.00292   0.00000   0.00752   0.00660   1.90923
   A12        1.92112  -0.00007   0.00000  -0.00227  -0.00215   1.91897
   A13        1.92298  -0.00069   0.00000  -0.01702  -0.01724   1.90574
   A14        1.90433   0.00257   0.00000   0.01212   0.01194   1.91628
   A15        1.81406   0.00140   0.00000   0.04429   0.04428   1.85834
   A16        1.90748   0.00853   0.00000   0.03708   0.03750   1.94497
   A17        1.93716  -0.00440   0.00000  -0.01730  -0.01722   1.91994
   A18        1.92583   0.00061   0.00000   0.00646   0.00662   1.93245
   A19        1.93284  -0.00149   0.00000  -0.00726  -0.00747   1.92537
   A20        1.90058  -0.00680   0.00000  -0.04971  -0.04965   1.85094
   A21        1.85933   0.00323   0.00000   0.02914   0.02904   1.88837
   A22        1.96296  -0.00866   0.00000  -0.03692  -0.03738   1.92558
   A23        1.90740   0.00854   0.00000   0.03713   0.03755   1.94495
   A24        1.93290  -0.00150   0.00000  -0.00737  -0.00759   1.92531
   A25        1.90055  -0.00681   0.00000  -0.04972  -0.04966   1.85090
   A26        1.93711  -0.00439   0.00000  -0.01722  -0.01715   1.91997
   A27        1.92575   0.00062   0.00000   0.00656   0.00672   1.93247
   A28        1.85950   0.00322   0.00000   0.02905   0.02895   1.88845
   A29        1.99056  -0.00549   0.00000  -0.03719  -0.03772   1.95284
   A30        1.92106  -0.00007   0.00000  -0.00223  -0.00210   1.91895
   A31        1.90261   0.00293   0.00000   0.00755   0.00662   1.90923
   A32        1.90438   0.00257   0.00000   0.01208   0.01190   1.91629
   A33        1.92309  -0.00070   0.00000  -0.01709  -0.01731   1.90577
   A34        1.81393   0.00140   0.00000   0.04438   0.04437   1.85829
    D1        3.10936  -0.00009   0.00000   0.01365   0.01394   3.12331
    D2       -1.08172   0.00160   0.00000   0.01457   0.01448  -1.06724
    D3        1.01390   0.00075   0.00000   0.01404   0.01414   1.02804
    D4        1.08168  -0.00160   0.00000  -0.01453  -0.01444   1.06723
    D5       -3.10941   0.00009   0.00000  -0.01361  -0.01391  -3.12331
    D6       -1.01379  -0.00076   0.00000  -0.01414  -0.01425  -1.02804
    D7        1.32450   0.00009   0.00000  -0.05478  -0.05471   1.26979
    D8       -2.80158  -0.00248   0.00000  -0.09763  -0.09772  -2.89930
    D9       -0.82237   0.00075   0.00000  -0.04198  -0.04205  -0.86442
   D10       -0.77206   0.00092   0.00000  -0.04807  -0.04811  -0.82017
   D11        1.38504  -0.00165   0.00000  -0.09092  -0.09111   1.29393
   D12       -2.91893   0.00158   0.00000  -0.03527  -0.03545  -2.95438
   D13       -2.78913  -0.00052   0.00000  -0.06319  -0.06307  -2.85220
   D14       -0.63203  -0.00309   0.00000  -0.10604  -0.10608  -0.73811
   D15        1.34718   0.00014   0.00000  -0.05038  -0.05041   1.29677
   D16       -1.32443  -0.00009   0.00000   0.05472   0.05465  -1.26979
   D17        0.82249  -0.00076   0.00000   0.04188   0.04195   0.86444
   D18        2.80149   0.00248   0.00000   0.09767   0.09775   2.89924
   D19        0.77213  -0.00093   0.00000   0.04801   0.04805   0.82018
   D20        2.91905  -0.00159   0.00000   0.03518   0.03535   2.95440
   D21       -1.38513   0.00165   0.00000   0.09096   0.09116  -1.29398
   D22        2.78913   0.00052   0.00000   0.06319   0.06308   2.85221
   D23       -1.34713  -0.00014   0.00000   0.05036   0.05038  -1.29675
   D24        0.63187   0.00309   0.00000   0.10614   0.10619   0.73805
   D25        0.94141   0.00220   0.00000   0.03127   0.03111   0.97252
   D26       -1.19534   0.00119   0.00000   0.02669   0.02674  -1.16860
   D27        3.03083  -0.00045   0.00000  -0.00271  -0.00259   3.02823
   D28       -1.20466   0.00288   0.00000   0.06152   0.06106  -1.14360
   D29        2.94178   0.00188   0.00000   0.05694   0.05669   2.99847
   D30        0.88476   0.00023   0.00000   0.02754   0.02736   0.91212
   D31        3.09739   0.00017   0.00000   0.01113   0.01088   3.10827
   D32        0.96064  -0.00084   0.00000   0.00655   0.00651   0.96715
   D33       -1.09638  -0.00249   0.00000  -0.02285  -0.02282  -1.11920
   D34       -1.12151   0.00172   0.00000   0.01844   0.01797  -1.10354
   D35        1.01782   0.00096   0.00000   0.01691   0.01664   1.03446
   D36        3.05677  -0.00004   0.00000   0.01842   0.01861   3.07538
   D37        1.12152  -0.00172   0.00000  -0.01846  -0.01799   1.10353
   D38       -1.01775  -0.00097   0.00000  -0.01698  -0.01670  -1.03445
   D39       -3.05692   0.00005   0.00000  -0.01829  -0.01849  -3.07541
   D40       -0.94145  -0.00220   0.00000  -0.03121  -0.03106  -0.97251
   D41       -3.09742  -0.00017   0.00000  -0.01108  -0.01084  -3.10825
   D42        1.20470  -0.00288   0.00000  -0.06152  -0.06106   1.14365
   D43        1.19529  -0.00120   0.00000  -0.02670  -0.02675   1.16854
   D44       -0.96068   0.00083   0.00000  -0.00657  -0.00653  -0.96721
   D45       -2.94174  -0.00188   0.00000  -0.05700  -0.05675  -2.99849
   D46       -3.03074   0.00045   0.00000   0.00270   0.00257  -3.02817
   D47        1.09648   0.00248   0.00000   0.02283   0.02279   1.11927
   D48       -0.88459  -0.00023   0.00000  -0.02761  -0.02743  -0.91201
         Item               Value     Threshold  Converged?
 Maximum Force            0.013755     0.000450     NO 
 RMS     Force            0.003541     0.000300     NO 
 Maximum Displacement     0.144190     0.001800     NO 
 RMS     Displacement     0.047236     0.001200     NO 
 Predicted change in Energy=-3.829704D-03
 GradGradGradGradGradGradGradGradGradGradGradGradGradGradGradGradGradGrad

                          Input orientation:                          
 ---------------------------------------------------------------------
 Center     Atomic      Atomic             Coordinates (Angstroms)
 Number     Number       Type             X           Y           Z
 ---------------------------------------------------------------------
      1          7           0        1.774549   -0.308993    0.403755
      2          6           0        0.625920    0.573318    0.616463
      3          6           0        0.168500    1.148207   -0.736085
      4          6           0       -0.532946    0.096110   -1.594403
      5          8           0       -1.628376   -0.488164   -0.906667
      6          6           0       -1.174014   -1.181959    0.245126
      7          6           0       -0.523447   -0.231298    1.249427
      8          1           0        2.102964   -0.686102    1.290004
      9          1           0        2.552146    0.209391    0.001108
     10          1           0        0.839162    1.426668    1.283665
     11          1           0       -0.516224    1.986464   -0.562404
     12          1           0        1.031565    1.558151   -1.280741
     13          1           0        0.184690   -0.680331   -1.899417
     14          1           0       -0.950192    0.549345   -2.497906
     15          1           0       -0.463192   -1.971926   -0.040429
     16          1           0       -2.057497   -1.658119    0.679349
     17          1           0       -0.151451   -0.800380    2.113930
     18          1           0       -1.282057    0.459618    1.635226
 ---------------------------------------------------------------------
                    Distance matrix (angstroms):
                    1          2          3          4          5
     1  N    0.000000
     2  C    1.463922   0.000000
     3  C    2.449910   1.539194   0.000000
     4  C    3.079168   2.541383   1.528281   0.000000
     5  O    3.650918   2.920363   2.436302   1.419269   0.000000
     6  C    3.079165   2.541387   2.862654   2.329871   1.419304
     7  C    2.449895   1.539186   2.514773   2.862631   2.436306
     8  H    1.017598   2.054618   3.348414   3.984931   4.334448
     9  H    1.017597   2.054618   2.665821   3.475094   4.334443
    10  H    2.159099   1.104010   2.146328   3.454901   3.814824
    11  H    3.383818   2.165918   1.096215   2.153773   2.734809
    12  H    2.622170   2.175736   1.099812   2.164172   3.376776
    13  H    2.823145   2.845343   2.167291   1.100407   2.075979
    14  H    4.071928   3.490559   2.171203   1.093542   2.017027
    15  H    2.823142   2.845336   3.258558   2.587755   2.075950
    16  H    4.071938   3.490558   3.851491   3.251389   2.017025
    17  H    2.622144   2.175720   3.467268   3.834185   3.376802
    18  H    3.383804   2.165913   2.863807   3.335238   2.734858
                    6          7          8          9         10
     6  C    0.000000
     7  C    1.528271   0.000000
     8  H    3.475086   2.665808   0.000000
     9  H    3.984930   3.348400   1.632460   0.000000
    10  H    3.454906   2.146329   2.461917   2.461917   0.000000
    11  H    3.335220   2.863783   4.175424   3.590325   2.357629
    12  H    3.834195   3.467267   3.576772   2.403010   2.574973
    13  H    2.587813   3.258575   3.721856   3.163613   3.872957
    14  H    3.251421   3.851496   5.019597   4.315903   4.274549
    15  H    1.100389   2.167290   3.163629   3.721845   3.872957
    16  H    1.093536   2.171202   4.315919   5.019603   4.274546
    17  H    2.164178   1.099819   2.402978   3.576744   2.574956
    18  H    2.153793   1.096218   3.590296   4.175413   2.357616
                   11         12         13         14         15
    11  H    0.000000
    12  H    1.759293   0.000000
    13  H    3.064421   2.471995   0.000000
    14  H    2.449451   2.535063   1.777146   0.000000
    15  H    3.993009   4.029158   2.354529   3.554317   0.000000
    16  H    4.147344   4.871206   3.554365   4.024174   1.777179
    17  H    3.881021   4.299534   4.029189   4.871220   2.472037
    18  H    2.783404   3.881042   3.993061   4.147406   3.064435
                   16         17         18
    16  H    0.000000
    17  H    2.535104   0.000000
    18  H    2.449453   1.759267   0.000000
 Stoichiometry    C5H11NO
 Framework group  C1[X(C5H11NO)]
 Deg. of freedom    48
 Full point group                 C1      NOp   1
 Largest Abelian subgroup         C1      NOp   1
 Largest concise Abelian subgroup C1      NOp   1
                         Standard orientation:                         
 ---------------------------------------------------------------------
 Center     Atomic      Atomic             Coordinates (Angstroms)
 Number     Number       Type             X           Y           Z
 ---------------------------------------------------------------------
      1          7           0       -1.822744   -0.000010   -0.809811
      2          6           0       -1.122492   -0.000009    0.475768
      3          6           0       -0.240266   -1.257392    0.574680
      4          6           0        0.987100   -1.164918   -0.331225
      5          8           0        1.749262    0.000005   -0.054842
      6          6           0        0.987074    1.164953   -0.331229
      7          6           0       -0.240288    1.257381    0.574670
      8          1           0       -2.425493    0.816216   -0.887104
      9          1           0       -2.425480   -0.816244   -0.887110
     10          1           0       -1.797807   -0.000017    1.349145
     11          1           0        0.086985   -1.391687    1.612253
     12          1           0       -0.828367   -2.149779    0.315126
     13          1           0        0.677442   -1.177280   -1.387092
     14          1           0        1.657569   -2.012082   -0.162059
     15          1           0        0.677445    1.177249   -1.387087
     16          1           0        1.657557    2.012091   -0.162022
     17          1           0       -0.828429    2.149754    0.315130
     18          1           0        0.086922    1.391717    1.612255
 ---------------------------------------------------------------------
 Rotational constants (GHZ):           3.8483908           2.6115810           1.9876993
 Standard basis: 6-31G(d,p) (6D, 7F)
 There are   160 symmetry adapted cartesian basis functions of A   symmetry.
 There are   160 symmetry adapted basis functions of A   symmetry.
   160 basis functions,   273 primitive gaussians,   160 cartesian basis functions
    28 alpha electrons       28 beta electrons
       nuclear repulsion energy       338.7702471385 Hartrees.
 NAtoms=   18 NActive=   18 NUniq=   18 SFac= 1.00D+00 NAtFMM=   60 NAOKFM=F Big=F
 Integral buffers will be    131072 words long.
 Raffenetti 2 integral format.
 Two-electron integral symmetry is turned on.
 Nuclear repulsion after empirical dispersion term =      338.7437075633 Hartrees.
 One-electron integrals computed using PRISM.
 NBasis=   160 RedAO= T EigKep=  3.55D-03  NBF=   160
 NBsUse=   160 1.00D-06 EigRej= -1.00D+00 NBFU=   160
 Initial guess from the checkpoint file:  "N5_conf-1.chk"
 B after Tr=    -0.000000    0.000000    0.000000
         Rot=    0.999996    0.000004   -0.002674    0.000006 Ang=   0.31 deg.
 ExpMin= 1.61D-01 ExpMax= 5.48D+03 ExpMxC= 8.25D+02 IAcc=3 IRadAn=         5 AccDes= 0.00D+00
 Harris functional with IExCor=  402 and IRadAn=       5 diagonalized for initial guess.
 HarFok:  IExCor=  402 AccDes= 0.00D+00 IRadAn=         5 IDoV= 1 UseB2=F ITyADJ=14
 ICtDFT=  3500011 ScaDFX=  1.000000  1.000000  1.000000  1.000000
 FoFCou: FMM=F IPFlag=           0 FMFlag=      100000 FMFlg1=           0
         NFxFlg=           0 DoJE=T BraDBF=F KetDBF=T FulRan=T
         wScrn=  0.000000 ICntrl=       500 IOpCl=  0 I1Cent=   200000004 NGrid=           0
         NMat0=    1 NMatS0=      1 NMatT0=    0 NMatD0=    1 NMtDS0=    0 NMtDT0=    0
 Petite list used in FoFCou.
 Requested convergence on RMS density matrix=1.00D-08 within 128 cycles.
 Requested convergence on MAX density matrix=1.00D-06.
 Requested convergence on             energy=1.00D-06.
 No special actions if energy rises.
 Integral accuracy reduced to 1.0D-05 until final iterations.
 Initial convergence to 1.0D-05 achieved.  Increase integral accuracy.
 SCF Done:  E(RB3LYP) =  -327.157829718     A.U. after   11 cycles
            NFock= 11  Conv=0.37D-08     -V/T= 2.0094
 Calling FoFJK, ICntrl=      2127 FMM=F ISym2X=0 I1Cent= 0 IOpClX= 0 NMat=1 NMatS=1 NMatT=0.
 ***** Axes restored to original set *****
 -------------------------------------------------------------------
 Center     Atomic                   Forces (Hartrees/Bohr)
 Number     Number              X              Y              Z
 -------------------------------------------------------------------
      1        7           0.001377035   -0.001918412   -0.000853172
      2        6          -0.003361136    0.002396899    0.000489325
      3        6           0.001325936    0.001535531   -0.001443238
      4        6           0.000691428    0.002098242   -0.003349820
      5        8           0.000860836   -0.000632498   -0.000125697
      6        6          -0.001511931   -0.002253757    0.002923944
      7        6           0.000035948   -0.001038259    0.002277708
      8        1          -0.000601321    0.000546458   -0.000165471
      9        1          -0.000746324    0.000256121    0.000252416
     10        1           0.002635878   -0.000564597    0.000527436
     11        1          -0.000768272   -0.001078838    0.001089321
     12        1          -0.000628236   -0.000623549    0.000480150
     13        1           0.000012182   -0.000341257    0.000686737
     14        1           0.000323663    0.000431860   -0.000495768
     15        1           0.000415440    0.000445852   -0.000455188
     16        1          -0.000069531   -0.000360625    0.000639352
     17        1          -0.000137165    0.000356306   -0.000936071
     18        1           0.000145571    0.000744523   -0.001541963
 -------------------------------------------------------------------
 Cartesian Forces:  Max     0.003361136 RMS     0.001278904

 GradGradGradGradGradGradGradGradGradGradGradGradGradGradGradGradGradGrad
 Berny optimization.
 Using GEDIIS/GDIIS optimizer.
 FormGI is forming the generalized inverse of G from B-inverse, IUseBI=4.
 Internal  Forces:  Max     0.002121022 RMS     0.000633056
 Search for a local minimum.
 Step number   2 out of a maximum of  108
 All quantities printed in internal units (Hartrees-Bohrs-Radians)
 Mixed Optimization -- En-DIIS/RFO-DIIS
 Update second derivatives using D2CorX and points    1    2
 DE= -3.61D-03 DEPred=-3.83D-03 R= 9.43D-01
 TightC=F SS=  1.41D+00  RLast= 3.69D-01 DXNew= 5.0454D-01 1.1068D+00
 Trust test= 9.43D-01 RLast= 3.69D-01 DXMaxT set to 5.05D-01
 ITU=  1  0
 Use linear search instead of GDIIS.
     Eigenvalues ---    0.00422   0.00503   0.01090   0.01289   0.02470
     Eigenvalues ---    0.03333   0.04105   0.04468   0.04537   0.04558
     Eigenvalues ---    0.04950   0.05311   0.05419   0.05798   0.06000
     Eigenvalues ---    0.06210   0.08147   0.08164   0.08321   0.08504
     Eigenvalues ---    0.10766   0.11666   0.11707   0.13125   0.14118
     Eigenvalues ---    0.15828   0.16000   0.16295   0.17639   0.22497
     Eigenvalues ---    0.27304   0.27750   0.27939   0.28506   0.34253
     Eigenvalues ---    0.34551   0.34567   0.34729   0.34761   0.34803
     Eigenvalues ---    0.34808   0.34827   0.35243   0.38338   0.40450
     Eigenvalues ---    0.41261   0.45997   0.46273
 RFO step:  Lambda=-1.04007439D-03 EMin= 4.21527041D-03
 Quartic linear search produced a step of  0.06170.
 Iteration  1 RMS(Cart)=  0.04818131 RMS(Int)=  0.00091974
 Iteration  2 RMS(Cart)=  0.00113923 RMS(Int)=  0.00020458
 Iteration  3 RMS(Cart)=  0.00000030 RMS(Int)=  0.00020458
 Variable       Old X    -DE/DX   Delta X   Delta X   Delta X     New X
                                 (Linear)    (Quad)   (Total)
    R1        2.76641   0.00081   0.00215   0.00176   0.00390   2.77031
    R2        1.92298  -0.00054   0.00090  -0.00139  -0.00049   1.92249
    R3        1.92298  -0.00054   0.00090  -0.00139  -0.00049   1.92249
    R4        2.90866   0.00061  -0.00008  -0.00198  -0.00225   2.90640
    R5        2.90864   0.00061  -0.00008  -0.00197  -0.00224   2.90640
    R6        2.08628   0.00039   0.00140   0.00091   0.00231   2.08858
    R7        2.88803   0.00003  -0.00138   0.00068  -0.00069   2.88734
    R8        2.07155  -0.00017   0.00072  -0.00065   0.00007   2.07161
    R9        2.07834  -0.00096   0.00116  -0.00310  -0.00194   2.07641
   R10        2.68203   0.00212  -0.00047   0.00822   0.00795   2.68998
   R11        2.07947   0.00006   0.00094  -0.00000   0.00094   2.08041
   R12        2.06650   0.00047   0.00036   0.00132   0.00168   2.06818
   R13        2.68210   0.00211  -0.00047   0.00820   0.00792   2.69001
   R14        2.88801   0.00003  -0.00137   0.00068  -0.00068   2.88733
   R15        2.07943   0.00007   0.00095   0.00002   0.00097   2.08041
   R16        2.06648   0.00047   0.00036   0.00133   0.00169   2.06817
   R17        2.07836  -0.00097   0.00116  -0.00311  -0.00195   2.07641
   R18        2.07155  -0.00017   0.00072  -0.00066   0.00006   2.07161
    A1        1.92841  -0.00090   0.00098  -0.00777  -0.00682   1.92158
    A2        1.92841  -0.00090   0.00098  -0.00777  -0.00682   1.92159
    A3        1.86166   0.00061   0.00048   0.00043   0.00083   1.86249
    A4        1.90774  -0.00023  -0.00035  -0.00571  -0.00589   1.90185
    A5        1.90773  -0.00023  -0.00035  -0.00570  -0.00588   1.90185
    A6        1.98463  -0.00045  -0.00047  -0.00937  -0.00995   1.97468
    A7        1.91208   0.00047   0.00037  -0.00995  -0.01047   1.90161
    A8        1.87524   0.00025   0.00043   0.01549   0.01614   1.89138
    A9        1.87525   0.00025   0.00042   0.01548   0.01612   1.89137
   A10        1.95282   0.00042  -0.00233  -0.01170  -0.01484   1.93797
   A11        1.90923  -0.00095   0.00041  -0.00603  -0.00561   1.90362
   A12        1.91897   0.00021  -0.00013   0.00353   0.00371   1.92269
   A13        1.90574   0.00038  -0.00106   0.00239   0.00138   1.90712
   A14        1.91628  -0.00065   0.00074   0.00128   0.00225   1.91853
   A15        1.85834   0.00060   0.00273   0.01166   0.01428   1.87262
   A16        1.94497  -0.00101   0.00231  -0.00517  -0.00318   1.94179
   A17        1.91994  -0.00010  -0.00106  -0.00499  -0.00604   1.91390
   A18        1.93245   0.00017   0.00041   0.00362   0.00414   1.93659
   A19        1.92537  -0.00016  -0.00046  -0.00614  -0.00665   1.91872
   A20        1.85094   0.00102  -0.00306   0.01012   0.00726   1.85819
   A21        1.88837   0.00015   0.00179   0.00329   0.00506   1.89344
   A22        1.92558   0.00160  -0.00231   0.02174   0.01891   1.94449
   A23        1.94495  -0.00101   0.00232  -0.00516  -0.00316   1.94179
   A24        1.92531  -0.00016  -0.00047  -0.00608  -0.00660   1.91871
   A25        1.85090   0.00102  -0.00306   0.01014   0.00728   1.85817
   A26        1.91997  -0.00011  -0.00106  -0.00501  -0.00605   1.91391
   A27        1.93247   0.00017   0.00041   0.00361   0.00413   1.93660
   A28        1.88845   0.00015   0.00179   0.00323   0.00500   1.89345
   A29        1.95284   0.00042  -0.00233  -0.01171  -0.01486   1.93798
   A30        1.91895   0.00021  -0.00013   0.00354   0.00373   1.92268
   A31        1.90923  -0.00095   0.00041  -0.00602  -0.00560   1.90363
   A32        1.91629  -0.00065   0.00073   0.00127   0.00224   1.91853
   A33        1.90577   0.00038  -0.00107   0.00235   0.00134   1.90712
   A34        1.85829   0.00060   0.00274   0.01170   0.01432   1.87261
    D1        3.12331  -0.00033   0.00086   0.00498   0.00619   3.12950
    D2       -1.06724  -0.00004   0.00089  -0.01408  -0.01350  -1.08074
    D3        1.02804  -0.00019   0.00087  -0.00455  -0.00366   1.02438
    D4        1.06723   0.00004  -0.00089   0.01407   0.01350   1.08073
    D5       -3.12331   0.00033  -0.00086  -0.00498  -0.00619  -3.12951
    D6       -1.02804   0.00019  -0.00088   0.00454   0.00365  -1.02439
    D7        1.26979  -0.00055  -0.00338  -0.08241  -0.08572   1.18407
    D8       -2.89930  -0.00044  -0.00603  -0.09116  -0.09724  -2.99653
    D9       -0.86442  -0.00016  -0.00259  -0.07854  -0.08109  -0.94551
   D10       -0.82017  -0.00041  -0.00297  -0.06593  -0.06886  -0.88903
   D11        1.29393  -0.00030  -0.00562  -0.07468  -0.08038   1.21355
   D12       -2.95438  -0.00002  -0.00219  -0.06206  -0.06424  -3.01861
   D13       -2.85220  -0.00109  -0.00389  -0.08758  -0.09137  -2.94357
   D14       -0.73811  -0.00098  -0.00655  -0.09634  -0.10288  -0.84099
   D15        1.29677  -0.00070  -0.00311  -0.08371  -0.08674   1.21003
   D16       -1.26979   0.00055   0.00337   0.08241   0.08571  -1.18407
   D17        0.86444   0.00016   0.00259   0.07852   0.08107   0.94551
   D18        2.89924   0.00045   0.00603   0.09121   0.09728   2.99652
   D19        0.82018   0.00041   0.00296   0.06592   0.06885   0.88903
   D20        2.95440   0.00002   0.00218   0.06203   0.06421   3.01861
   D21       -1.29398   0.00031   0.00562   0.07472   0.08042  -1.21356
   D22        2.85221   0.00109   0.00389   0.08758   0.09136   2.94357
   D23       -1.29675   0.00069   0.00311   0.08370   0.08672  -1.21003
   D24        0.73805   0.00098   0.00655   0.09638   0.10293   0.84098
   D25        0.97252  -0.00089   0.00192   0.01363   0.01530   0.98782
   D26       -1.16860   0.00009   0.00165   0.02848   0.03003  -1.13857
   D27        3.02823  -0.00014  -0.00016   0.02530   0.02501   3.05324
   D28       -1.14360  -0.00023   0.00377   0.02721   0.03091  -1.11269
   D29        2.99847   0.00075   0.00350   0.04207   0.04564   3.04411
   D30        0.91212   0.00052   0.00169   0.03889   0.04062   0.95273
   D31        3.10827  -0.00079   0.00067   0.01106   0.01155   3.11982
   D32        0.96715   0.00018   0.00040   0.02592   0.02628   0.99343
   D33       -1.11920  -0.00005  -0.00141   0.02273   0.02126  -1.09795
   D34       -1.10354   0.00061   0.00111   0.02769   0.02883  -1.07471
   D35        1.03446  -0.00034   0.00103   0.01345   0.01442   1.04888
   D36        3.07538   0.00033   0.00115   0.01988   0.02105   3.09643
   D37        1.10353  -0.00061  -0.00111  -0.02768  -0.02883   1.07470
   D38       -1.03445   0.00033  -0.00103  -0.01347  -0.01444  -1.04889
   D39       -3.07541  -0.00033  -0.00114  -0.01988  -0.02104  -3.09645
   D40       -0.97251   0.00089  -0.00192  -0.01362  -0.01529  -0.98780
   D41       -3.10825   0.00079  -0.00067  -0.01106  -0.01155  -3.11980
   D42        1.14365   0.00023  -0.00377  -0.02723  -0.03092   1.11272
   D43        1.16854  -0.00008  -0.00165  -0.02841  -0.02996   1.13858
   D44       -0.96721  -0.00018  -0.00040  -0.02584  -0.02621  -0.99342
   D45       -2.99849  -0.00074  -0.00350  -0.04201  -0.04559  -3.04408
   D46       -3.02817   0.00014   0.00016  -0.02532  -0.02503  -3.05320
   D47        1.11927   0.00005   0.00141  -0.02276  -0.02128   1.09799
   D48       -0.91201  -0.00052  -0.00169  -0.03893  -0.04066  -0.95268
         Item               Value     Threshold  Converged?
 Maximum Force            0.002121     0.000450     NO 
 RMS     Force            0.000633     0.000300     NO 
 Maximum Displacement     0.122658     0.001800     NO 
 RMS     Displacement     0.048355     0.001200     NO 
 Predicted change in Energy=-6.042995D-04
 GradGradGradGradGradGradGradGradGradGradGradGradGradGradGradGradGradGrad

                          Input orientation:                          
 ---------------------------------------------------------------------
 Center     Atomic      Atomic             Coordinates (Angstroms)
 Number     Number       Type             X           Y           Z
 ---------------------------------------------------------------------
      1          7           0        1.732096   -0.349530    0.360781
      2          6           0        0.623338    0.574777    0.616574
      3          6           0        0.150041    1.169884   -0.720320
      4          6           0       -0.505192    0.101908   -1.594749
      5          8           0       -1.589886   -0.524581   -0.918556
      6          6           0       -1.152371   -1.188314    0.262281
      7          6           0       -0.538808   -0.203436    1.256299
      8          1           0        2.066555   -0.745110    1.236357
      9          1           0        2.515753    0.150437   -0.052611
     10          1           0        0.898029    1.406723    1.290330
     11          1           0       -0.574166    1.968254   -0.520581
     12          1           0        0.996841    1.623059   -1.254075
     13          1           0        0.243711   -0.652100   -1.882161
     14          1           0       -0.920918    0.543010   -2.506003
     15          1           0       -0.414145   -1.963588    0.005453
     16          1           0       -2.034259   -1.676495    0.688579
     17          1           0       -0.188940   -0.740976    2.148474
     18          1           0       -1.307579    0.506079    1.583930
 ---------------------------------------------------------------------
                    Distance matrix (angstroms):
                    1          2          3          4          5
     1  N    0.000000
     2  C    1.465987   0.000000
     3  C    2.445465   1.538001   0.000000
     4  C    3.005554   2.527279   1.527917   0.000000
     5  O    3.564114   2.909222   2.436771   1.423477   0.000000
     6  C    3.005563   2.527282   2.867555   2.352036   1.423494
     7  C    2.445466   1.538001   2.503506   2.867549   2.436779
     8  H    1.017339   2.051611   3.341977   3.917459   4.249923
     9  H    1.017339   2.051611   2.661147   3.392146   4.249916
    10  H    2.155030   1.105231   2.158308   3.463416   3.846925
    11  H    3.386410   2.160768   1.096251   2.154493   2.721084
    12  H    2.653200   2.176632   1.098787   2.164731   3.378770
    13  H    2.708806   2.809452   2.162931   1.100903   2.075301
    14  H    4.006690   3.483709   2.174532   1.094433   2.026637
    15  H    2.708836   2.809473   3.265532   2.614424   2.075308
    16  H    4.006709   3.483710   3.854612   3.273278   2.026637
    17  H    2.653197   2.176630   3.463563   3.849960   3.378779
    18  H    3.386412   2.160772   2.806218   3.303207   2.721101
                    6          7          8          9         10
     6  C    0.000000
     7  C    1.527912   0.000000
     8  H    3.392158   2.661151   0.000000
     9  H    3.917467   3.341978   1.632551   0.000000
    10  H    3.463414   2.158303   2.449234   2.449240   0.000000
    11  H    3.303197   2.806206   4.174037   3.615392   2.400432
    12  H    3.849969   3.463564   3.599272   2.432946   2.555496
    13  H    2.614422   3.265511   3.613387   3.025475   3.838174
    14  H    3.273293   3.854621   4.958781   4.240749   4.297291
    15  H    1.100903   2.162935   3.025505   3.613416   3.838190
    16  H    1.094430   2.174530   4.240780   4.958796   4.297284
    17  H    2.164726   1.098787   2.432947   3.599272   2.555489
    18  H    2.154487   1.096250   3.615392   4.174041   2.400430
                   11         12         13         14         15
    11  H    0.000000
    12  H    1.767834   0.000000
    13  H    3.064160   2.477507   0.000000
    14  H    2.468493   2.532119   1.781523   0.000000
    15  H    3.970101   4.054791   2.390788   3.584308   0.000000
    16  H    4.108301   4.883495   3.584304   4.046120   1.781531
    17  H    3.822588   4.309533   4.054764   4.883500   2.477506
    18  H    2.665486   3.822599   3.970096   4.108336   3.064159
                   16         17         18
    16  H    0.000000
    17  H    2.532132   0.000000
    18  H    2.468471   1.767826   0.000000
 Stoichiometry    C5H11NO
 Framework group  C1[X(C5H11NO)]
 Deg. of freedom    48
 Full point group                 C1      NOp   1
 Largest Abelian subgroup         C1      NOp   1
 Largest concise Abelian subgroup C1      NOp   1
                         Standard orientation:                         
 ---------------------------------------------------------------------
 Center     Atomic      Atomic             Coordinates (Angstroms)
 Number     Number       Type             X           Y           Z
 ---------------------------------------------------------------------
      1          7           0       -1.752229   -0.000003   -0.850212
      2          6           0       -1.125124    0.000004    0.474876
      3          6           0       -0.241760   -1.251750    0.609895
      4          6           0        0.963574   -1.176016   -0.326034
      5          8           0        1.729270   -0.000011   -0.087272
      6          6           0        0.963580    1.176020   -0.326033
      7          6           0       -0.241757    1.251756    0.609884
      8          1           0       -2.350506    0.816271   -0.953848
      9          1           0       -2.350503   -0.816280   -0.953842
     10          1           0       -1.857948    0.000012    1.302224
     11          1           0        0.108798   -1.332729    1.645422
     12          1           0       -0.828704   -2.154765    0.392194
     13          1           0        0.621805   -1.195390   -1.372364
     14          1           0        1.637735   -2.023070   -0.165444
     15          1           0        0.621830    1.195398   -1.372370
     16          1           0        1.637761    2.023050   -0.165420
     17          1           0       -0.828701    2.154768    0.392171
     18          1           0        0.108795    1.332757    1.645410
 ---------------------------------------------------------------------
 Rotational constants (GHZ):           3.7772385           2.6685661           2.0377744
 Standard basis: 6-31G(d,p) (6D, 7F)
 There are   160 symmetry adapted cartesian basis functions of A   symmetry.
 There are   160 symmetry adapted basis functions of A   symmetry.
   160 basis functions,   273 primitive gaussians,   160 cartesian basis functions
    28 alpha electrons       28 beta electrons
       nuclear repulsion energy       339.5661955033 Hartrees.
 NAtoms=   18 NActive=   18 NUniq=   18 SFac= 1.00D+00 NAtFMM=   60 NAOKFM=F Big=F
 Integral buffers will be    131072 words long.
 Raffenetti 2 integral format.
 Two-electron integral symmetry is turned on.
 Nuclear repulsion after empirical dispersion term =      339.5394729823 Hartrees.
 One-electron integrals computed using PRISM.
 NBasis=   160 RedAO= T EigKep=  3.53D-03  NBF=   160
 NBsUse=   160 1.00D-06 EigRej= -1.00D+00 NBFU=   160
 Initial guess from the checkpoint file:  "N5_conf-1.chk"
 B after Tr=    -0.000000    0.000000   -0.000000
         Rot=    0.999996    0.000001    0.002742    0.000005 Ang=   0.31 deg.
 ExpMin= 1.61D-01 ExpMax= 5.48D+03 ExpMxC= 8.25D+02 IAcc=3 IRadAn=         5 AccDes= 0.00D+00
 Harris functional with IExCor=  402 and IRadAn=       5 diagonalized for initial guess.
 HarFok:  IExCor=  402 AccDes= 0.00D+00 IRadAn=         5 IDoV= 1 UseB2=F ITyADJ=14
 ICtDFT=  3500011 ScaDFX=  1.000000  1.000000  1.000000  1.000000
 FoFCou: FMM=F IPFlag=           0 FMFlag=      100000 FMFlg1=           0
         NFxFlg=           0 DoJE=T BraDBF=F KetDBF=T FulRan=T
         wScrn=  0.000000 ICntrl=       500 IOpCl=  0 I1Cent=   200000004 NGrid=           0
         NMat0=    1 NMatS0=      1 NMatT0=    0 NMatD0=    1 NMtDS0=    0 NMtDT0=    0
 Petite list used in FoFCou.
 Requested convergence on RMS density matrix=1.00D-08 within 128 cycles.
 Requested convergence on MAX density matrix=1.00D-06.
 Requested convergence on             energy=1.00D-06.
 No special actions if energy rises.
 Integral accuracy reduced to 1.0D-05 until final iterations.
 Initial convergence to 1.0D-05 achieved.  Increase integral accuracy.
 SCF Done:  E(RB3LYP) =  -327.158310679     A.U. after   11 cycles
            NFock= 11  Conv=0.31D-08     -V/T= 2.0094
 Calling FoFJK, ICntrl=      2127 FMM=F ISym2X=0 I1Cent= 0 IOpClX= 0 NMat=1 NMatS=1 NMatT=0.
 ***** Axes restored to original set *****
 -------------------------------------------------------------------
 Center     Atomic                   Forces (Hartrees/Bohr)
 Number     Number              X              Y              Z
 -------------------------------------------------------------------
      1        7           0.001779272   -0.000712423    0.000125254
      2        6          -0.001620368    0.001260778    0.000310954
      3        6           0.000686727    0.000794497   -0.000215589
      4        6           0.000595167   -0.001158988   -0.000494802
      5        8          -0.000926396    0.000315360   -0.000095574
      6        6           0.000637115   -0.001066120   -0.000633230
      7        6           0.000249728   -0.000078302    0.001041834
      8        1           0.000105951    0.000263651   -0.000038794
      9        1          -0.000006840    0.000039358    0.000284113
     10        1           0.000380730   -0.000753885   -0.000391425
     11        1           0.000122064   -0.000257282    0.000085549
     12        1          -0.000474744    0.000039189    0.000141064
     13        1          -0.000435271    0.000554395   -0.000021794
     14        1          -0.000390071   -0.000262062    0.000530135
     15        1          -0.000546812    0.000333648    0.000297180
     16        1          -0.000021279    0.000471150   -0.000526147
     17        1          -0.000353246    0.000280792   -0.000207338
     18        1           0.000218274   -0.000063756   -0.000191390
 -------------------------------------------------------------------
 Cartesian Forces:  Max     0.001779272 RMS     0.000590904

 GradGradGradGradGradGradGradGradGradGradGradGradGradGradGradGradGradGrad
 Berny optimization.
 Using GEDIIS/GDIIS optimizer.
 FormGI is forming the generalized inverse of G from B-inverse, IUseBI=4.
 Internal  Forces:  Max     0.001616657 RMS     0.000346565
 Search for a local minimum.
 Step number   3 out of a maximum of  108
 All quantities printed in internal units (Hartrees-Bohrs-Radians)
 Mixed Optimization -- En-DIIS/RFO-DIIS
 Swapping is turned off.
 Update second derivatives using D2CorX and points    2    3
 DE= -4.81D-04 DEPred=-6.04D-04 R= 7.96D-01
 TightC=F SS=  1.41D+00  RLast= 3.90D-01 DXNew= 8.4853D-01 1.1695D+00
 Trust test= 7.96D-01 RLast= 3.90D-01 DXMaxT set to 8.49D-01
 ITU=  1  1  0
     Eigenvalues ---    0.00512   0.00547   0.01090   0.01272   0.02501
     Eigenvalues ---    0.03421   0.04093   0.04454   0.04560   0.04624
     Eigenvalues ---    0.05000   0.05316   0.05433   0.05835   0.06053
     Eigenvalues ---    0.06628   0.07969   0.07986   0.08156   0.08483
     Eigenvalues ---    0.10768   0.11664   0.11688   0.12988   0.13965
     Eigenvalues ---    0.15846   0.16000   0.16550   0.17544   0.22227
     Eigenvalues ---    0.27296   0.27727   0.27866   0.28592   0.34459
     Eigenvalues ---    0.34551   0.34575   0.34750   0.34761   0.34804
     Eigenvalues ---    0.34808   0.34827   0.35082   0.38146   0.40561
     Eigenvalues ---    0.41266   0.45997   0.46204
 En-DIIS/RFO-DIIS/Sim-DIIS IScMMF=       -3 using points:     3    2
 RFO step:  Lambda=-9.21867387D-05.
 DidBck=F Rises=F RFO-DIIS coefs:    0.94615    0.05385
 Iteration  1 RMS(Cart)=  0.00844563 RMS(Int)=  0.00003323
 Iteration  2 RMS(Cart)=  0.00003775 RMS(Int)=  0.00001331
 Iteration  3 RMS(Cart)=  0.00000000 RMS(Int)=  0.00001331
 Variable       Old X    -DE/DX   Delta X   Delta X   Delta X     New X
                                 (Linear)    (Quad)   (Total)
    R1        2.77031   0.00162  -0.00021   0.00400   0.00379   2.77410
    R2        1.92249  -0.00010   0.00003  -0.00032  -0.00030   1.92219
    R3        1.92249  -0.00010   0.00003  -0.00032  -0.00030   1.92219
    R4        2.90640   0.00047   0.00012   0.00153   0.00167   2.90807
    R5        2.90640   0.00047   0.00012   0.00153   0.00167   2.90807
    R6        2.08858  -0.00071  -0.00012  -0.00165  -0.00178   2.08681
    R7        2.88734   0.00079   0.00004   0.00245   0.00248   2.88983
    R8        2.07161  -0.00025  -0.00000  -0.00069  -0.00069   2.07092
    R9        2.07641  -0.00042   0.00010  -0.00139  -0.00128   2.07512
   R10        2.68998  -0.00013  -0.00043   0.00048   0.00004   2.69002
   R11        2.08041  -0.00067  -0.00005  -0.00168  -0.00173   2.07868
   R12        2.06818  -0.00040  -0.00009  -0.00084  -0.00093   2.06725
   R13        2.69001  -0.00014  -0.00043   0.00046   0.00002   2.69003
   R14        2.88733   0.00079   0.00004   0.00245   0.00249   2.88982
   R15        2.08041  -0.00067  -0.00005  -0.00168  -0.00173   2.07868
   R16        2.06817  -0.00040  -0.00009  -0.00084  -0.00093   2.06725
   R17        2.07641  -0.00042   0.00010  -0.00139  -0.00128   2.07512
   R18        2.07161  -0.00025  -0.00000  -0.00069  -0.00069   2.07092
    A1        1.92158  -0.00013   0.00037  -0.00264  -0.00228   1.91931
    A2        1.92159  -0.00013   0.00037  -0.00264  -0.00228   1.91931
    A3        1.86249  -0.00009  -0.00004  -0.00248  -0.00253   1.85996
    A4        1.90185   0.00049   0.00032   0.00441   0.00471   1.90656
    A5        1.90185   0.00049   0.00032   0.00441   0.00470   1.90656
    A6        1.97468  -0.00073   0.00054  -0.01010  -0.00955   1.96513
    A7        1.90161  -0.00061   0.00056  -0.00062  -0.00003   1.90158
    A8        1.89138   0.00017  -0.00087   0.00104   0.00016   1.89154
    A9        1.89137   0.00017  -0.00087   0.00104   0.00016   1.89154
   A10        1.93797   0.00028   0.00080   0.00136   0.00220   1.94017
   A11        1.90362  -0.00018   0.00030  -0.00463  -0.00434   1.89928
   A12        1.92269   0.00003  -0.00020   0.00329   0.00306   1.92575
   A13        1.90712  -0.00020  -0.00007  -0.00289  -0.00297   1.90415
   A14        1.91853   0.00005  -0.00012   0.00226   0.00211   1.92064
   A15        1.87262   0.00001  -0.00077   0.00046  -0.00030   1.87233
   A16        1.94179  -0.00004   0.00017  -0.00045  -0.00026   1.94153
   A17        1.91390   0.00006   0.00033   0.00178   0.00210   1.91601
   A18        1.93659   0.00020  -0.00022   0.00000  -0.00024   1.93636
   A19        1.91872   0.00029   0.00036   0.00245   0.00281   1.92153
   A20        1.85819  -0.00053  -0.00039  -0.00507  -0.00548   1.85271
   A21        1.89344   0.00000  -0.00027   0.00120   0.00093   1.89436
   A22        1.94449  -0.00001  -0.00102   0.00075  -0.00025   1.94425
   A23        1.94179  -0.00004   0.00017  -0.00045  -0.00026   1.94153
   A24        1.91871   0.00029   0.00036   0.00246   0.00281   1.92152
   A25        1.85817  -0.00053  -0.00039  -0.00506  -0.00547   1.85271
   A26        1.91391   0.00006   0.00033   0.00178   0.00210   1.91601
   A27        1.93660   0.00020  -0.00022  -0.00000  -0.00024   1.93636
   A28        1.89345   0.00000  -0.00027   0.00118   0.00091   1.89436
   A29        1.93798   0.00028   0.00080   0.00135   0.00219   1.94017
   A30        1.92268   0.00003  -0.00020   0.00330   0.00307   1.92575
   A31        1.90363  -0.00018   0.00030  -0.00464  -0.00434   1.89929
   A32        1.91853   0.00005  -0.00012   0.00226   0.00211   1.92064
   A33        1.90712  -0.00020  -0.00007  -0.00289  -0.00297   1.90415
[...]
      3 vectors produced by pass  6 Test12= 2.38D-13 3.33D-08 XBig12= 9.56D-13 2.33D-07.
 InvSVY:  IOpt=1 It=  1 EMax= 1.33D-15
 Solved reduced A of dimension    21 with     3 vectors.
 Calculating GIAO nuclear magnetic shielding tensors.
 SCF GIAO Magnetic shielding tensor (ppm):
      1  N    Isotropic =   215.8034   Anisotropy =    44.7543
   XX=   194.7361   YX=    -0.0001   ZX=    30.8175
   XY=    -0.0002   YY=   245.6395   ZY=     0.0000
   XZ=    37.9217   YZ=     0.0000   ZZ=   207.0344
   Eigenvalues:   165.9699   235.8006   245.6395
      2  C    Isotropic =   138.4004   Anisotropy =    33.1380
   XX=   132.9968   YX=     0.0000   ZX=    14.0955
   XY=     0.0000   YY=   125.1980   ZY=    -0.0000
   XZ=     5.4851   YZ=    -0.0000   ZZ=   157.0064
   Eigenvalues:   125.1980   129.5108   160.4924
      3  C    Isotropic =   149.0605   Anisotropy =    10.3015
   XX=   151.8229   YX=     3.1844   ZX=     4.4177
   XY=    -7.5405   YY=   146.1803   ZY=    -0.3746
   XZ=     5.4995   YZ=    10.7489   ZZ=   149.1783
   Eigenvalues:   140.2569   150.9964   155.9281
      4  C    Isotropic =   121.0200   Anisotropy =    74.2960
   XX=   110.0086   YX=    35.4147   ZX=     3.9658
   XY=    28.2944   YY=   151.7354   ZY=    14.5603
   XZ=     7.2382   YZ=     3.3095   ZZ=   101.3159
   Eigenvalues:    92.7284    99.7809   170.5506
      5  O    Isotropic =   284.6483   Anisotropy =    68.4742
   XX=   302.7314   YX=    -0.0006   ZX=    17.0029
   XY=    -0.0007   YY=   235.8803   ZY=    -0.0002
   XZ=    23.6181   YZ=    -0.0002   ZZ=   315.3333
   Eigenvalues:   235.8803   287.7669   330.2978
      6  C    Isotropic =   121.0198   Anisotropy =    74.2962
   XX=   110.0085   YX=   -35.4149   ZX=     3.9659
   XY=   -28.2945   YY=   151.7353   ZY=   -14.5604
   XZ=     7.2383   YZ=    -3.3096   ZZ=   101.3157
   Eigenvalues:    92.7281    99.7807   170.5506
      7  C    Isotropic =   149.0605   Anisotropy =    10.3014
   XX=   151.8229   YX=    -3.1844   ZX=     4.4177
   XY=     7.5406   YY=   146.1803   ZY=     0.3746
   XZ=     5.4994   YZ=   -10.7488   ZZ=   149.1784
   Eigenvalues:   140.2570   150.9965   155.9282
      8  H    Isotropic =    31.7115   Anisotropy =    13.6794
   XX=    32.8934   YX=    -5.7798   ZX=     4.6234
   XY=    -5.5163   YY=    34.4792   ZY=    -0.4185
   XZ=     4.7143   YZ=    -2.7525   ZZ=    27.7618
   Eigenvalues:    24.6687    29.6346    40.8311
      9  H    Isotropic =    31.7115   Anisotropy =    13.6794
   XX=    32.8934   YX=     5.7797   ZX=     4.6234
   XY=     5.5162   YY=    34.4792   ZY=     0.4186
   XZ=     4.7143   YZ=     2.7525   ZZ=    27.7618
   Eigenvalues:    24.6687    29.6346    40.8311
     10  H    Isotropic =    28.4944   Anisotropy =     8.9448
   XX=    29.4387   YX=    -0.0000   ZX=    -2.4410
   XY=     0.0000   YY=    23.8815   ZY=    -0.0000
   XZ=    -4.3462   YZ=    -0.0000   ZZ=    32.1629
   Eigenvalues:    23.8815    27.1441    34.4576
     11  H    Isotropic =    30.1442   Anisotropy =     8.3174
   XX=    28.0474   YX=    -1.4319   ZX=     0.9539
   XY=    -1.3591   YY=    29.0614   ZY=    -3.9208
   XZ=     1.7875   YZ=    -2.9291   ZZ=    33.3237
   Eigenvalues:    26.7921    27.9512    35.6891
     12  H    Isotropic =    30.8439   Anisotropy =     8.1744
   XX=    30.5051   YX=     2.5809   ZX=    -0.1420
   XY=     3.2135   YY=    34.7344   ZY=    -1.3841
   XZ=     0.4438   YZ=    -0.7485   ZZ=    27.2924
   Eigenvalues:    27.0184    29.2199    36.2936
     13  H    Isotropic =    27.9104   Anisotropy =     6.0315
   XX=    27.5085   YX=    -0.0591   ZX=    -0.6830
   XY=     1.4717   YY=    26.8573   ZY=     4.8861
   XZ=    -0.9501   YZ=     2.2977   ZZ=    29.3656
   Eigenvalues:    23.9933    27.8066    31.9314
     14  H    Isotropic =    28.4378   Anisotropy =     8.2366
   XX=    28.3909   YX=    -0.9769   ZX=    -1.2186
   XY=    -3.5309   YY=    32.8907   ZY=     0.5601
   XZ=    -0.8408   YZ=     0.7682   ZZ=    24.0319
   Eigenvalues:    23.7979    27.5867    33.9289
     15  H    Isotropic =    27.9104   Anisotropy =     6.0314
   XX=    27.5085   YX=     0.0591   ZX=    -0.6830
   XY=    -1.4716   YY=    26.8573   ZY=    -4.8861
   XZ=    -0.9501   YZ=    -2.2977   ZZ=    29.3656
   Eigenvalues:    23.9933    27.8066    31.9314
     16  H    Isotropic =    28.4378   Anisotropy =     8.2366
   XX=    28.3909   YX=     0.9769   ZX=    -1.2186
   XY=     3.5309   YY=    32.8907   ZY=    -0.5601
   XZ=    -0.8408   YZ=    -0.7682   ZZ=    24.0319
   Eigenvalues:    23.7979    27.5867    33.9289
     17  H    Isotropic =    30.8439   Anisotropy =     8.1745
   XX=    30.5051   YX=    -2.5809   ZX=    -0.1420
   XY=    -3.2135   YY=    34.7344   ZY=     1.3841
   XZ=     0.4438   YZ=     0.7485   ZZ=    27.2924
   Eigenvalues:    27.0184    29.2199    36.2936
     18  H    Isotropic =    30.1442   Anisotropy =     8.3174
   XX=    28.0474   YX=     1.4319   ZX=     0.9539
   XY=     1.3591   YY=    29.0614   ZY=     3.9208
   XZ=     1.7875   YZ=     2.9291   ZZ=    33.3237
   Eigenvalues:    26.7921    27.9512    35.6891
 End of Minotr F.D. properties file   721 does not exist.
 End of Minotr F.D. properties file   722 does not exist.
 End of Minotr F.D. properties file   788 does not exist.

 **********************************************************************

            Population analysis using the SCF Density.

 **********************************************************************

 Orbital symmetries:
       Occupied  (A) (A) (A) (A) (A) (A) (A) (A) (A) (A) (A) (A)
                 (A) (A) (A) (A) (A) (A) (A) (A) (A) (A) (A) (A)
                 (A) (A) (A) (A)
       Virtual   (A) (A) (A) (A) (A) (A) (A) (A) (A) (A) (A) (A)
                 (A) (A) (A) (A) (A) (A) (A) (A) (A) (A) (A) (A)
                 (A) (A) (A) (A) (A) (A) (A) (A) (A) (A) (A) (A)
                 (A) (A) (A) (A) (A) (A) (A) (A) (A) (A) (A) (A)
                 (A) (A) (A) (A) (A) (A) (A) (A) (A) (A) (A) (A)
                 (A) (A) (A) (A) (A) (A) (A) (A) (A) (A) (A) (A)
                 (A) (A) (A) (A) (A) (A) (A) (A) (A) (A) (A) (A)
                 (A) (A) (A) (A) (A) (A) (A) (A) (A) (A) (A) (A)
                 (A) (A) (A) (A) (A) (A) (A) (A) (A) (A) (A) (A)
                 (A) (A) (A) (A) (A) (A) (A) (A) (A) (A) (A) (A)
                 (A) (A) (A) (A) (A) (A) (A) (A) (A) (A) (A) (A)
                 (A) (A) (A) (A) (A) (A) (A) (A) (A) (A) (A) (A)
                 (A) (A) (A) (A) (A) (A) (A) (A) (A) (A) (A) (A)
                 (A) (A) (A) (A) (A) (A) (A) (A) (A) (A) (A) (A)
                 (A) (A) (A) (A) (A) (A) (A) (A) (A) (A) (A) (A)
                 (A) (A) (A) (A) (A) (A) (A) (A) (A) (A) (A) (A)
                 (A) (A) (A) (A) (A) (A) (A) (A) (A) (A) (A) (A)
                 (A) (A) (A) (A) (A) (A) (A) (A) (A) (A) (A) (A)
                 (A) (A) (A) (A) (A) (A) (A) (A) (A) (A) (A) (A)
                 (A) (A) (A) (A) (A) (A) (A) (A) (A) (A) (A) (A)
                 (A) (A) (A) (A) (A) (A) (A) (A) (A) (A) (A) (A)
                 (A) (A) (A)
 The electronic state is 1-A.
 Alpha  occ. eigenvalues --  -19.61470 -14.72968 -10.57063 -10.57061 -10.56770
 Alpha  occ. eigenvalues --  -10.53028 -10.53027  -1.14498  -0.99747  -0.86312
 Alpha  occ. eigenvalues --   -0.85372  -0.72076  -0.71819  -0.62976  -0.57130
 Alpha  occ. eigenvalues --   -0.56068  -0.53257  -0.52840  -0.52102  -0.46144
 Alpha  occ. eigenvalues --   -0.45931  -0.44567  -0.42343  -0.41144  -0.37458
 Alpha  occ. eigenvalues --   -0.36106  -0.33354  -0.29945
 Alpha virt. eigenvalues --    0.05344   0.09297   0.09705   0.10811   0.12115
 Alpha virt. eigenvalues --    0.12494   0.13542   0.13959   0.15082   0.16309
 Alpha virt. eigenvalues --    0.17174   0.18263   0.19061   0.22080   0.22750
 Alpha virt. eigenvalues --    0.23778   0.24648   0.26342   0.26471   0.27520
 Alpha virt. eigenvalues --    0.30274   0.32408   0.34608   0.35680   0.36632
 Alpha virt. eigenvalues --    0.38335   0.38843   0.40536   0.41919   0.43050
 Alpha virt. eigenvalues --    0.43532   0.44507   0.44979   0.45271   0.47162
 Alpha virt. eigenvalues --    0.48147   0.49012   0.49157   0.50086   0.50526
 Alpha virt. eigenvalues --    0.52856   0.53556   0.53876   0.55169   0.55632
 Alpha virt. eigenvalues --    0.57847   0.59120   0.61402   0.65081   0.68739
 Alpha virt. eigenvalues --    0.71021   0.72050   0.74037   0.74126   0.75169
 Alpha virt. eigenvalues --    0.77630   0.80316   0.84719   0.85054   0.89526
 Alpha virt. eigenvalues --    0.90182   0.91369   0.94880   0.96840   0.97891
 Alpha virt. eigenvalues --    1.03638   1.04082   1.05698   1.08625   1.13113
 Alpha virt. eigenvalues --    1.13451   1.17016   1.18159   1.20265   1.20910
 Alpha virt. eigenvalues --    1.22254   1.22822   1.24889   1.29326   1.31056
 Alpha virt. eigenvalues --    1.31595   1.37353   1.39755   1.41149   1.47914
 Alpha virt. eigenvalues --    1.49062   1.49154   1.52288   1.53843   1.57626
 Alpha virt. eigenvalues --    1.60417   1.62689   1.64575   1.65274   1.65540
 Alpha virt. eigenvalues --    1.66614   1.68652   1.72166   1.77899   1.79101
 Alpha virt. eigenvalues --    1.79183   1.81005   1.82922   1.84802   1.86231
 Alpha virt. eigenvalues --    1.90496   1.90799   1.92204   1.95291   1.95340
 Alpha virt. eigenvalues --    1.98672   2.01101   2.02196   2.04834   2.05087
 Alpha virt. eigenvalues --    2.05951   2.07292   2.10411   2.11520   2.14368
 Alpha virt. eigenvalues --    2.17897   2.25224   2.28409   2.28461   2.30792
 Alpha virt. eigenvalues --    2.32555   2.38058   2.39455   2.41589   2.44578
 Alpha virt. eigenvalues --    2.46502   2.46679   2.49772   2.51594   2.52809
 Alpha virt. eigenvalues --    2.53977   2.56331   2.59077   2.59653   2.60025
 Alpha virt. eigenvalues --    2.61507   2.62024   2.64059   2.66706   2.66802
 Alpha virt. eigenvalues --    2.68420   2.68786   2.71985   2.74171   2.75263
 Alpha virt. eigenvalues --    2.76482   2.76855   2.80955   2.82818   2.83739
 Alpha virt. eigenvalues --    2.91553   2.93361   2.95270   2.97341   2.99339
 Alpha virt. eigenvalues --    3.04049   3.04810   3.05537   3.07579   3.13180
 Alpha virt. eigenvalues --    3.14285   3.14691   3.17853   3.18167   3.20701
 Alpha virt. eigenvalues --    3.21846   3.24484   3.27749   3.27846   3.32282
 Alpha virt. eigenvalues --    3.32783   3.35551   3.35799   3.38700   3.39222
 Alpha virt. eigenvalues --    3.42521   3.43641   3.48808   3.49106   3.50724
 Alpha virt. eigenvalues --    3.51747   3.51793   3.55357   3.58692   3.60494
 Alpha virt. eigenvalues --    3.62634   3.64070   3.65799   3.69092   3.77558
 Alpha virt. eigenvalues --    3.79682   3.82178   3.87641   3.90910   3.91252
 Alpha virt. eigenvalues --    3.95608   3.98648   4.04724   4.05170   4.06967
 Alpha virt. eigenvalues --    4.11803   4.13052   4.17396   4.18623   4.25753
 Alpha virt. eigenvalues --    4.28120   4.29078   4.35183   4.35583   4.43807
 Alpha virt. eigenvalues --    4.45397   4.48453   4.52321   4.58878   4.60683
 Alpha virt. eigenvalues --    4.63196   4.72688   4.77741   4.80700   4.82115
 Alpha virt. eigenvalues --    4.83473   4.86333   4.90249   4.93626   5.01059
 Alpha virt. eigenvalues --    5.15207   5.16205   5.24299   5.28465   5.40003
 Alpha virt. eigenvalues --    5.46514   5.54598   5.76536   5.76738   5.84941
 Alpha virt. eigenvalues --    5.86324   6.14919   6.15784   6.73278   6.75578
 Alpha virt. eigenvalues --    6.89708   7.19473   7.23717  22.50399  22.56443
 Alpha virt. eigenvalues --   22.61627  22.67939  22.70324  32.11031  44.28108
          Condensed to atoms (all electrons):
               1          2          3          4          5          6
     1  N    6.795215   0.212922  -0.019902  -0.026493   0.001053  -0.026494
     2  C    0.212922   5.158398   0.226527  -0.049469  -0.000200  -0.049469
     3  C   -0.019902   0.226527   5.286196   0.247568  -0.047897  -0.009062
     4  C   -0.026493  -0.049469   0.247568   4.962672   0.235062  -0.056107
     5  O    0.001053  -0.000200  -0.047897   0.235062   8.075448   0.235061
     6  C   -0.026494  -0.049469  -0.009062  -0.056107   0.235061   4.962674
     7  C   -0.019902   0.226527   0.005163  -0.009062  -0.047897   0.247568
     8  H    0.355701  -0.034746   0.006293   0.001973  -0.000050  -0.001892
     9  H    0.355701  -0.034746  -0.003552  -0.001892  -0.000050   0.001973
    10  H   -0.053167   0.479543  -0.067268   0.003979  -0.001036   0.003979
    11  H    0.006364  -0.057358   0.422694  -0.033434   0.003025  -0.000137
    12  H   -0.009837  -0.042753   0.415517  -0.046243   0.005912   0.001240
    13  H    0.011693  -0.020884  -0.067879   0.448119  -0.041432  -0.007000
    14  H    0.000030   0.014153  -0.052548   0.417589  -0.033930   0.007358
    15  H    0.011693  -0.020884  -0.000950  -0.007000  -0.041431   0.448118
    16  H    0.000030   0.014153  -0.002471   0.007358  -0.033930   0.417589
    17  H   -0.009837  -0.042753   0.007254   0.001240   0.005912  -0.046243
    18  H    0.006364  -0.057357  -0.001248  -0.000137   0.003025  -0.033434
               7          8          9         10         11         12
     1  N   -0.019902   0.355701   0.355701  -0.053167   0.006364  -0.009837
     2  C    0.226527  -0.034746  -0.034746   0.479543  -0.057358  -0.042753
     3  C    0.005163   0.006293  -0.003552  -0.067268   0.422694   0.415517
     4  C   -0.009062   0.001973  -0.001892   0.003979  -0.033434  -0.046243
     5  O   -0.047897  -0.000050  -0.000050  -0.001036   0.003025   0.005912
     6  C    0.247568  -0.001892   0.001973   0.003979  -0.000137   0.001240
     7  C    5.286194  -0.003552   0.006293  -0.067268  -0.001248   0.007254
     8  H   -0.003552   0.479957  -0.032794  -0.005308  -0.000702   0.000135
     9  H    0.006293  -0.032794   0.479957  -0.005308   0.000115   0.004190
    10  H   -0.067268  -0.005308  -0.005308   0.601381  -0.000937  -0.008263
    11  H   -0.001248  -0.000702   0.000115  -0.000937   0.528939  -0.014834
    12  H    0.007254   0.000135   0.004190  -0.008263  -0.014834   0.544623
    13  H   -0.000950  -0.000742   0.000424   0.000254   0.007767   0.004657
    14  H   -0.002472   0.000048  -0.000200  -0.000244  -0.006827  -0.002845
    15  H   -0.067879   0.000424  -0.000742   0.000254   0.000484   0.000193
    16  H   -0.052547  -0.000200   0.000048  -0.000244  -0.000085   0.000126
    17  H    0.415517   0.004190   0.000135  -0.008263  -0.000073   0.000036
    18  H    0.422694   0.000115  -0.000702  -0.000937   0.001559  -0.000073
              13         14         15         16         17         18
     1  N    0.011693   0.000030   0.011693   0.000030  -0.009837   0.006364
     2  C   -0.020884   0.014153  -0.020884   0.014153  -0.042753  -0.057357
     3  C   -0.067879  -0.052548  -0.000950  -0.002471   0.007254  -0.001248
     4  C    0.448119   0.417589  -0.007000   0.007358   0.001240  -0.000137
     5  O   -0.041432  -0.033930  -0.041431  -0.033930   0.005912   0.003025
     6  C   -0.007000   0.007358   0.448118   0.417589  -0.046243  -0.033434
     7  C   -0.000950  -0.002472  -0.067879  -0.052547   0.415517   0.422694
     8  H   -0.000742   0.000048   0.000424  -0.000200   0.004190   0.000115
     9  H    0.000424  -0.000200  -0.000742   0.000048   0.000135  -0.000702
    10  H    0.000254  -0.000244   0.000254  -0.000244  -0.008263  -0.000937
    11  H    0.007767  -0.006827   0.000484  -0.000085  -0.000073   0.001559
    12  H    0.004657  -0.002845   0.000193   0.000126   0.000036  -0.000073
    13  H    0.548194  -0.029714   0.007761   0.000158   0.000193   0.000484
    14  H   -0.029714   0.554962   0.000158  -0.000278   0.000126  -0.000085
    15  H    0.007761   0.000158   0.548193  -0.029714   0.004657   0.007767
    16  H    0.000158  -0.000278  -0.029714   0.554961  -0.002845  -0.006827
    17  H    0.000193   0.000126   0.004657  -0.002845   0.544623  -0.014834
    18  H    0.000484  -0.000085   0.007767  -0.006827  -0.014834   0.528939
 Mulliken charges:
               1
     1  N   -0.591134
     2  C    0.078398
     3  C   -0.344434
     4  C   -0.095723
     5  O   -0.316648
     6  C   -0.095723
     7  C   -0.344433
     8  H    0.231150
     9  H    0.231150
    10  H    0.128853
    11  H    0.144688
    12  H    0.140967
    13  H    0.138898
    14  H    0.134718
    15  H    0.138898
    16  H    0.134719
    17  H    0.140967
    18  H    0.144688
 Sum of Mulliken charges =  -0.00000
 Mulliken charges with hydrogens summed into heavy atoms:
               1
     1  N   -0.128833
     2  C    0.207251
     3  C   -0.058779
     4  C    0.177893
     5  O   -0.316648
     6  C    0.177894
     7  C   -0.058778
 Electronic spatial extent (au):  <R**2>=            716.4120
 Charge=             -0.0000 electrons
 Dipole moment (field-independent basis, Debye):
    X=             -2.5388    Y=              0.0000    Z=              0.5189  Tot=              2.5913
 Quadrupole moment (field-independent basis, Debye-Ang):
   XX=            -44.7607   YY=            -40.2485   ZZ=            -45.9067
   XY=              0.0000   XZ=              0.2045   YZ=              0.0000
 Traceless Quadrupole moment (field-independent basis, Debye-Ang):
   XX=             -1.1221   YY=              3.3901   ZZ=             -2.2681
   XY=              0.0000   XZ=              0.2045   YZ=              0.0000
 Octapole moment (field-independent basis, Debye-Ang**2):
  XXX=            -20.4842  YYY=              0.0000  ZZZ=              2.0336  XYY=              1.1554
  XXY=              0.0000  XXZ=             -4.6235  XZZ=              2.0073  YZZ=             -0.0000
  YYZ=             -2.4872  XYZ=             -0.0000
 Hexadecapole moment (field-independent basis, Debye-Ang**3):
 XXXX=           -428.8565 YYYY=           -332.8961 ZZZZ=           -170.0249 XXXY=             -0.0001
 XXXZ=             18.6199 YYYX=              0.0001 YYYZ=              0.0000 ZZZX=              0.3525
 ZZZY=              0.0000 XXYY=           -111.9226 XXZZ=           -100.9320 YYZZ=            -85.4886
 XXYZ=              0.0000 YYXZ=              5.5601 ZZXY=              0.0000
 N-N= 3.392568747884D+02 E-N=-1.440850588275D+03  KE= 3.253555106809D+02
 Unable to Open any file for archive entry.
 1\1\GINC-NOTCH280\SP\RM062X\def2TZVP\C5H11N1O1\U6032257\21-Feb-2022\0\
 \# M062X/def2tzvp int=(grid=ultrafine) nmr=giao guess=read geom=check\
 \N5.xyz\\0,1\N,0,1.7447226958,-0.347557445,0.36656003\C,0,0.6261301908
 ,0.5716002874,0.615341689\C,0,0.1524309247,1.1662404713,-0.7219612978\
 C,0,-0.5087138634,0.1002028065,-1.5966865059\O,0,-1.5944446244,-0.5222
 109875,-0.9184890287\C,0,-1.1556804112,-1.1896086748,0.2597447549\C,0,
 -0.5363982834,-0.2070266952,1.2545877323\H,0,2.0776215493,-0.733343510
 7,1.2470039883\H,0,2.5262176051,0.1609928252,-0.0402278885\H,0,0.89966
 03334,1.4029250287,1.2882555073\H,0,-0.5722431722,1.9625907088,-0.5178
 292819\H,0,0.9957484075,1.6221096563,-1.2571080228\H,0,0.2354239164,-0
 .6542716212,-1.8909329675\H,0,-0.9305747459,0.5448641563,-2.5026506387
 \H,0,-0.4243103622,-1.9695355516,0.002131249\H,0,-2.0415310934,-1.6699
 695103,0.6851656384\H,0,-0.1909109762,-0.7436430116,2.1479324395\H,0,-
 1.3030480906,0.5056410673,1.5791626031\\Version=ES64L-G16RevC.01\State
 =1-A\HF=-327.0975703\RMSD=1.513e-09\Dipole=0.7726994,0.3888913,0.53948
 1\Quadrupole=-0.6241251,-0.4323822,1.0565073,0.709034,-0.6032828,-1.80
 44809\PG=C01 [X(C5H11N1O1)]\\@
 The archive entry for this job was punched.


 THE MOST BEAUTIFUL EXPERIENCE WE CAN HAVE IS THE MYSTERIOUS.
 IT IS THE FUNDAMENTAL EMOTION WHICH STANDS AT AT THE CRADLE 
 OF TRUE ART AND TRUE SCIENCE.

                                    -- ALBERT EINSTEIN
 Job cpu time:       0 days  0 hours 13 minutes 47.7 seconds.
 Elapsed time:       0 days  0 hours  0 minutes 15.4 seconds.
 File lengths (MBytes):  RWF=     50 Int=      0 D2E=      0 Chk=      9 Scr=      1
 Normal termination of Gaussian 16 at Mon Feb 21 19:39:44 2022.
