 Entering Gaussian System, Link 0=/uufs/chpc.utah.edu/sys/installdir/gaussian16/C01/AVX2/g16/g16
 Input=SecN5_clust-12.com
 Output=SecN5_clust-12.log
 Initial command:
 /uufs/chpc.utah.edu/sys/installdir/gaussian16/C01/AVX2/g16/l1.exe "/scratch/local/u6032257/5771822/notchpeak.peaks/Gau-1082532.inp" -scrdir="/scratch/local/u6032257/5771822/notchpeak.peaks/"
 Entering Link 1 = /uufs/chpc.utah.edu/sys/installdir/gaussian16/C01/AVX2/g16/l1.exe PID=   1082534.
  
 Copyright (c) 1988-2019, Gaussian, Inc.  All Rights Reserved.
  
 This is part of the Gaussian(R) 16 program.  It is based on
 the Gaussian(R) 09 system (copyright 2009, Gaussian, Inc.),
 the Gaussian(R) 03 system (copyright 2003, Gaussian, Inc.),
 the Gaussian(R) 98 system (copyright 1998, Gaussian, Inc.),
 the Gaussian(R) 94 system (copyright 1995, Gaussian, Inc.),
 the Gaussian 92(TM) system (copyright 1992, Gaussian, Inc.),
 the Gaussian 90(TM) system (copyright 1990, Gaussian, Inc.),
 the Gaussian 88(TM) system (copyright 1988, Gaussian, Inc.),
 the Gaussian 86(TM) system (copyright 1986, Carnegie Mellon
 University), and the Gaussian 82(TM) system (copyright 1983,
 Carnegie Mellon University). Gaussian is a federally registered
 trademark of Gaussian, Inc.
  
 This software contains proprietary and confidential information,
 including trade secrets, belonging to Gaussian, Inc.
  
 This software is provided under written license and may be
 used, copied, transmitted, or stored only in accord with that
 written license.
  
 The following legend is applicable only to US Government
 contracts under FAR:
  
                    RESTRICTED RIGHTS LEGEND
  
 Use, reproduction and disclosure by the US Government is
 subject to restrictions as set forth in subparagraphs (a)
 and (c) of the Commercial Computer Software - Restricted
 Rights clause in FAR 52.227-19.
  
 Gaussian, Inc.
 340 Quinnipiac St., Bldg. 40, Wallingford CT 06492
  
  
 ---------------------------------------------------------------
 Warning -- This program may not be used in any manner that
 competes with the business of Gaussian, Inc. or will provide
 assistance to any competitor of Gaussian, Inc.  The licensee
 of this program is prohibited from giving any competitor of
 Gaussian, Inc. access to this program.  By using this program,
 the user acknowledges that Gaussian, Inc. is engaged in the
 business of creating and licensing software in the field of
 computational chemistry and represents and warrants to the
 licensee that it is not a competitor of Gaussian, Inc. and that
 it will not use this program in any manner prohibited above.
 ---------------------------------------------------------------
  

 Cite this work as:
 Gaussian 16, Revision C.01,
 M. J. Frisch, G. W. Trucks, H. B. Schlegel, G. E. Scuseria, 
 M. A. Robb, J. R. Cheeseman, G. Scalmani, V. Barone, 
 G. A. Petersson, H. Nakatsuji, X. Li, M. Caricato, A. V. Marenich, 
 J. Bloino, B. G. Janesko, R. Gomperts, B. Mennucci, H. P. Hratchian, 
 J. V. Ortiz, A. F. Izmaylov, J. L. Sonnenberg, D. Williams-Young, 
 F. Ding, F. Lipparini, F. Egidi, J. Goings, B. Peng, A. Petrone, 
 T. Henderson, D. Ranasinghe, V. G. Zakrzewski, J. Gao, N. Rega, 
 G. Zheng, W. Liang, M. Hada, M. Ehara, K. Toyota, R. Fukuda, 
 J. Hasegawa, M. Ishida, T. Nakajima, Y. Honda, O. Kitao, H. Nakai, 
 T. Vreven, K. Throssell, J. A. Montgomery, Jr., J. E. Peralta, 
 F. Ogliaro, M. J. Bearpark, J. J. Heyd, E. N. Brothers, K. N. Kudin, 
 V. N. Staroverov, T. A. Keith, R. Kobayashi, J. Normand, 
 K. Raghavachari, A. P. Rendell, J. C. Burant, S. S. Iyengar, 
 J. Tomasi, M. Cossi, J. M. Millam, M. Klene, C. Adamo, R. Cammi, 
 J. W. Ochterski, R. L. Martin, K. Morokuma, O. Farkas, 
 J. B. Foresman, and D. J. Fox, Gaussian, Inc., Wallingford CT, 2019.
 
 ******************************************
 Gaussian 16:  ES64L-G16RevC.01  3-Jul-2019
                23-Sep-2022 
 ******************************************
 %NProcShared=56
 Will use up to   56 processors via shared memory.
 %mem=16GB
 %chk=SecN5_clust-12.chk
 ----------------------------------------------------------------------
 # B3LYP/6-31G(d,p) empiricaldispersion=GD3BJ int=(grid=ultrafine) opt 
 freq=noraman
 ----------------------------------------------------------------------
 1/18=20,19=15,26=4,38=1/1,3;
 2/9=110,12=2,17=6,18=5,40=1/2;
 3/5=1,6=6,7=101,11=2,25=1,30=1,71=1,74=-5,75=-5,124=41/1,2,3;
 4//1;
 5/5=2,38=5/2;
 6/7=2,8=2,9=2,10=2,28=1/1;
 7//1,2,3,16;
 1/18=20,19=15,26=4/3(2);
 2/9=110/2;
 99//99;
 2/9=110/2;
 3/5=1,6=6,7=101,11=2,25=1,30=1,71=1,74=-5,75=-5,124=41/1,2,3;
 4/5=5,16=3,69=1/1;
 5/5=2,38=5/2;
 7//1,2,3,16;
 1/18=20,19=15,26=4/3(-5);
 2/9=110/2;
 6/7=2,8=2,9=2,10=2,19=2,28=1/1;
 99/9=1/99;
 ---------
 SecN5.xyz
 ---------
 Symbolic Z-matrix:
 Charge =  0 Multiplicity = 1
 C                    -0.494    -3.821     4.1 
 N                    -0.6661   -3.8659    2.6516 
 C                     0.2154   -2.9553    1.9261 
 C                    -0.2318   -1.4908    2.0677 
 C                     0.6987   -0.4771    1.3614 
 N                     0.7991   -0.6714   -0.1075 
 C                     2.1266   -0.7781   -0.5749 
 C                     2.5456   -1.8175   -1.4293 
 C                     1.5261   -2.7918   -1.9785 
 C                     0.485    -2.0927   -2.8505 
 C                    -0.5578   -1.2099   -2.1661 
 C                    -0.3804   -0.5824   -0.8979 
 C                    -1.4433    0.2217   -0.4367 
 C                    -2.6227    0.3995   -1.1521 
 C                    -2.7764   -0.2189   -2.3816 
 C                    -1.7489   -1.008    -2.8804 
 C                     3.889    -1.9041   -1.8195 
 C                     4.8237   -0.9706   -1.3819 
 C                     4.4207    0.0705   -0.5546 
 C                     3.0874    0.1605   -0.1617 
 H                     0.5426   -4.0042    4.3892 
 H                    -1.1098   -4.5885    4.5714 
 H                    -0.8099   -2.863     4.5148 
 H                    -0.6105   -4.8076    2.283 
 H                     1.2566   -3.0852    2.2291 
 H                     0.1807   -3.2185    0.869 
 H                    -1.2615   -1.3829    1.7286 
 H                    -0.2522   -1.2218    3.1225 
 H                     0.4164    0.5489    1.6002 
 H                     1.6776   -0.6066    1.8287 
 H                     2.036    -3.547    -2.5781 
 H                     1.0602   -3.3464   -1.1646 
 H                     0.9961   -1.4833   -3.5979 
 H                    -0.0402   -2.8636   -3.4168 
 H                    -1.3661    0.7439    0.5015 
 H                    -3.4093    1.0232   -0.7535 
 H                    -3.6854   -0.0839   -2.9502 
 H                    -1.8845   -1.4744   -3.8457 
 H                     4.2112   -2.6957   -2.4805 
 H                     5.8555   -1.0483   -1.694 
 H                     5.1354    0.807    -0.2176 
 H                     2.7868    0.9771    0.4763 
 

 GradGradGradGradGradGradGradGradGradGradGradGradGradGradGradGradGradGrad
 Berny optimization.
 Initialization pass.
                           ----------------------------
                           !    Initial Parameters    !
                           ! (Angstroms and Degrees)  !
 --------------------------                            --------------------------
 ! Name  Definition              Value          Derivative Info.                !
 --------------------------------------------------------------------------------
 ! R1    R(1,2)                  1.4593         estimate D2E/DX2                !
 ! R2    R(1,21)                 1.0917         estimate D2E/DX2                !
 ! R3    R(1,22)                 1.0911         estimate D2E/DX2                !
 ! R4    R(1,23)                 1.0907         estimate D2E/DX2                !
 ! R5    R(2,3)                  1.4603         estimate D2E/DX2                !
 ! R6    R(2,24)                 1.0128         estimate D2E/DX2                !
 ! R7    R(3,4)                  1.5378         estimate D2E/DX2                !
 ! R8    R(3,25)                 1.0921         estimate D2E/DX2                !
 ! R9    R(3,26)                 1.0899         estimate D2E/DX2                !
 ! R10   R(4,5)                  1.5467         estimate D2E/DX2                !
 ! R11   R(4,27)                 1.0895         estimate D2E/DX2                !
 ! R12   R(4,28)                 1.0888         estimate D2E/DX2                !
 ! R13   R(5,6)                  1.4851         estimate D2E/DX2                !
 ! R14   R(5,29)                 1.0906         estimate D2E/DX2                !
 ! R15   R(5,30)                 1.0924         estimate D2E/DX2                !
 ! R16   R(6,7)                  1.4114         estimate D2E/DX2                !
 ! R17   R(6,12)                 1.4226         estimate D2E/DX2                !
 ! R18   R(7,8)                  1.4092         estimate D2E/DX2                !
 ! R19   R(7,20)                 1.4053         estimate D2E/DX2                !
 ! R20   R(8,9)                  1.5134         estimate D2E/DX2                !
 ! R21   R(8,17)                 1.4016         estimate D2E/DX2                !
 ! R22   R(9,10)                 1.5274         estimate D2E/DX2                !
 ! R23   R(9,31)                 1.0908         estimate D2E/DX2                !
 ! R24   R(9,32)                 1.0895         estimate D2E/DX2                !
 ! R25   R(10,11)                1.5281         estimate D2E/DX2                !
 ! R26   R(10,33)                1.0914         estimate D2E/DX2                !
 ! R27   R(10,34)                1.0912         estimate D2E/DX2                !
 ! R28   R(11,12)                1.426          estimate D2E/DX2                !
 ! R29   R(11,16)                1.4035         estimate D2E/DX2                !
 ! R30   R(12,13)                1.4103         estimate D2E/DX2                !
 ! R31   R(13,14)                1.3908         estimate D2E/DX2                !
 ! R32   R(13,35)                1.0765         estimate D2E/DX2                !
 ! R33   R(14,15)                1.3848         estimate D2E/DX2                !
 ! R34   R(14,36)                1.0801         estimate D2E/DX2                !
 ! R35   R(15,16)                1.3882         estimate D2E/DX2                !
 ! R36   R(15,37)                1.0807         estimate D2E/DX2                !
 ! R37   R(16,38)                1.0806         estimate D2E/DX2                !
 ! R38   R(17,18)                1.3916         estimate D2E/DX2                !
 ! R39   R(17,39)                1.0804         estimate D2E/DX2                !
 ! R40   R(18,19)                1.3895         estimate D2E/DX2                !
 ! R41   R(18,40)                1.0808         estimate D2E/DX2                !
 ! R42   R(19,20)                1.3929         estimate D2E/DX2                !
 ! R43   R(19,41)                1.0802         estimate D2E/DX2                !
 ! R44   R(20,42)                1.079          estimate D2E/DX2                !
 ! A1    A(2,1,21)             111.701          estimate D2E/DX2                !
 ! A2    A(2,1,22)             109.9146         estimate D2E/DX2                !
 ! A3    A(2,1,23)             111.7366         estimate D2E/DX2                !
 ! A4    A(21,1,22)            107.663          estimate D2E/DX2                !
 ! A5    A(21,1,23)            108.7641         estimate D2E/DX2                !
 ! A6    A(22,1,23)            106.8621         estimate D2E/DX2                !
 ! A7    A(1,2,3)              113.7486         estimate D2E/DX2                !
 ! A8    A(1,2,24)             112.5422         estimate D2E/DX2                !
 ! A9    A(3,2,24)             111.4591         estimate D2E/DX2                !
 ! A10   A(2,3,4)              111.8731         estimate D2E/DX2                !
 ! A11   A(2,3,25)             111.3137         estimate D2E/DX2                !
 ! A12   A(2,3,26)             108.1825         estimate D2E/DX2                !
 ! A13   A(4,3,25)             111.4056         estimate D2E/DX2                !
 ! A14   A(4,3,26)             108.0607         estimate D2E/DX2                !
 ! A15   A(25,3,26)            105.7065         estimate D2E/DX2                !
 ! A16   A(3,4,5)              114.0266         estimate D2E/DX2                !
 ! A17   A(3,4,27)             109.9083         estimate D2E/DX2                !
 ! A18   A(3,4,28)             109.266          estimate D2E/DX2                !
 ! A19   A(5,4,27)             111.1961         estimate D2E/DX2                !
 ! A20   A(5,4,28)             106.9629         estimate D2E/DX2                !
 ! A21   A(27,4,28)            105.0327         estimate D2E/DX2                !
 ! A22   A(4,5,6)              113.9911         estimate D2E/DX2                !
 ! A23   A(4,5,29)             111.1532         estimate D2E/DX2                !
 ! A24   A(4,5,30)             105.4296         estimate D2E/DX2                !
 ! A25   A(6,5,29)             110.9259         estimate D2E/DX2                !
 ! A26   A(6,5,30)             110.3047         estimate D2E/DX2                !
 ! A27   A(29,5,30)            104.4662         estimate D2E/DX2                !
 ! A28   A(5,6,7)              113.6421         estimate D2E/DX2                !
 ! A29   A(5,6,12)             119.0319         estimate D2E/DX2                !
 ! A30   A(7,6,12)             126.9089         estimate D2E/DX2                !
 ! A31   A(6,7,8)              122.4242         estimate D2E/DX2                !
 ! A32   A(6,7,20)             119.6822         estimate D2E/DX2                !
 ! A33   A(8,7,20)             117.8794         estimate D2E/DX2                !
 ! A34   A(7,8,9)              119.6414         estimate D2E/DX2                !
 ! A35   A(7,8,17)             119.9565         estimate D2E/DX2                !
 ! A36   A(9,8,17)             120.3237         estimate D2E/DX2                !
 ! A37   A(8,9,10)             111.8197         estimate D2E/DX2                !
 ! A38   A(8,9,31)             109.2869         estimate D2E/DX2                !
 ! A39   A(8,9,32)             110.1627         estimate D2E/DX2                !
 ! A40   A(10,9,31)            108.765          estimate D2E/DX2                !
 ! A41   A(10,9,32)            111.5915         estimate D2E/DX2                !
 ! A42   A(31,9,32)            104.9574         estimate D2E/DX2                !
 ! A43   A(9,10,11)            118.285          estimate D2E/DX2                !
 ! A44   A(9,10,33)            109.1061         estimate D2E/DX2                !
 ! A45   A(9,10,34)            107.5162         estimate D2E/DX2                !
 ! A46   A(11,10,33)           107.6799         estimate D2E/DX2                !
 ! A47   A(11,10,34)           108.1859         estimate D2E/DX2                !
 ! A48   A(33,10,34)           105.3343         estimate D2E/DX2                !
 ! A49   A(10,11,12)           124.5841         estimate D2E/DX2                !
 ! A50   A(10,11,16)           115.7414         estimate D2E/DX2                !
 ! A51   A(12,11,16)           119.6632         estimate D2E/DX2                !
 ! A52   A(6,12,11)            124.7302         estimate D2E/DX2                !
 ! A53   A(6,12,13)            118.6093         estimate D2E/DX2                !
 ! A54   A(11,12,13)           116.6123         estimate D2E/DX2                !
 ! A55   A(12,13,14)           122.9404         estimate D2E/DX2                !
 ! A56   A(12,13,35)           120.4991         estimate D2E/DX2                !
 ! A57   A(14,13,35)           116.5568         estimate D2E/DX2                !
 ! A58   A(13,14,15)           119.5848         estimate D2E/DX2                !
 ! A59   A(13,14,36)           120.1028         estimate D2E/DX2                !
 ! A60   A(15,14,36)           120.3102         estimate D2E/DX2                !
 ! A61   A(14,15,16)           119.3856         estimate D2E/DX2                !
 ! A62   A(14,15,37)           120.3131         estimate D2E/DX2                !
 ! A63   A(16,15,37)           120.3003         estimate D2E/DX2                !
 ! A64   A(11,16,15)           121.8064         estimate D2E/DX2                !
 ! A65   A(11,16,38)           119.9373         estimate D2E/DX2                !
 ! A66   A(15,16,38)           118.2563         estimate D2E/DX2                !
 ! A67   A(8,17,18)            120.9833         estimate D2E/DX2                !
 ! A68   A(8,17,39)            120.0936         estimate D2E/DX2                !
 ! A69   A(18,17,39)           118.9177         estimate D2E/DX2                !
 ! A70   A(17,18,19)           119.6715         estimate D2E/DX2                !
 ! A71   A(17,18,40)           120.1458         estimate D2E/DX2                !
 ! A72   A(19,18,40)           120.1783         estimate D2E/DX2                !
 ! A73   A(18,19,20)           119.6025         estimate D2E/DX2                !
 ! A74   A(18,19,41)           120.3128         estimate D2E/DX2                !
 ! A75   A(20,19,41)           120.0847         estimate D2E/DX2                !
 ! A76   A(7,20,19)            121.8944         estimate D2E/DX2                !
 ! A77   A(7,20,42)            119.2658         estimate D2E/DX2                !
 ! A78   A(19,20,42)           118.8396         estimate D2E/DX2                !
 ! D1    D(21,1,2,3)           -55.161          estimate D2E/DX2                !
 ! D2    D(21,1,2,24)           72.8178         estimate D2E/DX2                !
 ! D3    D(22,1,2,3)          -174.6008         estimate D2E/DX2                !
 ! D4    D(22,1,2,24)          -46.622          estimate D2E/DX2                !
 ! D5    D(23,1,2,3)            66.9374         estimate D2E/DX2                !
 ! D6    D(23,1,2,24)         -165.0838         estimate D2E/DX2                !
 ! D7    D(1,2,3,4)            -73.8385         estimate D2E/DX2                !
 ! D8    D(1,2,3,25)            51.5264         estimate D2E/DX2                !
 ! D9    D(1,2,3,26)           167.2482         estimate D2E/DX2                !
 ! D10   D(24,2,3,4)           157.6277         estimate D2E/DX2                !
 ! D11   D(24,2,3,25)          -77.0074         estimate D2E/DX2                !
 ! D12   D(24,2,3,26)           38.7144         estimate D2E/DX2                !
 ! D13   D(2,3,4,5)            177.8282         estimate D2E/DX2                !
 ! D14   D(2,3,4,27)           -56.5476         estimate D2E/DX2                !
 ! D15   D(2,3,4,28)            58.2116         estimate D2E/DX2                !
 ! D16   D(25,3,4,5)            52.514          estimate D2E/DX2                !
 ! D17   D(25,3,4,27)          178.1381         estimate D2E/DX2                !
 ! D18   D(25,3,4,28)          -67.1026         estimate D2E/DX2                !
 ! D19   D(26,3,4,5)           -63.1864         estimate D2E/DX2                !
 ! D20   D(26,3,4,27)           62.4377         estimate D2E/DX2                !
 ! D21   D(26,3,4,28)          177.197          estimate D2E/DX2                !
 ! D22   D(3,4,5,6)             61.2874         estimate D2E/DX2                !
 ! D23   D(3,4,5,29)          -172.4576         estimate D2E/DX2                !
 ! D24   D(3,4,5,30)           -59.8345         estimate D2E/DX2                !
 ! D25   D(27,4,5,6)           -63.6544         estimate D2E/DX2                !
 ! D26   D(27,4,5,29)           62.6007         estimate D2E/DX2                !
 ! D27   D(27,4,5,30)          175.2238         estimate D2E/DX2                !
 ! D28   D(28,4,5,6)          -177.8046         estimate D2E/DX2                !
 ! D29   D(28,4,5,29)          -51.5496         estimate D2E/DX2                !
 ! D30   D(28,4,5,30)           61.0735         estimate D2E/DX2                !
 ! D31   D(4,5,6,7)           -127.067          estimate D2E/DX2                !
 ! D32   D(4,5,6,12)            59.8351         estimate D2E/DX2                !
 ! D33   D(29,5,6,7)           106.559          estimate D2E/DX2                !
 ! D34   D(29,5,6,12)          -66.5389         estimate D2E/DX2                !
 ! D35   D(30,5,6,7)            -8.6962         estimate D2E/DX2                !
 ! D36   D(30,5,6,12)          178.2058         estimate D2E/DX2                !
 ! D37   D(5,6,7,8)            130.4094         estimate D2E/DX2                !
 ! D38   D(5,6,7,20)           -48.1905         estimate D2E/DX2                !
 ! D39   D(12,6,7,8)           -57.1416         estimate D2E/DX2                !
 ! D40   D(12,6,7,20)          124.2585         estimate D2E/DX2                !
 ! D41   D(5,6,12,11)         -155.1996         estimate D2E/DX2                !
 ! D42   D(5,6,12,13)           27.4182         estimate D2E/DX2                !
 ! D43   D(7,6,12,11)           32.714          estimate D2E/DX2                !
 ! D44   D(7,6,12,13)         -144.6683         estimate D2E/DX2                !
 ! D45   D(6,7,8,9)              5.752          estimate D2E/DX2                !
 ! D46   D(6,7,8,17)          -177.4564         estimate D2E/DX2                !
 ! D47   D(20,7,8,9)          -175.6241         estimate D2E/DX2                !
 ! D48   D(20,7,8,17)            1.1676         estimate D2E/DX2                !
 ! D49   D(6,7,20,19)          177.5787         estimate D2E/DX2                !
 ! D50   D(6,7,20,42)           -2.5765         estimate D2E/DX2                !
 ! D51   D(8,7,20,19)           -1.0843         estimate D2E/DX2                !
 ! D52   D(8,7,20,42)          178.7605         estimate D2E/DX2                !
 ! D53   D(7,8,9,10)            62.0693         estimate D2E/DX2                !
 ! D54   D(7,8,9,31)          -177.4518         estimate D2E/DX2                !
 ! D55   D(7,8,9,32)           -62.6303         estimate D2E/DX2                !
 ! D56   D(17,8,9,10)         -114.7104         estimate D2E/DX2                !
 ! D57   D(17,8,9,31)            5.7685         estimate D2E/DX2                !
 ! D58   D(17,8,9,32)          120.59           estimate D2E/DX2                !
 ! D59   D(7,8,17,18)           -0.3863         estimate D2E/DX2                !
 ! D60   D(7,8,17,39)         -179.5353         estimate D2E/DX2                !
 ! D61   D(9,8,17,18)          176.3833         estimate D2E/DX2                !
 ! D62   D(9,8,17,39)           -2.7657         estimate D2E/DX2                !
 ! D63   D(8,9,10,11)          -72.1293         estimate D2E/DX2                !
 ! D64   D(8,9,10,33)           51.3325         estimate D2E/DX2                !
 ! D65   D(8,9,10,34)          165.086          estimate D2E/DX2                !
 ! D66   D(31,9,10,11)         167.0878         estimate D2E/DX2                !
 ! D67   D(31,9,10,33)         -69.4503         estimate D2E/DX2                !
 ! D68   D(31,9,10,34)          44.3032         estimate D2E/DX2                !
 ! D69   D(32,9,10,11)          51.7713         estimate D2E/DX2                !
 ! D70   D(32,9,10,33)         175.2332         estimate D2E/DX2                !
 ! D71   D(32,9,10,34)         -71.0133         estimate D2E/DX2                !
 ! D72   D(9,10,11,12)          24.4324         estimate D2E/DX2                !
 ! D73   D(9,10,11,16)        -156.8007         estimate D2E/DX2                !
 ! D74   D(33,10,11,12)        -99.7375         estimate D2E/DX2                !
 ! D75   D(33,10,11,16)         79.0294         estimate D2E/DX2                !
 ! D76   D(34,10,11,12)        146.88           estimate D2E/DX2                !
 ! D77   D(34,10,11,16)        -34.3531         estimate D2E/DX2                !
 ! D78   D(10,11,12,6)           1.2152         estimate D2E/DX2                !
 ! D79   D(10,11,12,13)        178.6448         estimate D2E/DX2                !
 ! D80   D(16,11,12,6)        -177.5065         estimate D2E/DX2                !
 ! D81   D(16,11,12,13)         -0.0769         estimate D2E/DX2                !
 ! D82   D(10,11,16,15)       -179.4553         estimate D2E/DX2                !
 ! D83   D(10,11,16,38)          0.6359         estimate D2E/DX2                !
 ! D84   D(12,11,16,15)         -0.6236         estimate D2E/DX2                !
 ! D85   D(12,11,16,38)        179.4676         estimate D2E/DX2                !
 ! D86   D(6,12,13,14)         178.3573         estimate D2E/DX2                !
 ! D87   D(6,12,13,35)          -0.9139         estimate D2E/DX2                !
 ! D88   D(11,12,13,14)          0.7635         estimate D2E/DX2                !
 ! D89   D(11,12,13,35)       -178.5077         estimate D2E/DX2                !
 ! D90   D(12,13,14,15)         -0.7522         estimate D2E/DX2                !
 ! D91   D(12,13,14,36)        179.7703         estimate D2E/DX2                !
 ! D92   D(35,13,14,15)        178.5458         estimate D2E/DX2                !
 ! D93   D(35,13,14,36)         -0.9317         estimate D2E/DX2                !
 ! D94   D(13,14,15,16)          0.0247         estimate D2E/DX2                !
 ! D95   D(13,14,15,37)       -179.6223         estimate D2E/DX2                !
 ! D96   D(36,14,15,16)        179.5011         estimate D2E/DX2                !
 ! D97   D(36,14,15,37)         -0.1459         estimate D2E/DX2                !
 ! D98   D(14,15,16,11)          0.6552         estimate D2E/DX2                !
 ! D99   D(14,15,16,38)       -179.4345         estimate D2E/DX2                !
 ! D100  D(37,15,16,11)       -179.6978         estimate D2E/DX2                !
 ! D101  D(37,15,16,38)          0.2125         estimate D2E/DX2                !
 ! D102  D(8,17,18,19)          -0.5339         estimate D2E/DX2                !
 ! D103  D(8,17,18,40)        -179.7835         estimate D2E/DX2                !
 ! D104  D(39,17,18,19)        178.6249         estimate D2E/DX2                !
 ! D105  D(39,17,18,40)         -0.6247         estimate D2E/DX2                !
 ! D106  D(17,18,19,20)          0.6315         estimate D2E/DX2                !
 ! D107  D(17,18,19,41)       -179.3293         estimate D2E/DX2                !
 ! D108  D(40,18,19,20)        179.8808         estimate D2E/DX2                !
 ! D109  D(40,18,19,41)         -0.08           estimate D2E/DX2                !
 ! D110  D(18,19,20,7)           0.1896         estimate D2E/DX2                !
 ! D111  D(18,19,20,42)       -179.6558         estimate D2E/DX2                !
 ! D112  D(41,19,20,7)        -179.8495         estimate D2E/DX2                !
 ! D113  D(41,19,20,42)          0.3051         estimate D2E/DX2                !
 --------------------------------------------------------------------------------
 Trust Radius=3.00D-01 FncErr=1.00D-07 GrdErr=1.00D-06 EigMax=2.50D+02 EigMin=1.00D-04
 Number of steps in this run=    245 maximum allowed number of steps=    252.
 GradGradGradGradGradGradGradGradGradGradGradGradGradGradGradGradGradGrad

                          Input orientation:                          
 ---------------------------------------------------------------------
 Center     Atomic      Atomic             Coordinates (Angstroms)
 Number     Number       Type             X           Y           Z
 ---------------------------------------------------------------------
      1          6           0       -0.494000   -3.821000    4.100000
      2          7           0       -0.666100   -3.865900    2.651600
      3          6           0        0.215400   -2.955300    1.926100
      4          6           0       -0.231800   -1.490800    2.067700
      5          6           0        0.698700   -0.477100    1.361400
      6          7           0        0.799100   -0.671400   -0.107500
      7          6           0        2.126600   -0.778100   -0.574900
      8          6           0        2.545600   -1.817500   -1.429300
      9          6           0        1.526100   -2.791800   -1.978500
     10          6           0        0.485000   -2.092700   -2.850500
     11          6           0       -0.557800   -1.209900   -2.166100
     12          6           0       -0.380400   -0.582400   -0.897900
     13          6           0       -1.443300    0.221700   -0.436700
     14          6           0       -2.622700    0.399500   -1.152100
     15          6           0       -2.776400   -0.218900   -2.381600
     16          6           0       -1.748900   -1.008000   -2.880400
     17          6           0        3.889000   -1.904100   -1.819500
     18          6           0        4.823700   -0.970600   -1.381900
     19          6           0        4.420700    0.070500   -0.554600
     20          6           0        3.087400    0.160500   -0.161700
     21          1           0        0.542600   -4.004200    4.389200
     22          1           0       -1.109800   -4.588500    4.571400
     23          1           0       -0.809900   -2.863000    4.514800
     24          1           0       -0.610500   -4.807600    2.283000
     25          1           0        1.256600   -3.085200    2.229100
     26          1           0        0.180700   -3.218500    0.869000
     27          1           0       -1.261500   -1.382900    1.728600
     28          1           0       -0.252200   -1.221800    3.122500
     29          1           0        0.416400    0.548900    1.600200
     30          1           0        1.677600   -0.606600    1.828700
     31          1           0        2.036000   -3.547000   -2.578100
     32          1           0        1.060200   -3.346400   -1.164600
     33          1           0        0.996100   -1.483300   -3.597900
     34          1           0       -0.040200   -2.863600   -3.416800
     35          1           0       -1.366100    0.743900    0.501500
     36          1           0       -3.409300    1.023200   -0.753500
     37          1           0       -3.685400   -0.083900   -2.950200
     38          1           0       -1.884500   -1.474400   -3.845700
     39          1           0        4.211200   -2.695700   -2.480500
     40          1           0        5.855500   -1.048300   -1.694000
     41          1           0        5.135400    0.807000   -0.217600
     42          1           0        2.786800    0.977100    0.476300
 ---------------------------------------------------------------------
                    Distance matrix (angstroms):
                    1          2          3          4          5
     1  C    0.000000
     2  N    1.459280   0.000000
     3  C    2.445102   1.460337   0.000000
     4  C    3.103035   2.484080   1.537790   0.000000
     5  C    4.483763   3.874437   2.587265   1.546699   0.000000
     6  N    5.412499   4.468140   3.113267   2.542767   1.485093
     7  C    6.162911   5.267256   3.827256   3.612939   2.424615
     8  C    6.620146   5.582536   4.240652   4.477688   3.604957
     9  C    6.487543   5.234239   4.121962   4.599407   4.146970
    10  C    7.228756   5.894266   4.861345   5.006474   4.516186
    11  C    6.788661   5.502390   4.515569   4.255613   3.815632
    12  C    5.956546   4.843753   3.736390   3.105166   2.505989
    13  C    6.150304   5.181709   4.292719   3.266865   2.882646
    14  C    7.066013   6.040700   5.365148   4.433593   4.256502
    15  C    7.758583   6.564075   5.915660   5.281003   5.114004
    16  C    7.629792   6.320053   5.545529   5.197921   4.925999
    17  C    7.610892   6.677449   5.350689   5.679977   4.725724
    18  C    8.151929   7.402012   6.009852   6.142347   4.978440
    19  C    7.807903   7.186828   5.744030   5.564160   4.221872
    20  C    6.844038   6.181854   4.723929   4.325980   2.903835
    21  H    1.091668   2.121164   2.697056   3.508025   4.651062
    22  H    1.091093   2.098726   3.379513   4.078620   5.520723
    23  H    1.090695   2.120849   2.785880   2.864512   4.232295
    24  H    2.070855   1.012796   2.059248   3.345285   4.616988
    25  H    2.665759   2.117729   1.092145   2.187120   2.804700
    26  H    3.355233   2.076983   1.089926   2.142892   2.833029
    27  H    3.486678   2.715091   2.166260   1.089456   2.190364
    28  H    2.787439   2.717411   2.157555   1.088752   2.135477
    29  H    5.116039   4.665588   3.525057   2.190684   1.090594
    30  H    4.495222   4.097942   2.768376   2.117720   1.092422
    31  H    7.146537   5.895151   4.894130   5.563662   5.170331
    32  H    5.509700   4.220589   3.227859   3.944652   3.839823
    33  H    8.181864   6.891730   5.769823   5.797139   5.069077
    34  H    7.591102   6.182381   5.349796   5.656945   5.391897
    35  H    5.877761   5.134509   4.267869   2.955250   2.548268
    36  H    7.451289   6.559204   6.012252   4.937193   4.857918
    37  H    8.593967   7.402693   6.873098   6.251883   6.161561
    38  H    8.400843   7.029842   6.317936   6.140031   5.897577
    39  H    8.167508   7.176063   5.954153   6.471333   5.658625
    40  H    9.031858   8.327927   6.967962   7.169478   6.021156
    41  H    8.470549   7.982838   6.554140   6.269714   4.881236
    42  H    6.849570   6.333174   4.917091   4.211298   2.694116
                    6          7          8          9         10
     6  N    0.000000
     7  C    1.411419   0.000000
     8  C    2.472036   1.409224   0.000000
     9  C    2.919806   2.526990   1.513361   0.000000
    10  C    3.105286   3.098609   2.518257   1.527421   0.000000
    11  C    2.523687   3.150297   3.247021   2.623021   1.528127
    12  C    1.422629   2.535286   3.220145   3.111894   2.615831
    13  C    2.436054   3.709836   4.588563   4.502851   3.860210
    14  C    3.734532   4.927043   5.630564   5.299045   4.330522
    15  C    4.261512   5.255119   5.637915   5.029295   3.790478
    16  C    3.780817   4.515272   4.604749   3.836794   2.483501
    17  C    3.741387   2.433713   1.401599   2.529148   3.561706
    18  C    4.232141   2.821817   2.430890   3.814035   4.715953
    19  C    3.723748   2.446105   2.801008   4.312651   5.043840
    20  C    2.435429   1.405290   2.410983   3.801907   4.367956
    21  H    5.603004   6.128545   6.530590   6.556279   7.488018
    22  H    6.393722   7.174806   7.553065   7.285416   7.991058
    23  H    5.362616   6.234973   6.905416   6.901080   7.517830
    24  H    4.980925   5.647670   5.716890   5.175799   5.909621
    25  H    3.390492   3.733902   4.080744   4.226418   5.232854
    26  H    2.797086   3.439030   3.582979   3.178117   3.898039
    27  H    2.850187   4.141391   4.965402   4.847505   4.951993
    28  H    3.441086   4.418860   5.376005   5.625607   6.081008
    29  H    2.133502   3.068676   4.394452   5.019841   5.176049
    30  H    2.127165   2.451185   3.582494   4.392360   5.052297
    31  H    3.987839   3.418746   2.137897   1.090800   2.143546
    32  H    2.888124   2.842731   2.148026   1.089531   2.178274
    33  H    3.588995   3.303614   2.686162   2.148378   1.091420
    34  H    4.057294   4.137720   3.425032   2.127712   1.091246
    35  H    2.657451   3.959050   5.058671   5.197730   4.765372
    36  H    4.582534   5.824326   6.632278   6.357124   5.410343
    37  H    5.341988   6.316907   6.644085   5.952870   4.630060
    38  H    4.671259   5.222249   5.057914   4.105383   2.643340
    39  H    4.622915   3.413804   2.156497   2.733313   3.792766
    40  H    5.312835   3.902575   3.408397   4.675942   5.592006
    41  H    4.582716   3.419515   3.881144   5.392511   6.080020
    42  H    2.647513   2.149794   3.391059   4.671190   5.078342
                   11         12         13         14         15
    11  C    0.000000
    12  C    1.426029   0.000000
    13  C    2.413382   1.410333   0.000000
    14  C    2.807521   2.461027   1.390825   0.000000
    15  C    2.439407   2.841534   2.398733   1.384815   0.000000
    16  C    1.403463   2.446269   2.752676   2.394077   1.388249
    17  C    4.513987   4.563334   5.904624   6.939325   6.898073
    18  C    5.443600   5.240955   6.449052   7.574883   7.702336
    19  C    5.387190   4.857437   5.867134   7.076350   7.431011
    20  C    4.379851   3.622089   4.539451   5.800281   6.281405
    21  H    7.210475   6.365066   6.715009   7.753561   8.437298
    22  H    7.557351   6.818659   6.952001   7.741283   8.379449
    23  H    6.886996   5.889221   5.868042   6.785566   7.643214
    24  H    5.721950   5.293712   5.777905   6.554598   6.892444
    25  H    5.111417   4.326882   5.033045   6.214871   6.763085
    26  H    3.713716   3.222699   4.022090   5.003381   5.320568
    27  H    3.961541   2.883685   2.701169   3.650787   4.532501
    28  H    5.297436   4.072945   4.021233   5.149766   6.137794
    29  H    4.269363   2.855737   2.777500   4.102878   5.161223
    30  H    4.617295   3.416182   3.944380   5.328225   6.141258
    31  H    3.515619   4.177429   5.558257   6.269914   5.854405
    32  H    2.861042   3.128283   4.419128   5.253159   5.097239
    33  H    2.130588   3.161704   4.341760   4.756321   4.160511
    34  H    2.137027   3.415328   4.513176   4.737720   3.943712
    35  H    3.403935   2.165409   1.076509   2.105243   3.350850
    36  H    3.887573   3.431186   2.146607   1.080103   2.143382
    37  H    3.415343   3.922176   3.382024   2.143868   1.080653
    38  H    2.156652   3.427463   3.833105   3.363320   2.124936
    39  H    5.004979   5.296551   6.682942   7.618865   7.414234
    40  H    6.432683   6.303752   7.514398   8.617984   8.698873
    41  H    6.346421   5.728638   6.608319   7.824798   8.266314
    42  H    4.790782   3.788353   4.392943   5.678732   6.367669
                   16         17         18         19         20
    16  C    0.000000
    17  C    5.806412   0.000000
    18  C    6.741363   1.391611   0.000000
    19  C    6.681053   2.404521   1.389505   0.000000
    20  C    5.669790   2.766485   2.404790   1.392896   0.000000
    21  H    8.189949   7.359128   7.799753   7.488925   6.673187
    22  H    8.292029   8.546204   9.150814   8.863892   7.910229
    23  H    7.681909   7.944967   8.371959   7.852606   6.797069
    24  H    6.511038   6.745837   7.595037   7.560477   6.658306
    25  H    6.281304   4.971488   5.498641   5.264880   4.427451
    26  H    4.761057   4.765204   5.628237   5.551735   4.574810
    27  H    4.649838   6.276011   6.846522   6.293868   4.986807
    28  H    6.190366   6.483705   6.790985   6.084990   4.883610
    29  H    5.214234   5.456236   5.534085   4.572357   3.223257
    30  H    5.837606   4.459054   4.509811   3.696374   2.556887
    31  H    4.567644   2.590020   3.979950   4.782013   4.548625
    32  H    4.037713   3.242103   4.455960   4.831176   4.172972
    33  H    2.876759   3.421790   4.452419   4.837753   4.345467
    34  H    2.578882   4.348634   5.601945   6.058115   5.433483
    35  H    3.827915   6.325743   6.693305   5.920800   4.540248
    36  H    3.377337   7.935403   8.494258   7.890253   6.580394
    37  H    2.146827   7.871667   8.697734   8.454088   7.328457
    38  H    1.080611   6.133794   7.164082   7.278297   6.400355
    39  H    6.207338   1.080446   2.134959   3.377106   3.846770
    40  H    7.696497   2.148317   1.080766   2.146764   3.386963
    41  H    7.601205   3.386689   2.147699   1.080184   2.148346
    42  H    5.981691   3.845368   3.375708   2.134082   1.078999
                   21         22         23         24         25
    21  H    0.000000
    22  H    1.762109   0.000000
    23  H    1.774083   1.752282   0.000000
    24  H    2.532029   2.352463   2.966844   0.000000
    25  H    2.453648   3.653235   3.089372   2.540793   0.000000
    26  H    3.624928   4.153319   3.794671   2.269500   1.739311
    27  H    4.147865   4.287236   3.187091   3.529834   3.080447
    28  H    3.158795   3.764234   2.223301   3.700149   2.558691
    29  H    5.340896   6.127821   4.651856   5.496620   3.782609
    30  H    4.403189   5.580997   4.300480   4.805225   2.545785
    31  H    7.140206   7.880110   7.673085   5.676563   4.891819
    32  H    5.616521   6.257268   5.998878   4.100279   3.409398
    33  H    8.387751   8.989691   8.425029   6.943855   6.048791
    34  H    7.910389   8.242006   7.968859   6.049140   5.797153
    35  H    6.426648   6.712992   5.424543   5.879101   4.952289
    36  H    8.206073   8.070529   7.043750   7.145057   6.895323
    37  H    9.333356   9.137812   8.468655   7.691211   7.762494
    38  H    8.950099   9.008071   8.542888   7.091845   7.025979
    39  H    7.897061   9.034657   8.612413   7.099285   5.573303
    40  H    8.600557  10.015171   9.288159   8.471011   6.378837
    41  H    8.090987   9.541932   8.438667   8.413804   6.015035
    42  H    6.720161   7.932795   6.632654   6.947558   4.681464
                   26         27         28         29         30
    26  H    0.000000
    27  H    2.487625   0.000000
    28  H    3.041788   1.728467   0.000000
    29  H    3.844933   2.561969   2.428951   0.000000
    30  H    3.159708   3.041541   2.403439   1.725693   0.000000
    31  H    3.928428   5.839906   6.568048   6.071054   5.309829
    32  H    2.219326   4.197169   4.961406   4.819954   4.104574
    33  H    4.860966   5.786056   6.840352   5.611251   5.539046
    34  H    4.306139   5.491738   6.745583   6.084729   5.963234
    35  H    4.269457   2.457640   3.460403   2.102968   3.584609
    36  H    5.789009   4.069789   5.480026   4.516729   5.933006
    37  H    6.273654   5.427141   7.068194   6.158842   7.202282
    38  H    5.434642   5.609752   7.161286   6.248657   6.755772
    39  H    5.266631   7.027831   7.313544   6.448259   5.417811
    40  H    6.594095   7.904292   7.780281   6.556417   5.482642
    41  H    6.475678   7.035886   6.655714   5.063593   4.259341
    42  H    4.954698   4.850421   4.590540   2.658064   2.359537
                   31         32         33         34         35
    31  H    0.000000
    32  H    1.729280   0.000000
    33  H    2.525914   3.065322   0.000000
    34  H    2.341166   2.552720   1.735495   0.000000
    35  H    6.282519   5.039184   5.229291   5.488638   0.000000
    36  H    7.339427   6.264091   5.812117   5.792341   2.414063
    37  H    6.698204   6.029344   4.928923   4.607812   4.240122
    38  H    4.612245   4.400448   2.891252   2.348462   4.907926
    39  H    2.337891   3.476177   3.613221   4.356518   7.199267
    40  H    4.649055   5.343822   5.237158   6.404891   7.757816
    41  H    5.842564   5.895320   5.814268   7.105985   6.541452
    42  H    5.510040   4.936229   5.085202   6.156227   4.159519
                   36         37         38         39         40
    36  H    0.000000
    37  H    2.475357   0.000000
    38  H    4.257314   2.445128   0.000000
    39  H    8.653598   8.330571   6.364975   0.000000
    40  H    9.540030   9.671447   8.044810   2.456874   0.000000
    41  H    8.564218   9.277247   8.224773   4.271273   2.477991
    42  H    6.317135   7.399729   6.819867   4.925550   4.269586
                   41         42
    41  H    0.000000
    42  H    2.454863   0.000000
 Stoichiometry    C18H22N2
 Framework group  C1[X(C18H22N2)]
 Deg. of freedom   120
 Full point group                 C1      NOp   1
 Largest Abelian subgroup         C1      NOp   1
 Largest concise Abelian subgroup C1      NOp   1
                         Standard orientation:                         
 ---------------------------------------------------------------------
 Center     Atomic      Atomic             Coordinates (Angstroms)
 Number     Number       Type             X           Y           Z
 ---------------------------------------------------------------------
      1          6           0        4.053210   -3.159677    0.558693
      2          7           0        3.334961   -2.049515    1.176073
      3          6           0        2.019146   -1.803223    0.592500
      4          6           0        2.121168   -1.141884   -0.792065
      5          6           0        0.755868   -0.906548   -1.479707
      6          7           0       -0.151607   -0.003492   -0.727058
      7          6           0       -1.430877   -0.552391   -0.494073
      8          6           0       -2.030020   -0.557554    0.781433
      9          6           0       -1.351305    0.156763    1.930066
     10          6           0       -1.222107    1.656195    1.669245
     11          6           0       -0.207262    2.125167    0.627455
     12          6           0        0.269447    1.327769   -0.454425
     13          6           0        1.184704    1.940366   -1.335372
     14          6           0        1.630415    3.247897   -1.173821
     15          6           0        1.156377    4.006091   -0.116399
     16          6           0        0.242748    3.447196    0.766865
     17          6           0       -3.280163   -1.164123    0.964998
     18          6           0       -3.950618   -1.759694   -0.099128
     19          6           0       -3.380326   -1.745121   -1.366124
     20          6           0       -2.137138   -1.145744   -1.554247
     21          1           0        3.465577   -4.079545    0.575028
     22          1           0        4.980735   -3.349685    1.100983
     23          1           0        4.329552   -2.938158   -0.472898
     24          1           0        3.283472   -2.133041    2.184105
     25          1           0        1.424245   -2.718325    0.554274
     26          1           0        1.476270   -1.125691    1.251420
     27          1           0        2.690643   -0.215927   -0.719851
     28          1           0        2.703932   -1.780970   -1.453378
     29          1           0        0.886405   -0.560775   -2.505765
     30          1           0        0.306682   -1.897219   -1.580640
     31          1           0       -1.932710    0.007852    2.840911
     32          1           0       -0.383516   -0.299131    2.136519
     33          1           0       -2.197519    2.054642    1.384625
     34          1           0       -0.980797    2.135273    2.619546
     35          1           0        1.566134    1.403617   -2.187008
     36          1           0        2.335413    3.670401   -1.874600
     37          1           0        1.490117    5.025257    0.016758
     38          1           0       -0.122173    4.058160    1.580054
     39          1           0       -3.744975   -1.162797    1.940350
     40          1           0       -4.915666   -2.220514    0.057016
     41          1           0       -3.896631   -2.194795   -2.201600
     42          1           0       -1.708275   -1.136496   -2.544313
 ---------------------------------------------------------------------
 Rotational constants (GHZ):           0.3499513           0.3048814           0.2085928
 Standard basis: 6-31G(d,p) (6D, 7F)
 There are   410 symmetry adapted cartesian basis functions of A   symmetry.
 There are   410 symmetry adapted basis functions of A   symmetry.
   410 basis functions,   714 primitive gaussians,   410 cartesian basis functions
    72 alpha electrons       72 beta electrons
       nuclear repulsion energy      1536.3354371746 Hartrees.
 NAtoms=   42 NActive=   42 NUniq=   42 SFac= 1.00D+00 NAtFMM=   60 NAOKFM=F Big=F
 Integral buffers will be    131072 words long.
 Raffenetti 2 integral format.
 Two-electron integral symmetry is turned on.
 Nuclear repulsion after empirical dispersion term =     1536.2438695920 Hartrees.
 One-electron integrals computed using PRISM.
 NBasis=   410 RedAO= T EigKep=  3.67D-04  NBF=   410
 NBsUse=   410 1.00D-06 EigRej= -1.00D+00 NBFU=   410
 ExpMin= 1.61D-01 ExpMax= 4.17D+03 ExpMxC= 6.27D+02 IAcc=3 IRadAn=         5 AccDes= 0.00D+00
 Harris functional with IExCor=  402 and IRadAn=       5 diagonalized for initial guess.
 HarFok:  IExCor=  402 AccDes= 0.00D+00 IRadAn=         5 IDoV= 1 UseB2=F ITyADJ=14
 ICtDFT=  3500011 ScaDFX=  1.000000  1.000000  1.000000  1.000000
 FoFCou: FMM=F IPFlag=           0 FMFlag=      100000 FMFlg1=           0
         NFxFlg=           0 DoJE=T BraDBF=F KetDBF=T FulRan=T
         wScrn=  0.000000 ICntrl=       500 IOpCl=  0 I1Cent=   200000004 NGrid=           0
         NMat0=    1 NMatS0=      1 NMatT0=    0 NMatD0=    1 NMtDS0=    0 NMtDT0=    0
 Petite list used in FoFCou.
 Requested convergence on RMS density matrix=1.00D-08 within 128 cycles.
 Requested convergence on MAX density matrix=1.00D-06.
 Requested convergence on             energy=1.00D-06.
 No special actions if energy rises.
 Integral accuracy reduced to 1.0D-05 until final iterations.
 Initial convergence to 1.0D-05 achieved.  Increase integral accuracy.
 SCF Done:  E(RB3LYP) =  -808.770623490     A.U. after   14 cycles
            NFock= 14  Conv=0.69D-08     -V/T= 2.0098

 **********************************************************************

            Population analysis using the SCF Density.

 **********************************************************************

 Orbital symmetries:
       Occupied  (A) (A) (A) (A) (A) (A) (A) (A) (A) (A) (A) (A)
                 (A) (A) (A) (A) (A) (A) (A) (A) (A) (A) (A) (A)
                 (A) (A) (A) (A) (A) (A) (A) (A) (A) (A) (A) (A)
                 (A) (A) (A) (A) (A) (A) (A) (A) (A) (A) (A) (A)
                 (A) (A) (A) (A) (A) (A) (A) (A) (A) (A) (A) (A)
                 (A) (A) (A) (A) (A) (A) (A) (A) (A) (A) (A) (A)
       Virtual   (A) (A) (A) (A) (A) (A) (A) (A) (A) (A) (A) (A)
                 (A) (A) (A) (A) (A) (A) (A) (A) (A) (A) (A) (A)
                 (A) (A) (A) (A) (A) (A) (A) (A) (A) (A) (A) (A)
                 (A) (A) (A) (A) (A) (A) (A) (A) (A) (A) (A) (A)
                 (A) (A) (A) (A) (A) (A) (A) (A) (A) (A) (A) (A)
                 (A) (A) (A) (A) (A) (A) (A) (A) (A) (A) (A) (A)
                 (A) (A) (A) (A) (A) (A) (A) (A) (A) (A) (A) (A)
                 (A) (A) (A) (A) (A) (A) (A) (A) (A) (A) (A) (A)
                 (A) (A) (A) (A) (A) (A) (A) (A) (A) (A) (A) (A)
                 (A) (A) (A) (A) (A) (A) (A) (A) (A) (A) (A) (A)
                 (A) (A) (A) (A) (A) (A) (A) (A) (A) (A) (A) (A)
                 (A) (A) (A) (A) (A) (A) (A) (A) (A) (A) (A) (A)
                 (A) (A) (A) (A) (A) (A) (A) (A) (A) (A) (A) (A)
                 (A) (A) (A) (A) (A) (A) (A) (A) (A) (A) (A) (A)
                 (A) (A) (A) (A) (A) (A) (A) (A) (A) (A) (A) (A)
                 (A) (A) (A) (A) (A) (A) (A) (A) (A) (A) (A) (A)
                 (A) (A) (A) (A) (A) (A) (A) (A) (A) (A) (A) (A)
                 (A) (A) (A) (A) (A) (A) (A) (A) (A) (A) (A) (A)
                 (A) (A) (A) (A) (A) (A) (A) (A) (A) (A) (A) (A)
                 (A) (A) (A) (A) (A) (A) (A) (A) (A) (A) (A) (A)
                 (A) (A) (A) (A) (A) (A) (A) (A) (A) (A) (A) (A)
                 (A) (A) (A) (A) (A) (A) (A) (A) (A) (A) (A) (A)
                 (A) (A) (A) (A) (A) (A) (A) (A) (A) (A) (A) (A)
                 (A) (A) (A) (A) (A) (A) (A) (A) (A) (A) (A) (A)
                 (A) (A) (A) (A) (A) (A) (A) (A) (A) (A) (A) (A)
                 (A) (A) (A) (A) (A) (A) (A) (A) (A) (A) (A) (A)
                 (A) (A) (A) (A) (A) (A) (A) (A) (A) (A) (A) (A)
                 (A) (A) (A) (A) (A) (A) (A) (A) (A) (A) (A) (A)
                 (A) (A)
 The electronic state is 1-A.
 Alpha  occ. eigenvalues --  -14.35022 -14.30949 -10.22646 -10.22008 -10.21663
 Alpha  occ. eigenvalues --  -10.19895 -10.19618 -10.18903 -10.18795 -10.18417
 Alpha  occ. eigenvalues --  -10.18388 -10.18277 -10.18222 -10.18155 -10.17951
 Alpha  occ. eigenvalues --  -10.17697 -10.17692 -10.17593 -10.17584 -10.17117
 Alpha  occ. eigenvalues --   -0.94408  -0.89081  -0.84835  -0.83768  -0.79309
 Alpha  occ. eigenvalues --   -0.76574  -0.74873  -0.74720  -0.71843  -0.70119
 Alpha  occ. eigenvalues --   -0.67976  -0.64671  -0.64008  -0.60057  -0.59492
 Alpha  occ. eigenvalues --   -0.58144  -0.57247  -0.55671  -0.51403  -0.50088
 Alpha  occ. eigenvalues --   -0.49096  -0.47500  -0.46707  -0.46393  -0.45428
 Alpha  occ. eigenvalues --   -0.45018  -0.43707  -0.42892  -0.42503  -0.42193
 Alpha  occ. eigenvalues --   -0.40975  -0.40430  -0.39475  -0.38780  -0.38453
 Alpha  occ. eigenvalues --   -0.37974  -0.37543  -0.35956  -0.35208  -0.34575
 Alpha  occ. eigenvalues --   -0.34313  -0.33699  -0.33468  -0.32963  -0.32150
 Alpha  occ. eigenvalues --   -0.32064  -0.28370  -0.24210  -0.23749  -0.23141
 Alpha  occ. eigenvalues --   -0.20902  -0.18469
 Alpha virt. eigenvalues --   -0.00058   0.00596   0.00936   0.02085   0.08293
 Alpha virt. eigenvalues --    0.09273   0.10007   0.10905   0.11301   0.11628
 Alpha virt. eigenvalues --    0.13618   0.14130   0.14344   0.14626   0.15283
 Alpha virt. eigenvalues --    0.15669   0.16658   0.17019   0.17237   0.17667
 Alpha virt. eigenvalues --    0.18115   0.18520   0.18800   0.19607   0.20237
 Alpha virt. eigenvalues --    0.20897   0.21498   0.22136   0.22827   0.23833
 Alpha virt. eigenvalues --    0.24573   0.25161   0.26012   0.26642   0.27454
 Alpha virt. eigenvalues --    0.27755   0.30190   0.31417   0.32400   0.33182
 Alpha virt. eigenvalues --    0.33762   0.35335   0.36046   0.37147   0.37982
 Alpha virt. eigenvalues --    0.41159   0.46981   0.49643   0.50222   0.50283
 Alpha virt. eigenvalues --    0.51172   0.51982   0.53029   0.53369   0.53821
 Alpha virt. eigenvalues --    0.54578   0.55148   0.55316   0.55787   0.56696
 Alpha virt. eigenvalues --    0.57850   0.58497   0.58899   0.59123   0.59604
 Alpha virt. eigenvalues --    0.60455   0.61280   0.61382   0.61705   0.61919
 Alpha virt. eigenvalues --    0.62454   0.62557   0.62825   0.63474   0.65284
 Alpha virt. eigenvalues --    0.66260   0.66806   0.67221   0.68655   0.69569
 Alpha virt. eigenvalues --    0.69623   0.70330   0.71913   0.73929   0.74717
 Alpha virt. eigenvalues --    0.75641   0.76571   0.77373   0.78196   0.80495
 Alpha virt. eigenvalues --    0.81023   0.81643   0.82003   0.82482   0.83197
 Alpha virt. eigenvalues --    0.83283   0.83897   0.83943   0.84556   0.85447
 Alpha virt. eigenvalues --    0.85741   0.87898   0.88156   0.89164   0.89788
 Alpha virt. eigenvalues --    0.90859   0.91201   0.91943   0.92833   0.93412
 Alpha virt. eigenvalues --    0.93655   0.94552   0.95856   0.96488   0.96608
 Alpha virt. eigenvalues --    0.97045   0.99326   0.99553   1.00972   1.02320
 Alpha virt. eigenvalues --    1.04473   1.05855   1.06519   1.07674   1.08872
 Alpha virt. eigenvalues --    1.09516   1.10928   1.11793   1.12670   1.13506
 Alpha virt. eigenvalues --    1.14339   1.17297   1.19139   1.20807   1.21619
 Alpha virt. eigenvalues --    1.22624   1.23600   1.25990   1.27462   1.28743
 Alpha virt. eigenvalues --    1.30443   1.31563   1.33682   1.34483   1.35732
 Alpha virt. eigenvalues --    1.36282   1.37959   1.41093   1.42334   1.42513
 Alpha virt. eigenvalues --    1.42823   1.43337   1.44290   1.44453   1.48885
 Alpha virt. eigenvalues --    1.49667   1.50073   1.51866   1.56038   1.58150
 Alpha virt. eigenvalues --    1.59864   1.60872   1.66423   1.67718   1.68322
 Alpha virt. eigenvalues --    1.70049   1.72394   1.72494   1.76299   1.76654
 Alpha virt. eigenvalues --    1.77222   1.78005   1.78636   1.81421   1.82439
 Alpha virt. eigenvalues --    1.82893   1.83576   1.85407   1.85824   1.87436
 Alpha virt. eigenvalues --    1.87926   1.89106   1.89569   1.89798   1.90818
 Alpha virt. eigenvalues --    1.91745   1.93112   1.93645   1.93791   1.94787
 Alpha virt. eigenvalues --    1.95798   1.97194   1.98202   1.98747   1.99790
 Alpha virt. eigenvalues --    2.00920   2.01156   2.02069   2.02313   2.04534
 Alpha virt. eigenvalues --    2.05281   2.05392   2.05684   2.08517   2.08952
 Alpha virt. eigenvalues --    2.09167   2.11245   2.12520   2.14160   2.14624
 Alpha virt. eigenvalues --    2.15673   2.17831   2.18888   2.20620   2.21417
 Alpha virt. eigenvalues --    2.22440   2.23775   2.24551   2.26093   2.26897
 Alpha virt. eigenvalues --    2.27765   2.28544   2.29258   2.30172   2.30700
 Alpha virt. eigenvalues --    2.31800   2.32527   2.33922   2.34414   2.37824
 Alpha virt. eigenvalues --    2.38596   2.39255   2.39948   2.40697   2.42102
 Alpha virt. eigenvalues --    2.42561   2.43644   2.44529   2.45039   2.45496
 Alpha virt. eigenvalues --    2.46514   2.47401   2.48242   2.49075   2.50313
 Alpha virt. eigenvalues --    2.51303   2.53246   2.54296   2.54848   2.56902
 Alpha virt. eigenvalues --    2.57217   2.58250   2.58663   2.59837   2.60209
 Alpha virt. eigenvalues --    2.60823   2.62951   2.64571   2.65244   2.65805
 Alpha virt. eigenvalues --    2.67734   2.68021   2.68707   2.69947   2.70849
 Alpha virt. eigenvalues --    2.71854   2.73859   2.74184   2.74752   2.76525
 Alpha virt. eigenvalues --    2.77029   2.78213   2.78700   2.80917   2.81586
 Alpha virt. eigenvalues --    2.83001   2.83546   2.84568   2.88262   2.88416
 Alpha virt. eigenvalues --    2.89038   2.90123   2.92751   2.94286   2.96956
 Alpha virt. eigenvalues --    2.98419   3.00191   3.02540   3.06578   3.07440
 Alpha virt. eigenvalues --    3.09785   3.13263   3.20632   3.22545   3.23390
 Alpha virt. eigenvalues --    3.25925   3.26709   3.27527   3.30683   3.31480
 Alpha virt. eigenvalues --    3.34454   3.34777   3.36393   3.38355   3.39399
 Alpha virt. eigenvalues --    3.41505   3.42416   3.45044   3.45323   3.46442
 Alpha virt. eigenvalues --    3.49647   3.49985   3.50894   3.54838   3.56925
 Alpha virt. eigenvalues --    3.61519   3.86208   3.87210   4.06742   4.14350
 Alpha virt. eigenvalues --    4.14586   4.17389   4.17744   4.20933   4.22480
 Alpha virt. eigenvalues --    4.25403   4.38008   4.41101   4.45340   4.46171
 Alpha virt. eigenvalues --    4.47378   4.49346   4.56442   4.60244   4.68024
 Alpha virt. eigenvalues --    4.73598   4.86140   4.88211
          Condensed to atoms (all electrons):
               1          2          3          4          5          6
     1  C    4.789130   0.327943  -0.053080  -0.005333   0.000000  -0.000002
     2  N    0.327943   6.774032   0.324053  -0.058640   0.003165   0.000068
     3  C   -0.053080   0.324053   4.803998   0.359609  -0.033183  -0.001366
     4  C   -0.005333  -0.058640   0.359609   5.041115   0.335938  -0.056002
     5  C    0.000000   0.003165  -0.033183   0.335938   4.844687   0.300368
     6  N   -0.000002   0.000068  -0.001366  -0.056002   0.300368   7.222408
     7  C    0.000000   0.000003   0.001240   0.001672  -0.042272   0.279075
     8  C    0.000000   0.000001   0.000193   0.000178   0.005081  -0.074646
     9  C   -0.000000   0.000012  -0.001082   0.000029  -0.000289  -0.006442
    10  C    0.000000   0.000000   0.000022   0.000019  -0.000030  -0.014428
    11  C   -0.000000  -0.000002  -0.000096   0.000042   0.004350  -0.065195
    12  C   -0.000000  -0.000028  -0.000887  -0.002272  -0.037808   0.259685
    13  C   -0.000000  -0.000017   0.000082  -0.005161  -0.004277  -0.077775
    14  C   -0.000000  -0.000000   0.000008  -0.000147   0.000128   0.005885
    15  C    0.000000   0.000000   0.000001   0.000005  -0.000009  -0.000021
    16  C   -0.000000   0.000000  -0.000003   0.000001  -0.000073   0.006037
    17  C   -0.000000   0.000000  -0.000000  -0.000003  -0.000092   0.006868
    18  C    0.000000  -0.000000   0.000000  -0.000001   0.000016  -0.000034
    19  C   -0.000000  -0.000000  -0.000004   0.000009  -0.000151   0.006225
    20  C    0.000000  -0.000000   0.000048   0.000488  -0.013783  -0.082343
    21  H    0.370268  -0.056568  -0.008254  -0.001685   0.000092   0.000000
    22  H    0.386294  -0.030516   0.005141   0.000187  -0.000001   0.000000
    23  H    0.393405  -0.042701  -0.002713   0.002674  -0.000306  -0.000000
    24  H   -0.039878   0.347031  -0.035192   0.005609  -0.000180   0.000007
    25  H   -0.008727  -0.056332   0.373734  -0.063254   0.002580  -0.000654
    26  H    0.005730  -0.031289   0.383091  -0.032118  -0.006008   0.005615
    27  H   -0.000225   0.005527  -0.032414   0.372402  -0.029363  -0.006939
    28  H    0.002356  -0.003627  -0.039519   0.369351  -0.029165   0.004462
    29  H   -0.000001  -0.000075   0.004753  -0.047176   0.374292  -0.042054
    30  H   -0.000014  -0.000007  -0.007207  -0.033453   0.385444  -0.037290
    31  H    0.000000  -0.000000   0.000022  -0.000001  -0.000000   0.000149
    32  H    0.000001  -0.000053  -0.000616  -0.000071   0.000007   0.003164
    33  H   -0.000000  -0.000000  -0.000002   0.000001   0.000000   0.000487
    34  H    0.000000   0.000000  -0.000000  -0.000001   0.000007   0.000042
    35  H   -0.000000  -0.000000   0.000044  -0.002469   0.005339  -0.012679
    36  H   -0.000000   0.000000   0.000000  -0.000007   0.000006  -0.000125
    37  H    0.000000   0.000000  -0.000000   0.000000  -0.000000   0.000006
    38  H   -0.000000   0.000000   0.000000  -0.000000   0.000002  -0.000080
    39  H    0.000000  -0.000000  -0.000000   0.000000   0.000003  -0.000112
    40  H   -0.000000   0.000000  -0.000000  -0.000000  -0.000000   0.000005
    41  H   -0.000000   0.000000   0.000000  -0.000000  -0.000004  -0.000136
    42  H    0.000000  -0.000000   0.000002   0.000077   0.003849  -0.009575
               7          8          9         10         11         12
     1  C    0.000000   0.000000  -0.000000   0.000000  -0.000000  -0.000000
     2  N    0.000003   0.000001   0.000012   0.000000  -0.000002  -0.000028
     3  C    0.001240   0.000193  -0.001082   0.000022  -0.000096  -0.000887
     4  C    0.001672   0.000178   0.000029   0.000019   0.000042  -0.002272
     5  C   -0.042272   0.005081  -0.000289  -0.000030   0.004350  -0.037808
     6  N    0.279075  -0.074646  -0.006442  -0.014428  -0.065195   0.259685
     7  C    4.701859   0.522092  -0.067756  -0.000440  -0.005080  -0.013744
     8  C    0.522092   4.804272   0.362936  -0.042917  -0.003321  -0.007431
     9  C   -0.067756   0.362936   5.057801   0.337651  -0.030781  -0.002287
    10  C   -0.000440  -0.042917   0.337651   5.051689   0.353168  -0.054215
    11  C   -0.005080  -0.003321  -0.030781   0.353168   4.818394   0.517755
    12  C   -0.013744  -0.007431  -0.002287  -0.054215   0.517755   4.672833
    13  C    0.003350  -0.000149  -0.000109   0.008379  -0.042011   0.486387
    14  C   -0.000078  -0.000002   0.000005  -0.000083  -0.037565  -0.018406
    15  C    0.000039  -0.000003  -0.000178   0.006886  -0.026459  -0.043002
    16  C   -0.000373   0.000178   0.003409  -0.063306   0.520232  -0.005171
    17  C   -0.008065   0.528424  -0.059511  -0.002238  -0.000060  -0.000005
    18  C   -0.044322  -0.028613   0.007578  -0.000139   0.000001   0.000022
    19  C   -0.018836  -0.036031  -0.000145   0.000043  -0.000008  -0.000110
    20  C    0.500467  -0.052649   0.009068   0.000004  -0.000165   0.004223
    21  H    0.000000  -0.000000   0.000000   0.000000  -0.000000  -0.000000
    22  H   -0.000000  -0.000000   0.000000  -0.000000  -0.000000   0.000000
    23  H   -0.000000  -0.000000   0.000000  -0.000000  -0.000000   0.000000
    24  H   -0.000000  -0.000001   0.000004  -0.000000  -0.000001   0.000001
    25  H    0.000239   0.000169   0.000004   0.000004   0.000005   0.000010
    26  H   -0.000450  -0.000377  -0.000860  -0.000096   0.000207   0.001454
    27  H   -0.000052   0.000030  -0.000008  -0.000000   0.000209   0.004986
    28  H   -0.000129  -0.000008  -0.000001  -0.000000  -0.000003   0.000061
    29  H   -0.000706  -0.000439   0.000025  -0.000011  -0.000331  -0.005463
    30  H   -0.000018   0.000878  -0.000023  -0.000005  -0.000068   0.003480
    31  H    0.005831  -0.031889   0.362060  -0.028053   0.003938   0.000164
    32  H   -0.008100  -0.027910   0.365865  -0.040228  -0.004477  -0.000340
    33  H   -0.000491  -0.003663  -0.041157   0.372650  -0.033955  -0.001661
    34  H    0.000254   0.005037  -0.033159   0.364544  -0.033690   0.003673
    35  H   -0.000018   0.000000   0.000004  -0.000152   0.004763  -0.039268
    36  H    0.000000   0.000000  -0.000000   0.000007   0.001035   0.003678
    37  H   -0.000000   0.000000   0.000002  -0.000179   0.003959   0.001124
    38  H   -0.000003  -0.000003   0.000230  -0.010351  -0.046660   0.004379
    39  H    0.004767  -0.037585  -0.011484   0.000360   0.000007  -0.000006
    40  H    0.001138   0.003846  -0.000183   0.000001   0.000000  -0.000000
    41  H    0.003535   0.001040   0.000009  -0.000000   0.000000   0.000000
    42  H   -0.038473   0.005178  -0.000183  -0.000001   0.000026   0.000041
              13         14         15         16         17         18
     1  C   -0.000000  -0.000000   0.000000  -0.000000  -0.000000   0.000000
     2  N   -0.000017  -0.000000   0.000000   0.000000   0.000000  -0.000000
     3  C    0.000082   0.000008   0.000001  -0.000003  -0.000000   0.000000
     4  C   -0.005161  -0.000147   0.000005   0.000001  -0.000003  -0.000001
     5  C   -0.004277   0.000128  -0.000009  -0.000073  -0.000092   0.000016
     6  N   -0.077775   0.005885  -0.000021   0.006037   0.006868  -0.000034
     7  C    0.003350  -0.000078   0.000039  -0.000373  -0.008065  -0.044322
     8  C   -0.000149  -0.000002  -0.000003   0.000178   0.528424  -0.028613
     9  C   -0.000109   0.000005  -0.000178   0.003409  -0.059511   0.007578
    10  C    0.008379  -0.000083   0.006886  -0.063306  -0.002238  -0.000139
    11  C   -0.042011  -0.037565  -0.026459   0.520232  -0.000060   0.000001
    12  C    0.486387  -0.018406  -0.043002  -0.005171  -0.000005   0.000022
    13  C    4.962419   0.532099  -0.032542  -0.056529   0.000004  -0.000000
    14  C    0.532099   4.813937   0.546001  -0.031498  -0.000000   0.000000
    15  C   -0.032542   0.546001   4.833511   0.516260  -0.000000   0.000000
    16  C   -0.056529  -0.031498   0.516260   4.921900   0.000001  -0.000000
    17  C    0.000004  -0.000000  -0.000000   0.000001   4.926874   0.511935
    18  C   -0.000000   0.000000   0.000000  -0.000000   0.511935   4.838666
    19  C   -0.000002   0.000000   0.000000  -0.000000  -0.031336   0.544280
    20  C    0.000144  -0.000003   0.000000  -0.000010  -0.055765  -0.031022
    21  H   -0.000000  -0.000000  -0.000000   0.000000  -0.000000   0.000000
    22  H   -0.000000   0.000000   0.000000   0.000000   0.000000   0.000000
    23  H   -0.000000  -0.000000   0.000000  -0.000000   0.000000   0.000000
    24  H   -0.000000   0.000000   0.000000   0.000000  -0.000000   0.000000
    25  H   -0.000016  -0.000000  -0.000000   0.000000   0.000006  -0.000001
    26  H    0.000035  -0.000007  -0.000001  -0.000004   0.000001   0.000001
    27  H    0.005885   0.000040  -0.000027  -0.000034  -0.000000  -0.000000
    28  H    0.000000   0.000000   0.000000  -0.000000   0.000000   0.000000
    29  H    0.001124   0.000029  -0.000005   0.000007   0.000007   0.000002
    30  H    0.000116  -0.000008   0.000000   0.000002  -0.000100  -0.000026
    31  H    0.000003   0.000000   0.000002  -0.000153  -0.007392   0.000236
    32  H   -0.000093  -0.000010  -0.000001   0.000334   0.002602  -0.000281
    33  H   -0.000269   0.000061  -0.000227  -0.003181   0.001855  -0.000077
    34  H   -0.000164   0.000012   0.000395  -0.007138  -0.000046   0.000004
    35  H    0.360701  -0.041577   0.005250   0.000874   0.000000  -0.000000
    36  H   -0.036695   0.364262  -0.041404   0.004697   0.000000  -0.000000
    37  H    0.004933  -0.042261   0.363683  -0.038132  -0.000000  -0.000000
    38  H    0.000522   0.005428  -0.043948   0.368801  -0.000000  -0.000000
    39  H   -0.000000   0.000000  -0.000000  -0.000000   0.363099  -0.045501
    40  H    0.000000  -0.000000  -0.000000   0.000000  -0.037276   0.364566
    41  H    0.000000   0.000000  -0.000000   0.000000   0.004525  -0.041375
    42  H    0.000005   0.000001  -0.000000   0.000000   0.000767   0.004960
              19         20         21         22         23         24
     1  C   -0.000000   0.000000   0.370268   0.386294   0.393405  -0.039878
     2  N   -0.000000  -0.000000  -0.056568  -0.030516  -0.042701   0.347031
     3  C   -0.000004   0.000048  -0.008254   0.005141  -0.002713  -0.035192
     4  C    0.000009   0.000488  -0.001685   0.000187   0.002674   0.005609
     5  C   -0.000151  -0.013783   0.000092  -0.000001  -0.000306  -0.000180
     6  N    0.006225  -0.082343   0.000000   0.000000  -0.000000   0.000007
     7  C   -0.018836   0.500467   0.000000  -0.000000  -0.000000  -0.000000
     8  C   -0.036031  -0.052649  -0.000000  -0.000000  -0.000000  -0.000001
     9  C   -0.000145   0.009068   0.000000   0.000000   0.000000   0.000004
    10  C    0.000043   0.000004   0.000000  -0.000000  -0.000000  -0.000000
    11  C   -0.000008  -0.000165  -0.000000  -0.000000  -0.000000  -0.000001
    12  C   -0.000110   0.004223  -0.000000   0.000000   0.000000   0.000001
    13  C   -0.000002   0.000144  -0.000000  -0.000000  -0.000000  -0.000000
    14  C    0.000000  -0.000003  -0.000000   0.000000  -0.000000   0.000000
    15  C    0.000000   0.000000  -0.000000   0.000000   0.000000   0.000000
    16  C   -0.000000  -0.000010   0.000000   0.000000  -0.000000   0.000000
    17  C   -0.031336  -0.055765  -0.000000   0.000000   0.000000  -0.000000
    18  C    0.544280  -0.031022   0.000000   0.000000   0.000000   0.000000
    19  C    4.829081   0.519554   0.000000  -0.000000  -0.000000  -0.000000
    20  C    0.519554   4.956753  -0.000000  -0.000000  -0.000000   0.000000
    21  H    0.000000  -0.000000   0.692489  -0.038992  -0.051957  -0.002910
    22  H   -0.000000  -0.000000  -0.038992   0.607895  -0.028007  -0.004734
    23  H   -0.000000  -0.000000  -0.051957  -0.028007   0.610328   0.005746
    24  H   -0.000000   0.000000  -0.002910  -0.004734   0.005746   0.494873
    25  H   -0.000001  -0.000038   0.016302  -0.000109  -0.001992  -0.001021
    26  H   -0.000000   0.000002  -0.000086  -0.000256   0.000001  -0.006369
    27  H    0.000000  -0.000025   0.000196  -0.000036  -0.000139  -0.000041
    28  H   -0.000000  -0.000011   0.000091  -0.000156   0.002222  -0.000008
    29  H   -0.000042   0.001933  -0.000000  -0.000000   0.000011   0.000003
    30  H    0.000029   0.002088   0.000023  -0.000000   0.000005  -0.000002
    31  H    0.000005  -0.000190  -0.000000  -0.000000   0.000000  -0.000000
    32  H    0.000034  -0.000143  -0.000000  -0.000000  -0.000000   0.000014
    33  H   -0.000009  -0.000218  -0.000000   0.000000  -0.000000   0.000000
    34  H   -0.000001   0.000009   0.000000   0.000000   0.000000   0.000000
    35  H   -0.000000   0.000016  -0.000000   0.000000   0.000000  -0.000000
    36  H    0.000000   0.000000   0.000000   0.000000   0.000000   0.000000
    37  H   -0.000000   0.000000   0.000000  -0.000000  -0.000000   0.000000
    38  H    0.000000  -0.000000   0.000000   0.000000  -0.000000  -0.000000
    39  H    0.005025   0.000509  -0.000000   0.000000   0.000000  -0.000000
    40  H   -0.041854   0.004614  -0.000000  -0.000000   0.000000   0.000000
    41  H    0.363911  -0.035113   0.000000   0.000000   0.000000   0.000000
    42  H   -0.042184   0.360369  -0.000000  -0.000000   0.000000   0.000000
              25         26         27         28         29         30
     1  C   -0.008727   0.005730  -0.000225   0.002356  -0.000001  -0.000014
     2  N   -0.056332  -0.031289   0.005527  -0.003627  -0.000075  -0.000007
     3  C    0.373734   0.383091  -0.032414  -0.039519   0.004753  -0.007207
     4  C   -0.063254  -0.032118   0.372402   0.369351  -0.047176  -0.033453
     5  C    0.002580  -0.006008  -0.029363  -0.029165   0.374292   0.385444
     6  N   -0.000654   0.005615  -0.006939   0.004462  -0.042054  -0.037290
     7  C    0.000239  -0.000450  -0.000052  -0.000129  -0.000706  -0.000018
     8  C    0.000169  -0.000377   0.000030  -0.000008  -0.000439   0.000878
     9  C    0.000004  -0.000860  -0.000008  -0.000001   0.000025  -0.000023
    10  C    0.000004  -0.000096  -0.000000  -0.000000  -0.000011  -0.000005
    11  C    0.000005   0.000207   0.000209  -0.000003  -0.000331  -0.000068
    12  C    0.000010   0.001454   0.004986   0.000061  -0.005463   0.003480
    13  C   -0.000016   0.000035   0.005885   0.000000   0.001124   0.000116
    14  C   -0.000000  -0.000007   0.000040   0.000000   0.000029  -0.000008
    15  C   -0.000000  -0.000001  -0.000027   0.000000  -0.000005   0.000000
    16  C    0.000000  -0.000004  -0.000034  -0.000000   0.000007   0.000002
    17  C    0.000006   0.000001  -0.000000   0.000000   0.000007  -0.000100
    18  C   -0.000001   0.000001  -0.000000   0.000000   0.000002  -0.000026
    19  C   -0.000001  -0.000000   0.000000  -0.000000  -0.000042   0.000029
    20  C   -0.000038   0.000002  -0.000025  -0.000011   0.001933   0.002088
    21  H    0.016302  -0.000086   0.000196   0.000091  -0.000000   0.000023
    22  H   -0.000109  -0.000256  -0.000036  -0.000156  -0.000000  -0.000000
    23  H   -0.001992   0.000001  -0.000139   0.002222   0.000011   0.000005
    24  H   -0.001021  -0.006369  -0.000041  -0.000008   0.000003  -0.000002
    25  H    0.711048  -0.048022   0.006486  -0.005952  -0.000096   0.005774
    26  H   -0.048022   0.617569  -0.006863   0.006062   0.000045  -0.000442
    27  H    0.006486  -0.006863   0.597701  -0.037647  -0.005829   0.005687
    28  H   -0.005952   0.006062  -0.037647   0.644437  -0.000003  -0.004278
    29  H   -0.000096   0.000045  -0.005829  -0.000003   0.662024  -0.043792
    30  H    0.005774  -0.000442   0.005687  -0.004278  -0.043792   0.605966
    31  H   -0.000003  -0.000025  -0.000000   0.000000   0.000000   0.000000
    32  H    0.000204   0.006391   0.000008   0.000004   0.000001   0.000024
    33  H    0.000000   0.000003  -0.000000  -0.000000  -0.000001   0.000000
    34  H   -0.000000   0.000007   0.000000   0.000000   0.000000  -0.000000
    35  H   -0.000001   0.000011   0.000299   0.000161   0.001910  -0.000037
    36  H    0.000000  -0.000000   0.000001   0.000000   0.000012  -0.000000
    37  H    0.000000   0.000000  -0.000000  -0.000000   0.000000  -0.000000
    38  H   -0.000000  -0.000000  -0.000000   0.000000  -0.000000  -0.000000
    39  H   -0.000000  -0.000001   0.000000   0.000000  -0.000000   0.000001
    40  H    0.000000   0.000000   0.000000  -0.000000   0.000000  -0.000000
    41  H    0.000000   0.000000  -0.000000   0.000000   0.000002   0.000001
    42  H   -0.000003  -0.000001  -0.000002   0.000004   0.000296   0.000228
              31         32         33         34         35         36
     1  C    0.000000   0.000001  -0.000000   0.000000  -0.000000  -0.000000
     2  N   -0.000000  -0.000053  -0.000000   0.000000  -0.000000   0.000000
     3  C    0.000022  -0.000616  -0.000002  -0.000000   0.000044   0.000000
     4  C   -0.000001  -0.000071   0.000001  -0.000001  -0.002469  -0.000007
     5  C   -0.000000   0.000007   0.000000   0.000007   0.005339   0.000006
     6  N    0.000149   0.003164   0.000487   0.000042  -0.012679  -0.000125
     7  C    0.005831  -0.008100  -0.000491   0.000254  -0.000018   0.000000
     8  C   -0.031889  -0.027910  -0.003663   0.005037   0.000000   0.000000
     9  C    0.362060   0.365865  -0.041157  -0.033159   0.000004  -0.000000
    10  C   -0.028053  -0.040228   0.372650   0.364544  -0.000152   0.000007
    11  C    0.003938  -0.004477  -0.033955  -0.033690   0.004763   0.001035
    12  C    0.000164  -0.000340  -0.001661   0.003673  -0.039268   0.003678
    13  C    0.000003  -0.000093  -0.000269  -0.000164   0.360701  -0.036695
    14  C    0.000000  -0.000010   0.000061   0.000012  -0.041577   0.364262
    15  C    0.000002  -0.000001  -0.000227   0.000395   0.005250  -0.041404
    16  C   -0.000153   0.000334  -0.003181  -0.007138   0.000874   0.004697
    17  C   -0.007392   0.002602   0.001855  -0.000046   0.000000   0.000000
    18  C    0.000236  -0.000281  -0.000077   0.000004  -0.000000  -0.000000
    19  C    0.000005   0.000034  -0.000009  -0.000001  -0.000000   0.000000
    20  C   -0.000190  -0.000143  -0.000218   0.000009   0.000016   0.000000
    21  H   -0.000000  -0.000000  -0.000000   0.000000  -0.000000   0.000000
    22  H   -0.000000  -0.000000   0.000000   0.000000   0.000000   0.000000
    23  H    0.000000  -0.000000  -0.000000   0.000000   0.000000   0.000000
    24  H   -0.000000   0.000014   0.000000   0.000000  -0.000000   0.000000
    25  H   -0.000003   0.000204   0.000000  -0.000000  -0.000001   0.000000
    26  H   -0.000025   0.006391   0.000003   0.000007   0.000011  -0.000000
    27  H   -0.000000   0.000008  -0.000000   0.000000   0.000299   0.000001
    28  H    0.000000   0.000004  -0.000000   0.000000   0.000161   0.000000
    29  H    0.000000   0.000001  -0.000001   0.000000   0.001910   0.000012
    30  H    0.000000   0.000024   0.000000  -0.000000  -0.000037  -0.000000
    31  H    0.639791  -0.036501  -0.002732  -0.005935  -0.000000   0.000000
    32  H   -0.036501   0.620950   0.006072  -0.002136   0.000004   0.000000
    33  H   -0.002732   0.006072   0.620779  -0.036825   0.000002  -0.000000
    34  H   -0.005935  -0.002136  -0.036825   0.638801   0.000003   0.000000
    35  H   -0.000000   0.000004   0.000002   0.000003   0.645521  -0.007127
    36  H    0.000000   0.000000  -0.000000   0.000000  -0.007127   0.638015
    37  H   -0.000000   0.000000   0.000002  -0.000013  -0.000241  -0.006026
    38  H   -0.000015   0.000014   0.001369   0.004973   0.000017  -0.000242
    39  H    0.006741   0.000209   0.000150  -0.000033  -0.000000  -0.000000
    40  H   -0.000012   0.000003   0.000002  -0.000000   0.000000   0.000000
    41  H   -0.000000  -0.000000  -0.000000   0.000000  -0.000000  -0.000000
    42  H    0.000003  -0.000001   0.000001  -0.000000  -0.000018  -0.000000
              37         38         39         40         41         42
     1  C    0.000000  -0.000000   0.000000  -0.000000  -0.000000   0.000000
     2  N    0.000000   0.000000  -0.000000   0.000000   0.000000  -0.000000
     3  C   -0.000000   0.000000  -0.000000  -0.000000   0.000000   0.000002
     4  C    0.000000  -0.000000   0.000000  -0.000000  -0.000000   0.000077
     5  C   -0.000000   0.000002   0.000003  -0.000000  -0.000004   0.003849
     6  N    0.000006  -0.000080  -0.000112   0.000005  -0.000136  -0.009575
     7  C   -0.000000  -0.000003   0.004767   0.001138   0.003535  -0.038473
     8  C    0.000000  -0.000003  -0.037585   0.003846   0.001040   0.005178
     9  C    0.000002   0.000230  -0.011484  -0.000183   0.000009  -0.000183
    10  C   -0.000179  -0.010351   0.000360   0.000001  -0.000000  -0.000001
    11  C    0.003959  -0.046660   0.000007   0.000000   0.000000   0.000026
    12  C    0.001124   0.004379  -0.000006  -0.000000   0.000000   0.000041
    13  C    0.004933   0.000522  -0.000000   0.000000   0.000000   0.000005
    14  C   -0.042261   0.005428   0.000000  -0.000000   0.000000   0.000001
    15  C    0.363683  -0.043948  -0.000000  -0.000000  -0.000000  -0.000000
    16  C   -0.038132   0.368801  -0.000000   0.000000   0.000000   0.000000
    17  C   -0.000000  -0.000000   0.363099  -0.037276   0.004525   0.000767
    18  C   -0.000000  -0.000000  -0.045501   0.364566  -0.041375   0.004960
    19  C   -0.000000   0.000000   0.005025  -0.041854   0.363911  -0.042184
    20  C    0.000000  -0.000000   0.000509   0.004614  -0.035113   0.360369
    21  H    0.000000   0.000000  -0.000000  -0.000000   0.000000  -0.000000
    22  H   -0.000000   0.000000   0.000000  -0.000000   0.000000  -0.000000
    23  H   -0.000000  -0.000000   0.000000   0.000000   0.000000   0.000000
    24  H    0.000000  -0.000000  -0.000000   0.000000   0.000000   0.000000
    25  H    0.000000  -0.000000  -0.000000   0.000000   0.000000  -0.000003
    26  H    0.000000  -0.000000  -0.000001   0.000000   0.000000  -0.000001
    27  H   -0.000000  -0.000000   0.000000   0.000000  -0.000000  -0.000002
    28  H   -0.000000   0.000000   0.000000  -0.000000   0.000000   0.000004
[...]
    31  H    0.000026   0.000005  -0.000027  -0.000229  -0.001186   0.000349
    32  H    0.000511   0.000014  -0.000067  -0.000296  -0.004759   0.000505
    33  H   -0.000468   0.000520  -0.000608  -0.013408  -0.000965  -0.000082
    34  H   -0.000249   0.000017   0.000870  -0.006157   0.000298   0.000023
    35  H    0.420687  -0.018853   0.002447   0.000789  -0.000026   0.000008
    36  H   -0.027267   0.398260  -0.032110   0.003664  -0.000000   0.000000
    37  H    0.006747  -0.037083   0.414915  -0.039529  -0.000000  -0.000000
    38  H   -0.000183   0.004881  -0.034378   0.402970   0.000006  -0.000000
    39  H   -0.000004   0.000001  -0.000001   0.000007   0.403313  -0.036083
    40  H    0.000001  -0.000000  -0.000000  -0.000000  -0.037414   0.411733
    41  H   -0.000001  -0.000001   0.000000  -0.000000   0.002770  -0.032289
    42  H    0.000894  -0.000104   0.000006  -0.000040  -0.000064   0.003212
              19         20         21         22         23         24
     1  C    0.000000  -0.000010   0.414811   0.407544   0.413904  -0.046565
     2  N   -0.000000  -0.000030  -0.065669  -0.031404  -0.038047   0.370034
     3  C   -0.000262   0.002518   0.013150   0.007909  -0.022369  -0.060482
     4  C    0.000517  -0.004753  -0.018643   0.001054   0.020442   0.017144
     5  C   -0.001182  -0.000893   0.003894  -0.000103  -0.004457  -0.002197
     6  N    0.013902  -0.067936  -0.000046   0.000004  -0.000001   0.000154
     7  C   -0.027877   0.424516  -0.000021   0.000001   0.000006  -0.000010
     8  C   -0.080444   0.012141   0.000013  -0.000000  -0.000002   0.000000
     9  C   -0.008554   0.023400  -0.000015   0.000001   0.000001   0.000026
    10  C    0.000978  -0.000164   0.000000  -0.000000   0.000000  -0.000005
    11  C   -0.000249   0.006489   0.000001   0.000000   0.000000   0.000012
    12  C    0.001212  -0.015884  -0.000002  -0.000003  -0.000020  -0.000082
    13  C   -0.001067   0.006600  -0.000013   0.000001   0.000026   0.000048
    14  C    0.000022  -0.000757  -0.000000   0.000000  -0.000001  -0.000011
    15  C    0.000016   0.000228   0.000000   0.000000  -0.000000   0.000005
    16  C    0.000023  -0.001394   0.000000  -0.000000   0.000000  -0.000008
    17  C    0.000770  -0.118704  -0.000000  -0.000000   0.000000   0.000000
    18  C    0.494252  -0.003170   0.000000   0.000000  -0.000000   0.000000
    19  C    4.992294   0.414184   0.000000  -0.000000  -0.000000  -0.000000
    20  C    0.414184   5.170848   0.000009  -0.000000  -0.000005  -0.000004
    21  H    0.000000   0.000009   0.613135  -0.033763  -0.059304  -0.008946
    22  H   -0.000000  -0.000000  -0.033763   0.533675  -0.017476  -0.007867
    23  H   -0.000000  -0.000005  -0.059304  -0.017476   0.572444   0.010278
    24  H   -0.000000  -0.000004  -0.008946  -0.007867   0.010278   0.536445
    25  H    0.000001   0.000984   0.014512  -0.000017  -0.003585  -0.002979
    26  H    0.000017  -0.000357   0.000770  -0.000262  -0.000543  -0.012711
    27  H    0.000008   0.000237   0.000839  -0.000106  -0.001758  -0.000592
    28  H   -0.000014  -0.000079   0.001985   0.000025  -0.006116  -0.000489
    29  H   -0.001893  -0.004261  -0.000013  -0.000000   0.000041   0.000042
    30  H    0.001281  -0.017231  -0.000155  -0.000002   0.000209   0.000007
    31  H    0.000061  -0.000475  -0.000000   0.000000  -0.000000   0.000000
    32  H   -0.000280   0.003088   0.000034  -0.000001  -0.000004   0.000014
    33  H    0.000044  -0.000410   0.000000  -0.000000  -0.000000  -0.000000
    34  H   -0.000022   0.000104  -0.000000   0.000000   0.000000   0.000002
    35  H   -0.000111   0.000306  -0.000001  -0.000000   0.000001   0.000006
    36  H   -0.000000  -0.000006  -0.000000  -0.000000  -0.000000  -0.000000
    37  H    0.000000   0.000001  -0.000000  -0.000000   0.000000   0.000000
    38  H    0.000000   0.000001  -0.000000  -0.000000   0.000000  -0.000000
    39  H    0.005392  -0.002128  -0.000000   0.000000   0.000000   0.000000
    40  H   -0.035179   0.005549  -0.000000   0.000000   0.000000   0.000000
    41  H    0.399228  -0.026069  -0.000000   0.000000   0.000000   0.000000
    42  H   -0.025534   0.406292   0.000001  -0.000000  -0.000001  -0.000000
              25         26         27         28         29         30
     1  C   -0.019669   0.010680  -0.000638  -0.000159  -0.000062   0.000326
     2  N   -0.059644  -0.014549   0.013872   0.000595  -0.000156   0.000199
     3  C    0.505340   0.382994  -0.041659  -0.033529   0.013666  -0.018843
     4  C   -0.169704  -0.004851   0.394888   0.415454  -0.080721   0.011185
     5  C    0.052595  -0.019542  -0.006442  -0.043253   0.458706   0.411322
     6  N   -0.003174  -0.005470  -0.002687   0.007192  -0.050022  -0.037805
     7  C   -0.001769   0.000462  -0.001063   0.000410   0.006543  -0.007597
     8  C    0.000937  -0.001102   0.000275  -0.000105  -0.001601   0.004493
     9  C   -0.000192   0.001824  -0.000061   0.000024   0.000534  -0.000609
    10  C   -0.000333  -0.000374  -0.000138  -0.000010  -0.000215   0.000042
    11  C    0.001036  -0.007461  -0.001207  -0.000180  -0.001098  -0.000694
    12  C   -0.002977   0.016484  -0.005617  -0.001114  -0.010071   0.006365
    13  C   -0.000499   0.002453  -0.005018   0.001458  -0.010227   0.002441
    14  C   -0.000012   0.000265   0.003264  -0.000203  -0.002307   0.000237
    15  C    0.000010  -0.000441  -0.000119   0.000027   0.000314  -0.000035
    16  C    0.000014   0.000245   0.000490  -0.000024  -0.000303   0.000094
    17  C   -0.000038  -0.000033   0.000002  -0.000009  -0.000182   0.000740
    18  C    0.000006  -0.000001   0.000000   0.000003   0.000167  -0.000548
    19  C    0.000001   0.000017   0.000008  -0.000014  -0.001893   0.001281
    20  C    0.000984  -0.000357   0.000237  -0.000079  -0.004261  -0.017231
    21  H    0.014512   0.000770   0.000839   0.001985  -0.000013  -0.000155
    22  H   -0.000017  -0.000262  -0.000106   0.000025  -0.000000  -0.000002
    23  H   -0.003585  -0.000543  -0.001758  -0.006116   0.000041   0.000209
    24  H   -0.002979  -0.012711  -0.000592  -0.000489   0.000042   0.000007
    25  H    0.560556  -0.029784   0.008865   0.001515  -0.000253  -0.001643
    26  H   -0.029784   0.549846  -0.002045   0.003952  -0.000965   0.002131
    27  H    0.008865  -0.002045   0.484106  -0.015812  -0.002810   0.002657
    28  H    0.001515   0.003952  -0.015812   0.528535  -0.001962  -0.003308
    29  H   -0.000253  -0.000965  -0.002810  -0.001962   0.534105  -0.026173
    30  H   -0.001643   0.002131   0.002657  -0.003308  -0.026173   0.478640
    31  H   -0.000001   0.000123  -0.000002   0.000001   0.000009  -0.000015
    32  H    0.000892  -0.001588   0.000014   0.000005  -0.000064   0.000060
    33  H    0.000004   0.000072  -0.000003  -0.000000  -0.000010   0.000004
    34  H   -0.000014  -0.000137   0.000008   0.000001   0.000005  -0.000003
    35  H   -0.000084   0.000050  -0.004491   0.000693   0.002984   0.000189
    36  H   -0.000000   0.000001   0.000053  -0.000003  -0.000006  -0.000001
    37  H    0.000000  -0.000002  -0.000001  -0.000000   0.000002  -0.000000
    38  H   -0.000001   0.000036  -0.000002   0.000000  -0.000002   0.000000
    39  H   -0.000001  -0.000001  -0.000000  -0.000000  -0.000003   0.000007
    40  H   -0.000000  -0.000000  -0.000000  -0.000000   0.000001  -0.000002
    41  H   -0.000000   0.000000  -0.000000   0.000000   0.000026   0.000015
    42  H    0.000069  -0.000008   0.000041   0.000055   0.000608  -0.004293
              31         32         33         34         35         36
     1  C    0.000001  -0.000027  -0.000000   0.000000  -0.000002   0.000000
     2  N    0.000001  -0.000232   0.000000   0.000002  -0.000075  -0.000000
     3  C    0.000144  -0.003171  -0.000101   0.000289   0.001784  -0.000006
     4  C   -0.000010  -0.000737   0.000058  -0.000142  -0.017126   0.000088
     5  C   -0.000122   0.001679  -0.000094   0.000149   0.018453   0.000057
     6  N    0.001878  -0.013193  -0.002551   0.001555  -0.008240  -0.000257
     7  C    0.010463  -0.006033   0.003658  -0.000610   0.000479   0.000057
     8  C   -0.055235  -0.079814  -0.014153   0.014309  -0.000247  -0.000001
     9  C    0.454968   0.484321  -0.025119  -0.051172   0.000107  -0.000006
    10  C   -0.069570  -0.056683   0.437652   0.436993  -0.000146   0.000068
    11  C    0.013994  -0.009344  -0.061233  -0.062319  -0.000830   0.001193
    12  C   -0.001654   0.005905   0.003477   0.005883  -0.053789   0.006373
    13  C    0.000026   0.000511  -0.000468  -0.000249   0.420687  -0.027267
    14  C    0.000005   0.000014   0.000520   0.000017  -0.018853   0.398260
    15  C   -0.000027  -0.000067  -0.000608   0.000870   0.002447  -0.032110
    16  C   -0.000229  -0.000296  -0.013408  -0.006157   0.000789   0.003664
    17  C   -0.001186  -0.004759  -0.000965   0.000298  -0.000026  -0.000000
    18  C    0.000349   0.000505  -0.000082   0.000023   0.000008   0.000000
    19  C    0.000061  -0.000280   0.000044  -0.000022  -0.000111  -0.000000
    20  C   -0.000475   0.003088  -0.000410   0.000104   0.000306  -0.000006
    21  H   -0.000000   0.000034   0.000000  -0.000000  -0.000001  -0.000000
    22  H    0.000000  -0.000001  -0.000000   0.000000  -0.000000  -0.000000
    23  H   -0.000000  -0.000004  -0.000000   0.000000   0.000001  -0.000000
    24  H    0.000000   0.000014  -0.000000   0.000002   0.000006  -0.000000
    25  H   -0.000001   0.000892   0.000004  -0.000014  -0.000084  -0.000000
    26  H    0.000123  -0.001588   0.000072  -0.000137   0.000050   0.000001
    27  H   -0.000002   0.000014  -0.000003   0.000008  -0.004491   0.000053
    28  H    0.000001   0.000005  -0.000000   0.000001   0.000693  -0.000003
    29  H    0.000009  -0.000064  -0.000010   0.000005   0.002984  -0.000006
    30  H   -0.000015   0.000060   0.000004  -0.000003   0.000189  -0.000001
    31  H    0.516209  -0.016735  -0.001507  -0.006106   0.000000   0.000000
    32  H   -0.016735   0.504439   0.006138  -0.000029   0.000022   0.000001
    33  H   -0.001507   0.006138   0.528233  -0.031179   0.000012   0.000001
    34  H   -0.006106  -0.000029  -0.031179   0.541398   0.000014  -0.000001
    35  H    0.000000   0.000022   0.000012   0.000014   0.494601  -0.003324
    36  H    0.000000   0.000001   0.000001  -0.000001  -0.003324   0.516999
    37  H   -0.000001  -0.000001  -0.000024  -0.000035  -0.000274  -0.003632
    38  H   -0.000026  -0.000000  -0.000081   0.000072   0.000061  -0.000356
    39  H    0.003124   0.000009   0.000433  -0.000076  -0.000000  -0.000000
    40  H   -0.000041   0.000014   0.000002  -0.000001   0.000000   0.000000
    41  H   -0.000000  -0.000006  -0.000003   0.000000   0.000001  -0.000000
    42  H    0.000015   0.000022  -0.000005  -0.000000   0.000120  -0.000000
              37         38         39         40         41         42
     1  C   -0.000000   0.000000  -0.000000  -0.000000   0.000000  -0.000000
     2  N   -0.000000  -0.000000  -0.000000   0.000000   0.000000  -0.000001
     3  C   -0.000000  -0.000003  -0.000008   0.000000   0.000000   0.000177
     4  C    0.000002   0.000006   0.000007  -0.000000  -0.000001  -0.000771
     5  C   -0.000008   0.000030   0.000040  -0.000006   0.000041   0.004714
     6  N    0.000032  -0.000410  -0.000339   0.000024  -0.000304  -0.005538
     7  C   -0.000005  -0.000012   0.017319   0.000049   0.004577  -0.036457
     8  C   -0.000007  -0.000036  -0.040982   0.006445   0.001842   0.005627
     9  C    0.000028   0.000848  -0.007070  -0.000180   0.000108   0.000035
    10  C   -0.000230  -0.001391  -0.000888   0.000027  -0.000011  -0.000022
    11  C    0.007213  -0.048130   0.000156   0.000006   0.000006   0.000088
    12  C   -0.000722   0.015271   0.000015  -0.000009   0.000020  -0.001841
    13  C    0.006747  -0.000183  -0.000004   0.000001  -0.000001   0.000894
    14  C   -0.037083   0.004881   0.000001  -0.000000  -0.000001  -0.000104
    15  C    0.414915  -0.034378  -0.000001  -0.000000   0.000000   0.000006
    16  C   -0.039529   0.402970   0.000007  -0.000000  -0.000000  -0.000040
    17  C   -0.000000   0.000006   0.403313  -0.037414   0.002770  -0.000064
    18  C   -0.000000  -0.000000  -0.036083   0.411733  -0.032289   0.003212
    19  C    0.000000   0.000000   0.005392  -0.035179   0.399228  -0.025534
    20  C    0.000001   0.000001  -0.002128   0.005549  -0.026069   0.406292
    21  H   -0.000000  -0.000000  -0.000000  -0.000000  -0.000000   0.000001
    22  H   -0.000000  -0.000000   0.000000   0.000000   0.000000  -0.000000
    23  H    0.000000   0.000000   0.000000   0.000000   0.000000  -0.000001
    24  H    0.000000  -0.000000   0.000000   0.000000   0.000000  -0.000000
    25  H    0.000000  -0.000001  -0.000001  -0.000000  -0.000000   0.000069
    26  H   -0.000002   0.000036  -0.000001  -0.000000   0.000000  -0.000008
    27  H   -0.000001  -0.000002  -0.000000  -0.000000  -0.000000   0.000041
    28  H   -0.000000   0.000000  -0.000000  -0.000000   0.000000   0.000055
    29  H    0.000002  -0.000002  -0.000003   0.000001   0.000026   0.000608
    30  H   -0.000000   0.000000   0.000007  -0.000002   0.000015  -0.004293
    31  H   -0.000001  -0.000026   0.003124  -0.000041  -0.000000   0.000015
    32  H   -0.000001  -0.000000   0.000009   0.000014  -0.000006   0.000022
    33  H   -0.000024  -0.000081   0.000433   0.000002  -0.000003  -0.000005
    34  H   -0.000035   0.000072  -0.000076  -0.000001   0.000000  -0.000000
    35  H   -0.000274   0.000061  -0.000000   0.000000   0.000001   0.000120
    36  H   -0.003632  -0.000356  -0.000000   0.000000  -0.000000  -0.000000
    37  H    0.518183  -0.004327  -0.000000  -0.000000   0.000000   0.000000
    38  H   -0.004327   0.525813  -0.000000  -0.000000  -0.000000  -0.000000
    39  H   -0.000000  -0.000000   0.526568  -0.003782  -0.000352   0.000046
    40  H   -0.000000  -0.000000  -0.003782   0.516348  -0.003736  -0.000257
    41  H    0.000000  -0.000000  -0.000352  -0.003736   0.515918  -0.003139
    42  H    0.000000  -0.000000   0.000046  -0.000257  -0.003139   0.496560
 Mulliken charges:
               1
     1  C   -0.322283
     2  N   -0.364638
     3  C   -0.210079
     4  C   -0.249903
     5  C   -0.404082
     6  N   -0.130072
     7  C    0.111819
     8  C    0.092170
     9  C   -0.438907
    10  C   -0.324833
    11  C    0.056799
    12  C    0.135196
    13  C   -0.230017
    14  C   -0.147063
    15  C   -0.167107
    16  C   -0.168310
    17  C   -0.140091
    18  C   -0.156998
    19  C   -0.141533
    20  C   -0.212772
    21  H    0.123435
    22  H    0.140792
    23  H    0.136335
    24  H    0.208731
    25  H    0.149038
    26  H    0.129821
    27  H    0.182653
    28  H    0.144439
    29  H    0.177627
    30  H    0.196313
    31  H    0.151570
    32  H    0.185379
    33  H    0.171699
    34  H    0.156258
    35  H    0.163806
    36  H    0.140163
    37  H    0.138759
    38  H    0.139344
    39  H    0.135281
    40  H    0.140408
    41  H    0.141362
    42  H    0.159491
 Sum of Mulliken charges =   0.00000
 Mulliken charges with hydrogens summed into heavy atoms:
               1
     1  C    0.078279
     2  N   -0.155907
     3  C    0.068780
     4  C    0.077189
     5  C   -0.030142
     6  N   -0.130072
     7  C    0.111819
     8  C    0.092170
     9  C   -0.101957
    10  C    0.003123
    11  C    0.056799
    12  C    0.135196
    13  C   -0.066210
    14  C   -0.006900
    15  C   -0.028347
    16  C   -0.028966
    17  C   -0.004810
    18  C   -0.016590
    19  C   -0.000172
    20  C   -0.053282
 Electronic spatial extent (au):  <R**2>=           5776.7391
 Charge=             -0.0000 electrons
 Dipole moment (field-independent basis, Debye):
    X=             -0.0889    Y=             -1.1118    Z=              0.5830  Tot=              1.2585
 Quadrupole moment (field-independent basis, Debye-Ang):
   XX=           -122.0853   YY=           -119.0433   ZZ=           -110.8013
   XY=             -0.9046   XZ=             -2.0162   YZ=              2.1461
 Traceless Quadrupole moment (field-independent basis, Debye-Ang):
   XX=             -4.7753   YY=             -1.7333   ZZ=              6.5087
   XY=             -0.9046   XZ=             -2.0162   YZ=              2.1461
 Octapole moment (field-independent basis, Debye-Ang**2):
  XXX=            -18.5333  YYY=             20.9585  ZZZ=              5.5295  XYY=             21.0015
  XXY=            -37.3265  XXZ=             11.8302  XZZ=              8.2836  YZZ=             -5.9545
  YYZ=              2.1496  XYZ=            -16.1708
 Hexadecapole moment (field-independent basis, Debye-Ang**3):
 XXXX=          -4005.5582 YYYY=          -2747.1052 ZZZZ=          -1116.2283 XXXY=             -8.7143
 XXXZ=             35.6632 YYYX=             -4.7181 YYYZ=             16.1270 ZZZX=             15.8377
 ZZZY=              5.8823 XXYY=          -1107.7747 XXZZ=           -794.0039 YYZZ=           -644.6134
 XXYZ=            -15.3640 YYXZ=            -12.0707 ZZXY=              6.7734
 N-N= 1.544431593651D+03 E-N=-4.964597998669D+03  KE= 8.041020601686D+02
 Unable to Open any file for archive entry.
 1\1\GINC-NOTCH362\SP\RM062X\def2TZVP\C18H22N2\U6032257\23-Sep-2022\0\\
 # M062X/def2tzvp int=(grid=ultrafine) nmr=giao guess=read geom=check\\
 SecN5.xyz\\0,1\C,0,-0.6708292201,-3.9439088604,4.0330625085\N,0,-1.062
 0564972,-3.7513745741,2.6423830616\C,0,-0.1146407185,-2.9570327158,1.8
 6357191\C,0,-0.2666793116,-1.4599677598,2.1419386353\C,0,0.8007210847,
 -0.6139936852,1.4416764711\N,0,0.8982650964,-0.8851487124,0.0048412171
 \C,0,2.1942762594,-0.7638383442,-0.5742435332\C,0,2.624944165,-1.75039
 17651,-1.4759578714\C,0,1.6828085426,-2.8704019633,-1.810857764\C,0,0.
 4988994375,-2.3855867668,-2.6561808624\C,0,-0.442137357,-1.3631160145,
 -2.0369066434\C,0,-0.2434396581,-0.6734291309,-0.8177426005\C,0,-1.223
 3140205,0.2444113244,-0.395603652\C,0,-2.3783700342,0.4780647415,-1.13
 20435078\C,0,-2.5780647897,-0.1951700385,-2.3346866089\C,0,-1.60869754
 05,-1.0938623712,-2.7653966908\C,0,3.900214869,-1.6475584963,-2.034697
 3735\C,0,4.7563565108,-0.6018504963,-1.6884145684\C,0,4.3310705763,0.3
 619462453,-0.7750885942\C,0,3.0522264276,0.2849070401,-0.2247981146\H,
 0,0.3552418972,-4.3361018554,4.1632185717\H,0,-1.3663744898,-4.6366062
 305,4.5156468359\H,0,-0.7293356091,-2.9957545556,4.5770962642\H,0,-1.1
 670337814,-4.6604770672,2.2027079506\H,0,0.9381636368,-3.255042165,2.0
 421843083\H,0,-0.3168897354,-3.1330009209,0.8034998527\H,0,-1.27460947
 89,-1.1555076103,1.8486275202\H,0,-0.1797916603,-1.2623769143,3.216812
 0897\H,0,0.637720903,0.4521310823,1.6681387373\H,0,1.7791928538,-0.868
 549708,1.8579214517\H,0,2.2132397493,-3.6501475581,-2.3668475117\H,0,1
 .3120804783,-3.3214796092,-0.8838049516\H,0,0.901274579,-1.9649352658,
 -3.5875313656\H,0,-0.1020661898,-3.2532002306,-2.9558021731\H,0,-1.069
 8533598,0.7952839585,0.5237394293\H,0,-3.1108335664,1.1922822218,-0.76
 82615171\H,0,-3.4727783528,-0.0277578675,-2.925571354\H,0,-1.757436671
 4,-1.6280091637,-3.7010228039\H,0,4.2311604662,-2.4106670382,-2.734367
 8256\H,0,5.7491109335,-0.544269792,-2.1236729536\H,0,4.9874385819,1.18
 14770229,-0.498448547\H,0,2.7124249942,1.0459116102,0.469882573\\Versi
 on=ES64L-G16RevC.01\State=1-A\HF=-808.5946298\RMSD=1.836e-09\Dipole=0.
 3332047,-0.326283,0.1663362\Quadrupole=-3.1090636,2.0413525,1.0677111,
 -0.4545047,1.010946,3.9205909\PG=C01 [X(C18H22N2)]\\@
 The archive entry for this job was punched.


 Everywhere is walking distance if you have the time.
                                    -- Steven Wright
 Job cpu time:       0 days  2 hours 42 minutes  6.7 seconds.
 Elapsed time:       0 days  0 hours  3 minutes 32.2 seconds.
 File lengths (MBytes):  RWF=    318 Int=      0 D2E=      0 Chk=     53 Scr=      1
 Normal termination of Gaussian 16 at Fri Sep 23 16:31:53 2022.
