 Entering Gaussian System, Link 0=/uufs/chpc.utah.edu/sys/installdir/gaussian16/C01/AVX2/g16/g16
 Input=SecN5_clust-7.com
 Output=SecN5_clust-7.log
 Initial command:
 /uufs/chpc.utah.edu/sys/installdir/gaussian16/C01/AVX2/g16/l1.exe "/scratch/local/u6032257/5771831/notchpeak.peaks/Gau-1365237.inp" -scrdir="/scratch/local/u6032257/5771831/notchpeak.peaks/"
 Entering Link 1 = /uufs/chpc.utah.edu/sys/installdir/gaussian16/C01/AVX2/g16/l1.exe PID=   1365239.
  
 Copyright (c) 1988-2019, Gaussian, Inc.  All Rights Reserved.
  
 This is part of the Gaussian(R) 16 program.  It is based on
 the Gaussian(R) 09 system (copyright 2009, Gaussian, Inc.),
 the Gaussian(R) 03 system (copyright 2003, Gaussian, Inc.),
 the Gaussian(R) 98 system (copyright 1998, Gaussian, Inc.),
 the Gaussian(R) 94 system (copyright 1995, Gaussian, Inc.),
 the Gaussian 92(TM) system (copyright 1992, Gaussian, Inc.),
 the Gaussian 90(TM) system (copyright 1990, Gaussian, Inc.),
 the Gaussian 88(TM) system (copyright 1988, Gaussian, Inc.),
 the Gaussian 86(TM) system (copyright 1986, Carnegie Mellon
 University), and the Gaussian 82(TM) system (copyright 1983,
 Carnegie Mellon University). Gaussian is a federally registered
 trademark of Gaussian, Inc.
  
 This software contains proprietary and confidential information,
 including trade secrets, belonging to Gaussian, Inc.
  
 This software is provided under written license and may be
 used, copied, transmitted, or stored only in accord with that
 written license.
  
 The following legend is applicable only to US Government
 contracts under FAR:
  
                    RESTRICTED RIGHTS LEGEND
  
 Use, reproduction and disclosure by the US Government is
 subject to restrictions as set forth in subparagraphs (a)
 and (c) of the Commercial Computer Software - Restricted
 Rights clause in FAR 52.227-19.
  
 Gaussian, Inc.
 340 Quinnipiac St., Bldg. 40, Wallingford CT 06492
  
  
 ---------------------------------------------------------------
 Warning -- This program may not be used in any manner that
 competes with the business of Gaussian, Inc. or will provide
 assistance to any competitor of Gaussian, Inc.  The licensee
 of this program is prohibited from giving any competitor of
 Gaussian, Inc. access to this program.  By using this program,
 the user acknowledges that Gaussian, Inc. is engaged in the
 business of creating and licensing software in the field of
 computational chemistry and represents and warrants to the
 licensee that it is not a competitor of Gaussian, Inc. and that
 it will not use this program in any manner prohibited above.
 ---------------------------------------------------------------
  

 Cite this work as:
 Gaussian 16, Revision C.01,
 M. J. Frisch, G. W. Trucks, H. B. Schlegel, G. E. Scuseria, 
 M. A. Robb, J. R. Cheeseman, G. Scalmani, V. Barone, 
 G. A. Petersson, H. Nakatsuji, X. Li, M. Caricato, A. V. Marenich, 
 J. Bloino, B. G. Janesko, R. Gomperts, B. Mennucci, H. P. Hratchian, 
 J. V. Ortiz, A. F. Izmaylov, J. L. Sonnenberg, D. Williams-Young, 
 F. Ding, F. Lipparini, F. Egidi, J. Goings, B. Peng, A. Petrone, 
 T. Henderson, D. Ranasinghe, V. G. Zakrzewski, J. Gao, N. Rega, 
 G. Zheng, W. Liang, M. Hada, M. Ehara, K. Toyota, R. Fukuda, 
 J. Hasegawa, M. Ishida, T. Nakajima, Y. Honda, O. Kitao, H. Nakai, 
 T. Vreven, K. Throssell, J. A. Montgomery, Jr., J. E. Peralta, 
 F. Ogliaro, M. J. Bearpark, J. J. Heyd, E. N. Brothers, K. N. Kudin, 
 V. N. Staroverov, T. A. Keith, R. Kobayashi, J. Normand, 
 K. Raghavachari, A. P. Rendell, J. C. Burant, S. S. Iyengar, 
 J. Tomasi, M. Cossi, J. M. Millam, M. Klene, C. Adamo, R. Cammi, 
 J. W. Ochterski, R. L. Martin, K. Morokuma, O. Farkas, 
 J. B. Foresman, and D. J. Fox, Gaussian, Inc., Wallingford CT, 2019.
 
 ******************************************
 Gaussian 16:  ES64L-G16RevC.01  3-Jul-2019
                23-Sep-2022 
 ******************************************
 %NProcShared=64
 Will use up to   64 processors via shared memory.
 %mem=16GB
 %chk=SecN5_clust-7.chk
 ----------------------------------------------------------------------
 # B3LYP/6-31G(d,p) empiricaldispersion=GD3BJ int=(grid=ultrafine) opt 
 freq=noraman
 ----------------------------------------------------------------------
 1/18=20,19=15,26=4,38=1/1,3;
 2/9=110,12=2,17=6,18=5,40=1/2;
 3/5=1,6=6,7=101,11=2,25=1,30=1,71=1,74=-5,75=-5,124=41/1,2,3;
 4//1;
 5/5=2,38=5/2;
 6/7=2,8=2,9=2,10=2,28=1/1;
 7//1,2,3,16;
 1/18=20,19=15,26=4/3(2);
 2/9=110/2;
 99//99;
 2/9=110/2;
 3/5=1,6=6,7=101,11=2,25=1,30=1,71=1,74=-5,75=-5,124=41/1,2,3;
 4/5=5,16=3,69=1/1;
 5/5=2,38=5/2;
 7//1,2,3,16;
 1/18=20,19=15,26=4/3(-5);
 2/9=110/2;
 6/7=2,8=2,9=2,10=2,19=2,28=1/1;
 99/9=1/99;
 ---------
 SecN5.xyz
 ---------
 Symbolic Z-matrix:
 Charge =  0 Multiplicity = 1
 C                    -0.4156   -1.6575    4.3162 
 N                    -0.8353   -2.904     3.6833 
 C                     0.0549   -3.3438    2.6132 
 C                    -0.013    -2.4191    1.3861 
 C                     0.7472   -2.9954    0.173 
 N                     0.8642   -2.0109   -0.9289 
 C                     2.1795   -1.5231   -1.0633 
 C                     2.5303   -0.1738   -0.8576 
 C                     1.4479    0.8566   -0.6212 
 C                     0.4775    0.9399   -1.7982 
 C                    -0.5532   -0.1767   -1.9352 
 C                    -0.3402   -1.5153   -1.4978 
 C                    -1.3938   -2.4277   -1.7062 
 C                    -2.5998   -2.0639   -2.2962 
 C                    -2.7884   -0.7579   -2.7182 
 C                    -1.7698    0.1695   -2.543 
 C                     3.874     0.2168   -0.9388 
 C                     4.874    -0.7091   -1.2222 
 C                     4.5388   -2.0409   -1.4355 
 C                     3.2056   -2.4359   -1.3537 
 H                     0.6094   -1.717     4.6871 
 H                    -0.4911   -0.8135    3.6288 
 H                    -1.0633   -1.4337    5.1651 
 H                    -0.9994   -3.6389    4.3608 
 H                     1.0815   -3.4475    2.9715 
 H                    -0.2542   -4.3464    2.3108 
 H                     0.3584   -1.4216    1.619 
 H                    -1.0659   -2.3092    1.1236 
 H                     1.7182   -3.3475    0.5282 
 H                     0.2736   -3.915    -0.1692 
 H                     0.9277    0.6424    0.3138 
 H                     1.9077    1.8346   -0.4727 
 H                    -0.0525    1.8908   -1.7221 
 H                     1.0365    1.0019   -2.7335 
 H                    -1.2827   -3.4611   -1.4264 
 H                    -3.3787   -2.7994   -2.4341 
 H                    -3.7182   -0.4647   -3.1844 
 H                    -1.9345    1.1815   -2.8843 
 H                     4.147     1.2519   -0.7921 
 H                     5.9053   -0.3919   -1.2842 
 H                     5.3058   -2.767    -1.6613 
 H                     2.9533   -3.4724   -1.518 
 

 GradGradGradGradGradGradGradGradGradGradGradGradGradGradGradGradGradGrad
 Berny optimization.
 Initialization pass.
                           ----------------------------
                           !    Initial Parameters    !
                           ! (Angstroms and Degrees)  !
 --------------------------                            --------------------------
 ! Name  Definition              Value          Derivative Info.                !
 --------------------------------------------------------------------------------
 ! R1    R(1,2)                  1.4596         estimate D2E/DX2                !
 ! R2    R(1,21)                 1.0917         estimate D2E/DX2                !
 ! R3    R(1,22)                 1.0911         estimate D2E/DX2                !
 ! R4    R(1,23)                 1.091          estimate D2E/DX2                !
 ! R5    R(2,3)                  1.4598         estimate D2E/DX2                !
 ! R6    R(2,24)                 1.0129         estimate D2E/DX2                !
 ! R7    R(3,4)                  1.538          estimate D2E/DX2                !
 ! R8    R(3,25)                 1.0923         estimate D2E/DX2                !
 ! R9    R(3,26)                 1.0919         estimate D2E/DX2                !
 ! R10   R(4,5)                  1.5433         estimate D2E/DX2                !
 ! R11   R(4,27)                 1.0896         estimate D2E/DX2                !
 ! R12   R(4,28)                 1.0907         estimate D2E/DX2                !
 ! R13   R(5,6)                  1.4823         estimate D2E/DX2                !
 ! R14   R(5,29)                 1.0922         estimate D2E/DX2                !
 ! R15   R(5,30)                 1.0895         estimate D2E/DX2                !
 ! R16   R(6,7)                  1.4093         estimate D2E/DX2                !
 ! R17   R(6,12)                 1.4212         estimate D2E/DX2                !
 ! R18   R(7,8)                  1.4092         estimate D2E/DX2                !
 ! R19   R(7,20)                 1.4037         estimate D2E/DX2                !
 ! R20   R(8,9)                  1.513          estimate D2E/DX2                !
 ! R21   R(8,17)                 1.4017         estimate D2E/DX2                !
 ! R22   R(9,10)                 1.5277         estimate D2E/DX2                !
 ! R23   R(9,31)                 1.0912         estimate D2E/DX2                !
 ! R24   R(9,32)                 1.0908         estimate D2E/DX2                !
 ! R25   R(10,11)                1.5257         estimate D2E/DX2                !
 ! R26   R(10,33)                1.0913         estimate D2E/DX2                !
 ! R27   R(10,34)                1.0914         estimate D2E/DX2                !
 ! R28   R(11,12)                1.4243         estimate D2E/DX2                !
 ! R29   R(11,16)                1.4033         estimate D2E/DX2                !
 ! R30   R(12,13)                1.4092         estimate D2E/DX2                !
 ! R31   R(13,14)                1.391          estimate D2E/DX2                !
 ! R32   R(13,35)                1.0764         estimate D2E/DX2                !
 ! R33   R(14,15)                1.3854         estimate D2E/DX2                !
 ! R34   R(14,36)                1.0801         estimate D2E/DX2                !
 ! R35   R(15,16)                1.3886         estimate D2E/DX2                !
 ! R36   R(15,37)                1.0807         estimate D2E/DX2                !
 ! R37   R(16,38)                1.0806         estimate D2E/DX2                !
 ! R38   R(17,18)                1.392          estimate D2E/DX2                !
 ! R39   R(17,39)                1.0805         estimate D2E/DX2                !
 ! R40   R(18,19)                1.3898         estimate D2E/DX2                !
 ! R41   R(18,40)                1.0808         estimate D2E/DX2                !
 ! R42   R(19,20)                1.3929         estimate D2E/DX2                !
 ! R43   R(19,41)                1.08           estimate D2E/DX2                !
 ! R44   R(20,42)                1.0793         estimate D2E/DX2                !
 ! A1    A(2,1,21)             111.7623         estimate D2E/DX2                !
 ! A2    A(2,1,22)             111.5621         estimate D2E/DX2                !
 ! A3    A(2,1,23)             109.9908         estimate D2E/DX2                !
 ! A4    A(21,1,22)            108.7338         estimate D2E/DX2                !
 ! A5    A(21,1,23)            107.7128         estimate D2E/DX2                !
 ! A6    A(22,1,23)            106.8847         estimate D2E/DX2                !
 ! A7    A(1,2,3)              113.5655         estimate D2E/DX2                !
 ! A8    A(1,2,24)             112.0957         estimate D2E/DX2                !
 ! A9    A(3,2,24)             111.7474         estimate D2E/DX2                !
 ! A10   A(2,3,4)              112.136          estimate D2E/DX2                !
 ! A11   A(2,3,25)             111.1795         estimate D2E/DX2                !
 ! A12   A(2,3,26)             107.8804         estimate D2E/DX2                !
 ! A13   A(4,3,25)             111.1185         estimate D2E/DX2                !
 ! A14   A(4,3,26)             108.5787         estimate D2E/DX2                !
 ! A15   A(25,3,26)            105.6491         estimate D2E/DX2                !
 ! A16   A(3,4,5)              112.3893         estimate D2E/DX2                !
 ! A17   A(3,4,27)             111.3973         estimate D2E/DX2                !
 ! A18   A(3,4,28)             107.171          estimate D2E/DX2                !
 ! A19   A(5,4,27)             109.998          estimate D2E/DX2                !
 ! A20   A(5,4,28)             108.9034         estimate D2E/DX2                !
 ! A21   A(27,4,28)            106.7535         estimate D2E/DX2                !
 ! A22   A(4,5,6)              112.0371         estimate D2E/DX2                !
 ! A23   A(4,5,29)             107.6179         estimate D2E/DX2                !
 ! A24   A(4,5,30)             110.3623         estimate D2E/DX2                !
 ! A25   A(6,5,29)             112.6867         estimate D2E/DX2                !
 ! A26   A(6,5,30)             111.1877         estimate D2E/DX2                !
 ! A27   A(29,5,30)            102.5028         estimate D2E/DX2                !
 ! A28   A(5,6,7)              111.9913         estimate D2E/DX2                !
 ! A29   A(5,6,12)             117.5352         estimate D2E/DX2                !
 ! A30   A(7,6,12)             129.2024         estimate D2E/DX2                !
 ! A31   A(6,7,8)              123.3548         estimate D2E/DX2                !
 ! A32   A(6,7,20)             118.4828         estimate D2E/DX2                !
 ! A33   A(8,7,20)             118.0892         estimate D2E/DX2                !
 ! A34   A(7,8,9)              119.7873         estimate D2E/DX2                !
 ! A35   A(7,8,17)             119.8009         estimate D2E/DX2                !
 ! A36   A(9,8,17)             120.3365         estimate D2E/DX2                !
 ! A37   A(8,9,10)             111.7879         estimate D2E/DX2                !
 ! A38   A(8,9,31)             109.9525         estimate D2E/DX2                !
 ! A39   A(8,9,32)             109.287          estimate D2E/DX2                !
 ! A40   A(10,9,31)            111.5946         estimate D2E/DX2                !
 ! A41   A(10,9,32)            108.8888         estimate D2E/DX2                !
 ! A42   A(31,9,32)            105.0871         estimate D2E/DX2                !
 ! A43   A(9,10,11)            117.282          estimate D2E/DX2                !
 ! A44   A(9,10,33)            107.5945         estimate D2E/DX2                !
 ! A45   A(9,10,34)            109.7551         estimate D2E/DX2                !
 ! A46   A(11,10,33)           108.4133         estimate D2E/DX2                !
 ! A47   A(11,10,34)           108.0973         estimate D2E/DX2                !
 ! A48   A(33,10,34)           105.0117         estimate D2E/DX2                !
 ! A49   A(10,11,12)           124.0016         estimate D2E/DX2                !
 ! A50   A(10,11,16)           116.3587         estimate D2E/DX2                !
 ! A51   A(12,11,16)           119.6378         estimate D2E/DX2                !
 ! A52   A(6,12,11)            125.2685         estimate D2E/DX2                !
 ! A53   A(6,12,13)            117.8398         estimate D2E/DX2                !
 ! A54   A(11,12,13)           116.8253         estimate D2E/DX2                !
 ! A55   A(12,13,14)           122.7922         estimate D2E/DX2                !
 ! A56   A(12,13,35)           120.3969         estimate D2E/DX2                !
 ! A57   A(14,13,35)           116.7982         estimate D2E/DX2                !
 ! A58   A(13,14,15)           119.5895         estimate D2E/DX2                !
 ! A59   A(13,14,36)           120.0843         estimate D2E/DX2                !
 ! A60   A(15,14,36)           120.3223         estimate D2E/DX2                !
 ! A61   A(14,15,16)           119.4254         estimate D2E/DX2                !
 ! A62   A(14,15,37)           120.2853         estimate D2E/DX2                !
 ! A63   A(16,15,37)           120.2885         estimate D2E/DX2                !
 ! A64   A(11,16,15)           121.7221         estimate D2E/DX2                !
 ! A65   A(11,16,38)           119.9966         estimate D2E/DX2                !
 ! A66   A(15,16,38)           118.2806         estimate D2E/DX2                !
 ! A67   A(8,17,18)            121.0056         estimate D2E/DX2                !
 ! A68   A(8,17,39)            120.0862         estimate D2E/DX2                !
 ! A69   A(18,17,39)           118.9044         estimate D2E/DX2                !
 ! A70   A(17,18,19)           119.6953         estimate D2E/DX2                !
 ! A71   A(17,18,40)           120.1311         estimate D2E/DX2                !
 ! A72   A(19,18,40)           120.1717         estimate D2E/DX2                !
 ! A73   A(18,19,20)           119.5765         estimate D2E/DX2                !
 ! A74   A(18,19,41)           120.3338         estimate D2E/DX2                !
 ! A75   A(20,19,41)           120.0895         estimate D2E/DX2                !
 ! A76   A(7,20,19)            121.8304         estimate D2E/DX2                !
 ! A77   A(7,20,42)            119.0179         estimate D2E/DX2                !
 ! A78   A(19,20,42)           119.1517         estimate D2E/DX2                !
 ! D1    D(21,1,2,3)           -55.009          estimate D2E/DX2                !
 ! D2    D(21,1,2,24)           72.8224         estimate D2E/DX2                !
 ! D3    D(22,1,2,3)            66.969          estimate D2E/DX2                !
 ! D4    D(22,1,2,24)         -165.1996         estimate D2E/DX2                !
 ! D5    D(23,1,2,3)          -174.6013         estimate D2E/DX2                !
 ! D6    D(23,1,2,24)          -46.7699         estimate D2E/DX2                !
 ! D7    D(1,2,3,4)            -68.915          estimate D2E/DX2                !
 ! D8    D(1,2,3,25)            56.1679         estimate D2E/DX2                !
 ! D9    D(1,2,3,26)           171.57           estimate D2E/DX2                !
 ! D10   D(24,2,3,4)           163.0737         estimate D2E/DX2                !
 ! D11   D(24,2,3,25)          -71.8434         estimate D2E/DX2                !
 ! D12   D(24,2,3,26)           43.5586         estimate D2E/DX2                !
 ! D13   D(2,3,4,5)           -170.8624         estimate D2E/DX2                !
 ! D14   D(2,3,4,27)            65.1738         estimate D2E/DX2                !
 ! D15   D(2,3,4,28)           -51.2569         estimate D2E/DX2                !
 ! D16   D(25,3,4,5)            64.0212         estimate D2E/DX2                !
 ! D17   D(25,3,4,27)          -59.9426         estimate D2E/DX2                !
 ! D18   D(25,3,4,28)         -176.3734         estimate D2E/DX2                !
 ! D19   D(26,3,4,5)           -51.757          estimate D2E/DX2                !
 ! D20   D(26,3,4,27)         -175.7208         estimate D2E/DX2                !
 ! D21   D(26,3,4,28)           67.8485         estimate D2E/DX2                !
 ! D22   D(3,4,5,6)           -170.802          estimate D2E/DX2                !
 ! D23   D(3,4,5,29)           -46.3921         estimate D2E/DX2                !
 ! D24   D(3,4,5,30)            64.717          estimate D2E/DX2                !
 ! D25   D(27,4,5,6)           -46.0646         estimate D2E/DX2                !
 ! D26   D(27,4,5,29)           78.3453         estimate D2E/DX2                !
 ! D27   D(27,4,5,30)         -170.5456         estimate D2E/DX2                !
 ! D28   D(28,4,5,6)            70.6062         estimate D2E/DX2                !
 ! D29   D(28,4,5,29)         -164.9839         estimate D2E/DX2                !
 ! D30   D(28,4,5,30)          -53.8748         estimate D2E/DX2                !
 ! D31   D(4,5,6,7)            107.9549         estimate D2E/DX2                !
 ! D32   D(4,5,6,12)           -60.3618         estimate D2E/DX2                !
 ! D33   D(29,5,6,7)           -13.5867         estimate D2E/DX2                !
 ! D34   D(29,5,6,12)          178.0966         estimate D2E/DX2                !
 ! D35   D(30,5,6,7)          -128.0239         estimate D2E/DX2                !
 ! D36   D(30,5,6,12)           63.6594         estimate D2E/DX2                !
 ! D37   D(5,6,7,8)           -116.1367         estimate D2E/DX2                !
 ! D38   D(5,6,7,20)            60.6886         estimate D2E/DX2                !
 ! D39   D(12,6,7,8)            50.4649         estimate D2E/DX2                !
 ! D40   D(12,6,7,20)         -132.7098         estimate D2E/DX2                !
 ! D41   D(5,6,12,11)          142.4262         estimate D2E/DX2                !
 ! D42   D(5,6,12,13)          -40.6392         estimate D2E/DX2                !
 ! D43   D(7,6,12,11)          -23.5511         estimate D2E/DX2                !
 ! D44   D(7,6,12,13)          153.3835         estimate D2E/DX2                !
 ! D45   D(6,7,8,9)             -6.6742         estimate D2E/DX2                !
 ! D46   D(6,7,8,17)           176.4711         estimate D2E/DX2                !
 ! D47   D(20,7,8,9)           176.4888         estimate D2E/DX2                !
 ! D48   D(20,7,8,17)           -0.3659         estimate D2E/DX2                !
 ! D49   D(6,7,20,19)         -176.7443         estimate D2E/DX2                !
 ! D50   D(6,7,20,42)            3.2565         estimate D2E/DX2                !
 ! D51   D(8,7,20,19)            0.25           estimate D2E/DX2                !
 ! D52   D(8,7,20,42)         -179.7492         estimate D2E/DX2                !
 ! D53   D(7,8,9,10)           -60.015          estimate D2E/DX2                !
 ! D54   D(7,8,9,31)            64.5105         estimate D2E/DX2                !
 ! D55   D(7,8,9,32)           179.3712         estimate D2E/DX2                !
 ! D56   D(17,8,9,10)          116.8226         estimate D2E/DX2                !
 ! D57   D(17,8,9,31)         -118.6519         estimate D2E/DX2                !
 ! D58   D(17,8,9,32)           -3.7912         estimate D2E/DX2                !
 ! D59   D(7,8,17,18)            0.078          estimate D2E/DX2                !
 ! D60   D(7,8,17,39)          179.3612         estimate D2E/DX2                !
 ! D61   D(9,8,17,18)         -176.7591         estimate D2E/DX2                !
 ! D62   D(9,8,17,39)            2.524          estimate D2E/DX2                !
 ! D63   D(8,9,10,11)           76.0259         estimate D2E/DX2                !
 ! D64   D(8,9,10,33)         -161.5356         estimate D2E/DX2                !
 ! D65   D(8,9,10,34)          -47.7943         estimate D2E/DX2                !
 ! D66   D(31,9,10,11)         -47.5783         estimate D2E/DX2                !
 ! D67   D(31,9,10,33)          74.8601         estimate D2E/DX2                !
 ! D68   D(31,9,10,34)        -171.3986         estimate D2E/DX2                !
 ! D69   D(32,9,10,11)        -163.1284         estimate D2E/DX2                !
 ! D70   D(32,9,10,33)         -40.69           estimate D2E/DX2                !
 ! D71   D(32,9,10,34)          73.0513         estimate D2E/DX2                !
 ! D72   D(9,10,11,12)         -29.8316         estimate D2E/DX2                !
 ! D73   D(9,10,11,16)         150.6708         estimate D2E/DX2                !
 ! D74   D(33,10,11,12)       -151.8479         estimate D2E/DX2                !
 ! D75   D(33,10,11,16)         28.6545         estimate D2E/DX2                !
 ! D76   D(34,10,11,12)         94.824          estimate D2E/DX2                !
 ! D77   D(34,10,11,16)        -84.6736         estimate D2E/DX2                !
 ! D78   D(10,11,12,6)          -2.6832         estimate D2E/DX2                !
 ! D79   D(10,11,12,13)       -179.6458         estimate D2E/DX2                !
 ! D80   D(16,11,12,6)         176.7989         estimate D2E/DX2                !
 ! D81   D(16,11,12,13)         -0.1637         estimate D2E/DX2                !
 ! D82   D(10,11,16,15)       -179.6794         estimate D2E/DX2                !
 ! D83   D(10,11,16,38)          0.0171         estimate D2E/DX2                !
 ! D84   D(12,11,16,15)          0.7998         estimate D2E/DX2                !
 ! D85   D(12,11,16,38)       -179.5037         estimate D2E/DX2                !
 ! D86   D(6,12,13,14)        -177.8103         estimate D2E/DX2                !
 ! D87   D(6,12,13,35)           0.8502         estimate D2E/DX2                !
 ! D88   D(11,12,13,14)         -0.6146         estimate D2E/DX2                !
 ! D89   D(11,12,13,35)        178.0459         estimate D2E/DX2                !
 ! D90   D(12,13,14,15)          0.7698         estimate D2E/DX2                !
 ! D91   D(12,13,14,36)       -179.9479         estimate D2E/DX2                !
 ! D92   D(35,13,14,15)       -177.9357         estimate D2E/DX2                !
 ! D93   D(35,13,14,36)          1.3465         estimate D2E/DX2                !
 ! D94   D(13,14,15,16)         -0.1193         estimate D2E/DX2                !
 ! D95   D(13,14,15,37)        179.5603         estimate D2E/DX2                !
 ! D96   D(36,14,15,16)       -179.3998         estimate D2E/DX2                !
 ! D97   D(36,14,15,37)          0.2798         estimate D2E/DX2                !
 ! D98   D(14,15,16,11)         -0.6583         estimate D2E/DX2                !
 ! D99   D(14,15,16,38)        179.6402         estimate D2E/DX2                !
 ! D100  D(37,15,16,11)        179.662          estimate D2E/DX2                !
 ! D101  D(37,15,16,38)         -0.0395         estimate D2E/DX2                !
 ! D102  D(8,17,18,19)           0.34           estimate D2E/DX2                !
 ! D103  D(8,17,18,40)         179.8281         estimate D2E/DX2                !
 ! D104  D(39,17,18,19)       -178.9515         estimate D2E/DX2                !
 ! D105  D(39,17,18,40)          0.5366         estimate D2E/DX2                !
 ! D106  D(17,18,19,20)         -0.4563         estimate D2E/DX2                !
 ! D107  D(17,18,19,41)        179.6732         estimate D2E/DX2                !
 ! D108  D(40,18,19,20)       -179.9441         estimate D2E/DX2                !
 ! D109  D(40,18,19,41)          0.1854         estimate D2E/DX2                !
 ! D110  D(18,19,20,7)           0.1618         estimate D2E/DX2                !
 ! D111  D(18,19,20,42)       -179.839          estimate D2E/DX2                !
 ! D112  D(41,19,20,7)        -179.9675         estimate D2E/DX2                !
 ! D113  D(41,19,20,42)          0.0318         estimate D2E/DX2                !
 --------------------------------------------------------------------------------
 Trust Radius=3.00D-01 FncErr=1.00D-07 GrdErr=1.00D-06 EigMax=2.50D+02 EigMin=1.00D-04
 Number of steps in this run=    245 maximum allowed number of steps=    252.
 GradGradGradGradGradGradGradGradGradGradGradGradGradGradGradGradGradGrad

                          Input orientation:                          
 ---------------------------------------------------------------------
 Center     Atomic      Atomic             Coordinates (Angstroms)
 Number     Number       Type             X           Y           Z
 ---------------------------------------------------------------------
      1          6           0       -0.415600   -1.657500    4.316200
      2          7           0       -0.835300   -2.904000    3.683300
      3          6           0        0.054900   -3.343800    2.613200
      4          6           0       -0.013000   -2.419100    1.386100
      5          6           0        0.747200   -2.995400    0.173000
      6          7           0        0.864200   -2.010900   -0.928900
      7          6           0        2.179500   -1.523100   -1.063300
      8          6           0        2.530300   -0.173800   -0.857600
      9          6           0        1.447900    0.856600   -0.621200
     10          6           0        0.477500    0.939900   -1.798200
     11          6           0       -0.553200   -0.176700   -1.935200
     12          6           0       -0.340200   -1.515300   -1.497800
     13          6           0       -1.393800   -2.427700   -1.706200
     14          6           0       -2.599800   -2.063900   -2.296200
     15          6           0       -2.788400   -0.757900   -2.718200
     16          6           0       -1.769800    0.169500   -2.543000
     17          6           0        3.874000    0.216800   -0.938800
     18          6           0        4.874000   -0.709100   -1.222200
     19          6           0        4.538800   -2.040900   -1.435500
     20          6           0        3.205600   -2.435900   -1.353700
     21          1           0        0.609400   -1.717000    4.687100
     22          1           0       -0.491100   -0.813500    3.628800
     23          1           0       -1.063300   -1.433700    5.165100
     24          1           0       -0.999400   -3.638900    4.360800
     25          1           0        1.081500   -3.447500    2.971500
     26          1           0       -0.254200   -4.346400    2.310800
     27          1           0        0.358400   -1.421600    1.619000
     28          1           0       -1.065900   -2.309200    1.123600
     29          1           0        1.718200   -3.347500    0.528200
     30          1           0        0.273600   -3.915000   -0.169200
     31          1           0        0.927700    0.642400    0.313800
     32          1           0        1.907700    1.834600   -0.472700
     33          1           0       -0.052500    1.890800   -1.722100
     34          1           0        1.036500    1.001900   -2.733500
     35          1           0       -1.282700   -3.461100   -1.426400
     36          1           0       -3.378700   -2.799400   -2.434100
     37          1           0       -3.718200   -0.464700   -3.184400
     38          1           0       -1.934500    1.181500   -2.884300
     39          1           0        4.147000    1.251900   -0.792100
     40          1           0        5.905300   -0.391900   -1.284200
     41          1           0        5.305800   -2.767000   -1.661300
     42          1           0        2.953300   -3.472400   -1.518000
 ---------------------------------------------------------------------
                    Distance matrix (angstroms):
                    1          2          3          4          5
     1  C    0.000000
     2  N    1.459614   0.000000
     3  C    2.442373   1.459792   0.000000
     4  C    3.054113   2.487656   1.538004   0.000000
     5  C    4.506461   3.851606   2.560320   1.543255   0.000000
     6  N    5.410532   4.995830   3.870150   2.509050   1.482266
     7  C    5.974247   5.790174   4.620122   3.407262   2.397413
     8  C    6.135788   6.277024   5.312528   4.067424   3.493280
     9  C    5.845618   6.154985   5.481346   4.110194   3.994952
    10  C    6.702985   6.822452   6.163532   4.654378   4.409643
    11  C    6.425862   6.251823   5.575684   4.043663   3.752415
    12  C    5.816227   5.386781   4.516618   3.039867   2.482883
    13  C    6.149747   5.439255   4.647062   3.386591   2.904747
    14  C    6.975652   6.290759   5.726062   4.514093   4.262282
    15  C    7.478118   7.028481   6.572295   5.225678   5.085854
    16  C    7.226369   7.006176   6.500708   5.022452   4.871195
    17  C    7.037663   7.299364   6.315069   5.240410   4.618572
    18  C    7.717072   7.840767   6.698930   5.797422   4.919779
    19  C    7.600995   7.471814   6.180201   5.368738   4.227833
    20  C    6.772500   6.474516   5.146600   4.226840   2.947471
    21  H    1.091665   2.122202   2.693513   3.431753   4.693655
    22  H    1.091126   2.119348   2.780643   2.799327   4.270437
    23  H    1.090978   2.099880   3.378024   4.044130   5.535149
    24  H    2.066097   1.012923   2.062217   3.362995   4.582835
    25  H    2.693256   2.115697   1.092264   2.183811   2.854427
    26  H    3.358253   2.074115   1.091877   2.151217   2.719962
    27  H    2.815957   2.807804   2.185269   1.089581   2.172309
    28  H    3.322694   2.637997   2.132017   1.090680   2.159130
    29  H    4.664563   4.083101   2.667172   2.143589   1.092237
    30  H    5.068542   4.134433   2.848833   2.176882   1.089524
    31  H    4.807619   5.199870   4.683888   3.377503   3.644996
    32  H    6.366007   6.873916   6.306463   5.023762   5.009250
    33  H    7.013084   7.267822   6.797602   5.313916   5.301497
    34  H    7.673283   7.741771   6.959587   5.456720   4.950742
    35  H    6.081307   5.159415   4.256912   3.257001   2.625919
    36  H    7.459923   6.625889   6.128721   5.105535   4.884510
    37  H    8.281844   7.837512   7.492507   6.199811   6.133219
    38  H    7.887596   7.812357   7.393143   5.907013   5.829673
    39  H    7.441549   7.881879   7.032909   5.960402   5.525361
    40  H    8.539321   8.741990   7.624344   6.801935   5.958829
    41  H    8.348408   8.142274   6.795292   6.139814   4.919111
    42  H    6.977194   6.459883   5.048175   4.282776   2.820264
                    6          7          8          9         10
     6  N    0.000000
     7  C    1.409264   0.000000
     8  C    2.481110   1.409249   0.000000
     9  C    2.942438   2.528569   1.513010   0.000000
    10  C    3.100394   3.082734   2.517746   1.527725   0.000000
    11  C    2.527044   3.168699   3.266375   2.607433   1.525748
    12  C    1.421213   2.556900   3.232530   3.097037   2.605164
    13  C    2.424146   3.741670   4.604210   4.476506   3.853694
    14  C    3.724462   4.965301   5.653315   5.264867   4.329041
    15  C    4.255948   5.291905   5.664943   4.995023   3.794078
    16  C    3.781193   4.544379   4.631338   3.810383   2.489699
    17  C    3.744548   2.431889   1.401675   2.529066   3.577381
    18  C    4.226015   2.819251   2.431545   3.814548   4.730770
    19  C    3.709478   2.443961   2.802517   4.314192   5.050829
    20  C    2.417278   1.403716   2.412310   3.803501   4.363042
    21  H    5.629454   5.964052   6.067538   5.958569   7.009681
    22  H    4.903390   5.445313   5.446637   4.960993   5.784888
    23  H    6.417574   7.022586   7.125603   6.710653   7.516355
    24  H    5.839890   6.633466   7.190090   7.142767   7.815365
    25  H    4.162230   4.603100   5.241960   5.618453   6.508774
    26  H    4.147413   5.027770   5.933194   6.210071   6.735298
    27  H    2.663626   3.243677   3.522457   3.375752   4.155493
    28  H    2.833201   3.991629   4.627931   4.402932   4.634183
    29  H    2.153824   2.464570   3.557010   4.366765   5.033217
    30  H    2.133436   3.186386   4.423027   4.934719   5.124965
    31  H    2.930586   2.855310   2.146319   1.091199   2.179846
    32  H    4.010596   3.420063   2.137627   1.090849   2.145439
    33  H    4.085678   4.131653   3.417717   2.129026   1.091285
    34  H    3.516139   3.235992   2.670713   2.156890   1.091380
    35  H    2.638137   3.984283   5.066443   5.171756   4.754507
    36  H    4.570510   5.865290   6.655480   6.320523   5.408975
    37  H    5.336329   6.356268   6.674007   5.916453   4.636631
    38  H    4.674155   5.249371   5.087120   4.082623   2.656262
    39  H    4.630481   3.412511   2.156532   2.733242   3.817697
    40  H    5.306608   3.899999   3.408839   4.676188   5.612388
    41  H    4.564637   3.417403   3.882528   5.394041   6.088705
    42  H    2.616746   2.145994   3.390548   4.670195   5.067197
                   11         12         13         14         15
    11  C    0.000000
    12  C    1.424267   0.000000
    13  C    2.413721   1.409247   0.000000
    14  C    2.807208   2.458495   1.391002   0.000000
    15  C    2.438647   2.838435   2.399434   1.385384   0.000000
    16  C    1.403350   2.444330   2.754461   2.395388   1.388637
    17  C    4.554970   4.590439   5.944073   6.996729   6.964473
    18  C    5.499665   5.283351   6.517143   7.671157   7.807226
    19  C    5.445494   4.907624   5.951356   7.190337   7.548461
    20  C    4.423879   3.666192   4.612895   5.893162   6.372251
    21  H    6.897755   6.260624   6.737373   7.693230   8.203864
    22  H    5.600667   5.176613   5.646480   6.412156   6.750192
    23  H    7.228728   6.702520   6.950686   7.643885   8.098092
    24  H    7.198996   6.266372   6.199278   7.025493   7.849390
    25  H    6.119320   5.072403   5.389618   6.573810   7.388015
    26  H    5.958550   4.746363   4.595257   5.651203   6.677600
    27  H    3.874678   3.195507   3.890938   4.948968   5.399458
    28  H    3.763864   2.833488   2.851198   3.756069   4.486977
    29  H    4.613195   3.420328   3.939939   5.316953   6.128180
    30  H    4.216307   2.810781   2.711946   4.025808   5.083358
    31  H    2.814603   3.089520   4.346870   5.155523   4.996325
    32  H    3.498609   4.162417   5.530698   6.232256   5.815211
    33  H    2.137912   3.425580   4.522033   4.738985   3.936112
    34  H    2.133899   3.123868   4.327108   4.776300   4.210343
    35  H    3.402695   2.163225   1.076358   2.107955   3.353084
    36  H    3.887275   3.429002   2.146585   1.080121   2.144036
    37  H    3.414772   3.919090   3.382496   2.144099   1.080665
    38  H    2.157194   3.425917   3.834919   3.364685   2.125560
    39  H    5.043754   5.318869   6.713829   7.666561   7.473214
    40  H    6.494793   6.349325   7.589429   8.726767   8.818772
    41  H    6.411907   5.785396   6.708337   7.962158   8.406521
    42  H    4.830242   3.831160   4.474829   5.781556   6.463444
                   16         17         18         19         20
    16  C    0.000000
    17  C    5.867553   0.000000
    18  C    6.830558   1.391979   0.000000
    19  C    6.775755   2.405385   1.389801   0.000000
    20  C    5.740832   2.766897   2.404722   1.392889   0.000000
    21  H    7.841800   6.785864   7.356800   7.282261   6.614253
    22  H    6.379066   6.401452   7.233768   7.242482   6.412728
    23  H    7.904695   8.022386   8.750667   8.678717   7.856377
    24  H    7.922113   8.167142   8.616870   8.174494   7.196162
    25  H    7.184867   6.042814   6.282437   5.775214   4.923666
    26  H    6.800718   6.958788   7.211829   6.505609   5.389693
    27  H    4.937922   4.646089   5.382445   5.214331   4.239375
    28  H    4.481449   5.919188   6.583731   6.167142   4.939512
    29  H    5.828182   4.416310   4.470361   3.676834   2.566110
    30  H    5.147189   5.534161   5.705286   4.827805   3.491046
    31  H    3.957455   3.229679   4.445125   4.827027   4.176759
    32  H    4.536817   2.588602   3.978831   4.782172   4.549492
    33  H    2.566295   4.339728   5.592833   6.051482   5.428745
    34  H    2.933343   3.448005   4.465194   4.817628   4.292704
    35  H    3.829532   6.352657   6.746863   5.992238   4.604471
    36  H    3.378577   7.995939   8.599134   8.016192   6.682245
    37  H    2.147060   7.946613   8.816794   8.586100   7.428062
    38  H    1.080627   6.201152   7.258968   7.374720   6.469076
    39  H    6.264644   1.080501   2.135190   3.377870   3.847271
    40  H    7.797878   2.148487   1.080759   2.146955   3.386908
    41  H    7.711326   3.387495   2.148072   1.080044   2.148275
    42  H    6.051589   3.846213   3.378226   2.137711   1.079343
                   21         22         23         24         25
    21  H    0.000000
    22  H    1.774095   0.000000
    23  H    1.762574   1.752792   0.000000
    24  H    2.527530   2.962613   2.348167   0.000000
    25  H    2.482094   3.137367   3.669801   2.509369   0.000000
    26  H    3.647787   3.778178   4.157583   2.293116   1.740299
    27  H    3.092491   2.265112   3.820498   3.778559   2.540945
    28  H    3.981942   2.973809   4.135242   3.500284   3.053160
    29  H    4.602653   4.573389   5.735871   4.707344   2.526876
    30  H    5.341125   4.962748   6.033151   4.713561   3.276470
    31  H    4.979341   3.888684   5.639981   6.198504   4.879990
    32  H    6.397107   5.439575   7.161942   7.859590   6.359693
    33  H    7.384591   6.011467   7.714113   8.275015   7.198144
    34  H    7.914552   6.790295   8.528141   8.718429   7.235068
    35  H    6.633009   5.761203   6.899736   5.796857   4.993110
    36  H    8.233348   7.002913   8.060649   7.248206   7.038034
    37  H    9.069558   7.546889   8.814851   8.625396   8.356394
    38  H    8.496989   6.963038   8.508296   8.752265   8.050732
    39  H    7.165934   6.732177   8.357506   8.772556   6.756207
    40  H    8.090666   8.076463   9.551974   9.491255   7.121567
    41  H    7.966232   8.087359   9.430952   8.762502   6.306396
    42  H    6.861382   6.739673   8.059355   7.086032   4.864141
                   26         27         28         29         30
    26  H    0.000000
    27  H    3.067299   0.000000
    28  H    2.493689   1.749824   0.000000
    29  H    2.840040   2.597690   3.030475   0.000000
    30  H    2.571980   3.069510   2.458493   1.701556   0.000000
    31  H    5.502093   2.507538   3.652692   4.073102   4.629366
    32  H    7.115226   4.168738   5.344301   5.281276   5.985006
    33  H    7.430184   4.722688   5.173489   5.969842   6.018734
    34  H    7.464260   5.027666   5.500972   5.479113   5.597638
    35  H    3.975957   4.015872   2.806488   3.583123   2.051499
    36  H    5.888105   5.682593   4.271600   5.920644   4.440003
    37  H    7.567306   6.372360   5.384769   7.186681   6.077044
    38  H    7.769823   5.684473   5.385417   6.745311   6.182377
    39  H    7.767851   5.226327   6.597398   5.366260   6.487533
    40  H    8.154847   6.344837   7.620444   5.436191   6.735837
    41  H    7.013251   6.086644   6.968774   4.242849   5.372830
    42  H    5.070665   4.558515   4.948237   2.393325   3.032482
                   31         32         33         34         35
    31  H    0.000000
    32  H    1.732144   0.000000
    33  H    2.581508   2.325197   0.000000
    34  H    3.070361   2.561951   1.731760   0.000000
    35  H    4.975226   6.255608   5.499424   5.196688   0.000000
    36  H    6.159710   7.298429   5.793835   5.833825   2.417958
    37  H    5.920090   6.655137   4.596092   4.996138   4.242716
    38  H    4.325582   4.583105   2.322873   2.980241   4.909588
    39  H    3.458092   2.335813   4.348436   3.675152   7.217780
    40  H    5.329154   4.647219   6.395143   5.267671   7.817132
    41  H    5.890058   5.842480   7.100012   5.794924   6.629124
    42  H    4.938636   5.509100   6.151455   5.017063   4.237005
                   36         37         38         39         40
    36  H    0.000000
    37  H    2.475689   0.000000
    38  H    4.258633   2.445735   0.000000
    39  H    8.703181   8.398285   6.431710   0.000000
    40  H    9.659761   9.809578   8.154653   2.456799   0.000000
    41  H    8.718877   9.436789   8.337165   4.271988   2.478448
    42  H    6.433226   7.505469   6.885939   4.926547   4.272990
                   41         42
    41  H    0.000000
    42  H    2.460159   0.000000
 Stoichiometry    C18H22N2
 Framework group  C1[X(C18H22N2)]
 Deg. of freedom   120
 Full point group                 C1      NOp   1
 Largest Abelian subgroup         C1      NOp   1
 Largest concise Abelian subgroup C1      NOp   1
                         Standard orientation:                         
 ---------------------------------------------------------------------
 Center     Atomic      Atomic             Coordinates (Angstroms)
 Number     Number       Type             X           Y           Z
 ---------------------------------------------------------------------
      1          6           0       -3.852134   -2.375222    1.693157
      2          7           0       -4.156406   -1.934990    0.335185
      3          6           0       -3.004666   -1.968715   -0.561114
      4          6           0       -1.954774   -0.905803   -0.195876
      5          6           0       -0.847217   -0.782389   -1.263454
      6          7           0        0.270348    0.078516   -0.808477
      7          6           0        1.428909   -0.669804   -0.519030
      8          6           0        1.993672   -0.756348    0.769199
      9          6           0        1.441691    0.096142    1.890705
     10          6           0        1.553037    1.587185    1.577119
     11          6           0        0.553094    2.169243    0.582519
     12          6           0       -0.030393    1.429495   -0.485589
     13          6           0       -0.931709    2.120581   -1.319859
     14          6           0       -1.264413    3.457191   -1.125777
     15          6           0       -0.684908    4.161985   -0.083314
     16          6           0        0.218540    3.521264    0.754284
     17          6           0        3.105072   -1.581796    0.988561
     18          6           0        3.665411   -2.320789   -0.049474
     19          6           0        3.122176   -2.236552   -1.325933
     20          6           0        2.016162   -1.420031   -1.549909
     21          1           0       -3.401741   -3.369576    1.704924
     22          1           0       -3.180141   -1.680122    2.198940
     23          1           0       -4.767513   -2.418428    2.285142
     24          1           0       -4.950802   -2.426969   -0.055845
     25          1           0       -2.559980   -2.965788   -0.594899
     26          1           0       -3.362029   -1.771137   -1.573759
     27          1           0       -1.511614   -1.103560    0.779670
     28          1           0       -2.476861    0.048498   -0.116402
     29          1           0       -0.522556   -1.792873   -1.521331
     30          1           0       -1.264765   -0.421824   -2.202979
     31          1           0        0.411811   -0.193139    2.106061
     32          1           0        1.993363   -0.113963    2.808020
     33          1           0        1.458391    2.130309    2.518905
     34          1           0        2.558672    1.814808    1.219353
     35          1           0       -1.381948    1.625938   -2.163162
     36          1           0       -1.961610    3.943845   -1.791921
     37          1           0       -0.929886    5.202774    0.073469
     38          1           0        0.663928    4.090152    1.557871
     39          1           0        3.548115   -1.643675    1.972108
     40          1           0        4.524074   -2.950652    0.134943
     41          1           0        3.551990   -2.801365   -2.140023
     42          1           0        1.598210   -1.361761   -2.543338
 ---------------------------------------------------------------------
 Rotational constants (GHZ):           0.3358122           0.2984973           0.1995435
 Standard basis: 6-31G(d,p) (6D, 7F)
 There are   410 symmetry adapted cartesian basis functions of A   symmetry.
 There are   410 symmetry adapted basis functions of A   symmetry.
   410 basis functions,   714 primitive gaussians,   410 cartesian basis functions
    72 alpha electrons       72 beta electrons
       nuclear repulsion energy      1523.3085761605 Hartrees.
 NAtoms=   42 NActive=   42 NUniq=   42 SFac= 1.00D+00 NAtFMM=   60 NAOKFM=F Big=F
 Integral buffers will be    131072 words long.
 Raffenetti 2 integral format.
 Two-electron integral symmetry is turned on.
 Nuclear repulsion after empirical dispersion term =     1523.2181463870 Hartrees.
 One-electron integrals computed using PRISM.
 NBasis=   410 RedAO= T EigKep=  3.68D-04  NBF=   410
 NBsUse=   410 1.00D-06 EigRej= -1.00D+00 NBFU=   410
 ExpMin= 1.61D-01 ExpMax= 4.17D+03 ExpMxC= 6.27D+02 IAcc=3 IRadAn=         5 AccDes= 0.00D+00
 Harris functional with IExCor=  402 and IRadAn=       5 diagonalized for initial guess.
 HarFok:  IExCor=  402 AccDes= 0.00D+00 IRadAn=         5 IDoV= 1 UseB2=F ITyADJ=14
 ICtDFT=  3500011 ScaDFX=  1.000000  1.000000  1.000000  1.000000
 FoFCou: FMM=F IPFlag=           0 FMFlag=      100000 FMFlg1=           0
         NFxFlg=           0 DoJE=T BraDBF=F KetDBF=T FulRan=T
         wScrn=  0.000000 ICntrl=       500 IOpCl=  0 I1Cent=   200000004 NGrid=           0
         NMat0=    1 NMatS0=      1 NMatT0=    0 NMatD0=    1 NMtDS0=    0 NMtDT0=    0
 Petite list used in FoFCou.
 Requested convergence on RMS density matrix=1.00D-08 within 128 cycles.
 Requested convergence on MAX density matrix=1.00D-06.
 Requested convergence on             energy=1.00D-06.
 No special actions if energy rises.
 Integral accuracy reduced to 1.0D-05 until final iterations.
 Initial convergence to 1.0D-05 achieved.  Increase integral accuracy.
 SCF Done:  E(RB3LYP) =  -808.766719638     A.U. after   14 cycles
            NFock= 14  Conv=0.66D-08     -V/T= 2.0097

 **********************************************************************

            Population analysis using the SCF Density.

 **********************************************************************

 Orbital symmetries:
       Occupied  (A) (A) (A) (A) (A) (A) (A) (A) (A) (A) (A) (A)
                 (A) (A) (A) (A) (A) (A) (A) (A) (A) (A) (A) (A)
                 (A) (A) (A) (A) (A) (A) (A) (A) (A) (A) (A) (A)
                 (A) (A) (A) (A) (A) (A) (A) (A) (A) (A) (A) (A)
                 (A) (A) (A) (A) (A) (A) (A) (A) (A) (A) (A) (A)
                 (A) (A) (A) (A) (A) (A) (A) (A) (A) (A) (A) (A)
       Virtual   (A) (A) (A) (A) (A) (A) (A) (A) (A) (A) (A) (A)
                 (A) (A) (A) (A) (A) (A) (A) (A) (A) (A) (A) (A)
                 (A) (A) (A) (A) (A) (A) (A) (A) (A) (A) (A) (A)
                 (A) (A) (A) (A) (A) (A) (A) (A) (A) (A) (A) (A)
                 (A) (A) (A) (A) (A) (A) (A) (A) (A) (A) (A) (A)
                 (A) (A) (A) (A) (A) (A) (A) (A) (A) (A) (A) (A)
                 (A) (A) (A) (A) (A) (A) (A) (A) (A) (A) (A) (A)
                 (A) (A) (A) (A) (A) (A) (A) (A) (A) (A) (A) (A)
                 (A) (A) (A) (A) (A) (A) (A) (A) (A) (A) (A) (A)
                 (A) (A) (A) (A) (A) (A) (A) (A) (A) (A) (A) (A)
                 (A) (A) (A) (A) (A) (A) (A) (A) (A) (A) (A) (A)
                 (A) (A) (A) (A) (A) (A) (A) (A) (A) (A) (A) (A)
                 (A) (A) (A) (A) (A) (A) (A) (A) (A) (A) (A) (A)
                 (A) (A) (A) (A) (A) (A) (A) (A) (A) (A) (A) (A)
                 (A) (A) (A) (A) (A) (A) (A) (A) (A) (A) (A) (A)
                 (A) (A) (A) (A) (A) (A) (A) (A) (A) (A) (A) (A)
                 (A) (A) (A) (A) (A) (A) (A) (A) (A) (A) (A) (A)
                 (A) (A) (A) (A) (A) (A) (A) (A) (A) (A) (A) (A)
                 (A) (A) (A) (A) (A) (A) (A) (A) (A) (A) (A) (A)
                 (A) (A) (A) (A) (A) (A) (A) (A) (A) (A) (A) (A)
                 (A) (A) (A) (A) (A) (A) (A) (A) (A) (A) (A) (A)
                 (A) (A) (A) (A) (A) (A) (A) (A) (A) (A) (A) (A)
                 (A) (A) (A) (A) (A) (A) (A) (A) (A) (A) (A) (A)
                 (A) (A) (A) (A) (A) (A) (A) (A) (A) (A) (A) (A)
                 (A) (A) (A) (A) (A) (A) (A) (A) (A) (A) (A) (A)
                 (A) (A) (A) (A) (A) (A) (A) (A) (A) (A) (A) (A)
                 (A) (A) (A) (A) (A) (A) (A) (A) (A) (A) (A) (A)
                 (A) (A) (A) (A) (A) (A) (A) (A) (A) (A) (A) (A)
                 (A) (A)
 The electronic state is 1-A.
 Alpha  occ. eigenvalues --  -14.34739 -14.31103 -10.22494 -10.21874 -10.21471
 Alpha  occ. eigenvalues --  -10.20334 -10.19639 -10.18798 -10.18796 -10.18400
 Alpha  occ. eigenvalues --  -10.18352 -10.18241 -10.18196 -10.18081 -10.17975
 Alpha  occ. eigenvalues --  -10.17686 -10.17677 -10.17539 -10.17421 -10.17104
 Alpha  occ. eigenvalues --   -0.94417  -0.89294  -0.84833  -0.83742  -0.79278
 Alpha  occ. eigenvalues --   -0.76647  -0.74907  -0.74708  -0.71829  -0.70090
 Alpha  occ. eigenvalues --   -0.67719  -0.64620  -0.64029  -0.60003  -0.59389
 Alpha  occ. eigenvalues --   -0.58073  -0.57500  -0.55970  -0.51344  -0.50205
 Alpha  occ. eigenvalues --   -0.48713  -0.47450  -0.46761  -0.46412  -0.46211
 Alpha  occ. eigenvalues --   -0.44864  -0.43336  -0.43011  -0.42357  -0.41998
 Alpha  occ. eigenvalues --   -0.41078  -0.40707  -0.39675  -0.38542  -0.38178
 Alpha  occ. eigenvalues --   -0.37743  -0.37327  -0.35908  -0.35372  -0.34657
 Alpha  occ. eigenvalues --   -0.34232  -0.34109  -0.33546  -0.32764  -0.32252
 Alpha  occ. eigenvalues --   -0.31979  -0.27992  -0.24210  -0.23746  -0.23187
 Alpha  occ. eigenvalues --   -0.21046  -0.18376
 Alpha virt. eigenvalues --   -0.00119   0.00602   0.00936   0.02045   0.08585
 Alpha virt. eigenvalues --    0.09205   0.09379   0.10420   0.11051   0.12529
 Alpha virt. eigenvalues --    0.13234   0.14013   0.14433   0.14768   0.15148
 Alpha virt. eigenvalues --    0.15736   0.16796   0.17031   0.17315   0.17473
 Alpha virt. eigenvalues --    0.18494   0.18674   0.19069   0.19351   0.19930
 Alpha virt. eigenvalues --    0.20214   0.20929   0.21681   0.23324   0.24072
 Alpha virt. eigenvalues --    0.24788   0.24948   0.25967   0.26211   0.27662
 Alpha virt. eigenvalues --    0.28308   0.30000   0.30498   0.32207   0.33101
 Alpha virt. eigenvalues --    0.33589   0.35204   0.35761   0.37008   0.38260
 Alpha virt. eigenvalues --    0.41121   0.46350   0.49512   0.50419   0.50930
 Alpha virt. eigenvalues --    0.51410   0.51651   0.53234   0.53436   0.53981
 Alpha virt. eigenvalues --    0.54531   0.55101   0.55322   0.56071   0.57080
 Alpha virt. eigenvalues --    0.57394   0.58065   0.58640   0.59438   0.59684
 Alpha virt. eigenvalues --    0.60441   0.60905   0.61429   0.61763   0.62011
 Alpha virt. eigenvalues --    0.62312   0.62564   0.62796   0.63427   0.64508
 Alpha virt. eigenvalues --    0.66050   0.66818   0.67385   0.67910   0.69156
 Alpha virt. eigenvalues --    0.69986   0.71200   0.72354   0.73541   0.74897
 Alpha virt. eigenvalues --    0.75431   0.76039   0.77472   0.79296   0.79408
 Alpha virt. eigenvalues --    0.81361   0.81548   0.81929   0.82301   0.82414
 Alpha virt. eigenvalues --    0.82888   0.83354   0.83785   0.84141   0.85480
 Alpha virt. eigenvalues --    0.86379   0.87200   0.88482   0.89174   0.89445
 Alpha virt. eigenvalues --    0.90661   0.91358   0.91855   0.92371   0.93002
 Alpha virt. eigenvalues --    0.93244   0.93688   0.95114   0.95447   0.96518
 Alpha virt. eigenvalues --    0.96932   0.98619   0.99127   0.99786   1.01497
 Alpha virt. eigenvalues --    1.03435   1.05759   1.06282   1.07512   1.08210
 Alpha virt. eigenvalues --    1.09363   1.09724   1.11105   1.12729   1.13599
 Alpha virt. eigenvalues --    1.15372   1.17919   1.19806   1.20325   1.22036
 Alpha virt. eigenvalues --    1.23053   1.23849   1.25272   1.26610   1.29094
 Alpha virt. eigenvalues --    1.31309   1.32770   1.33306   1.33828   1.35775
 Alpha virt. eigenvalues --    1.36148   1.37366   1.41258   1.41671   1.42041
 Alpha virt. eigenvalues --    1.42228   1.43079   1.43867   1.44188   1.47703
 Alpha virt. eigenvalues --    1.49418   1.51275   1.51538   1.53156   1.56191
 Alpha virt. eigenvalues --    1.58955   1.62634   1.63128   1.68617   1.69862
 Alpha virt. eigenvalues --    1.70194   1.72734   1.73904   1.75423   1.76702
 Alpha virt. eigenvalues --    1.77391   1.78600   1.79233   1.81084   1.83063
 Alpha virt. eigenvalues --    1.83792   1.84349   1.85476   1.86658   1.87260
 Alpha virt. eigenvalues --    1.87933   1.88827   1.89401   1.90448   1.90840
 Alpha virt. eigenvalues --    1.91349   1.92485   1.93328   1.94576   1.95254
 Alpha virt. eigenvalues --    1.95938   1.96546   1.96956   1.98670   1.99328
 Alpha virt. eigenvalues --    2.00113   2.00972   2.02199   2.02629   2.03288
 Alpha virt. eigenvalues --    2.04056   2.05313   2.07051   2.08189   2.08675
 Alpha virt. eigenvalues --    2.09371   2.11386   2.12007   2.13631   2.15241
 Alpha virt. eigenvalues --    2.16258   2.17718   2.19213   2.22085   2.22431
 Alpha virt. eigenvalues --    2.22862   2.24031   2.24773   2.25450   2.26798
 Alpha virt. eigenvalues --    2.27737   2.28192   2.29518   2.30369   2.31399
 Alpha virt. eigenvalues --    2.32176   2.33379   2.34834   2.35944   2.36446
 Alpha virt. eigenvalues --    2.39214   2.39409   2.40616   2.40776   2.42256
 Alpha virt. eigenvalues --    2.42599   2.43056   2.43689   2.44937   2.45572
 Alpha virt. eigenvalues --    2.46456   2.47345   2.47616   2.48859   2.49759
 Alpha virt. eigenvalues --    2.51033   2.52828   2.53577   2.55432   2.56624
 Alpha virt. eigenvalues --    2.56802   2.57544   2.59042   2.60017   2.60521
 Alpha virt. eigenvalues --    2.61449   2.63089   2.63529   2.64359   2.66076
 Alpha virt. eigenvalues --    2.66988   2.68146   2.69150   2.70086   2.70995
 Alpha virt. eigenvalues --    2.72496   2.74051   2.74487   2.74864   2.77265
 Alpha virt. eigenvalues --    2.77420   2.78788   2.79944   2.80609   2.81747
 Alpha virt. eigenvalues --    2.83095   2.84264   2.86479   2.87333   2.88328
 Alpha virt. eigenvalues --    2.90347   2.91186   2.92772   2.94637   2.96485
 Alpha virt. eigenvalues --    2.97456   2.99956   3.02281   3.05941   3.07571
 Alpha virt. eigenvalues --    3.09836   3.15366   3.20587   3.22504   3.23646
 Alpha virt. eigenvalues --    3.25862   3.26770   3.26984   3.30273   3.30538
 Alpha virt. eigenvalues --    3.32573   3.35894   3.36337   3.37821   3.39737
 Alpha virt. eigenvalues --    3.39936   3.42187   3.44738   3.45265   3.46475
 Alpha virt. eigenvalues --    3.49621   3.50189   3.50818   3.54414   3.56694
 Alpha virt. eigenvalues --    3.60923   3.86249   3.87452   4.06467   4.14399
 Alpha virt. eigenvalues --    4.14802   4.17443   4.17776   4.21422   4.23132
 Alpha virt. eigenvalues --    4.28008   4.36040   4.41383   4.45316   4.46638
 Alpha virt. eigenvalues --    4.47448   4.50161   4.55940   4.56911   4.65925
 Alpha virt. eigenvalues --    4.76937   4.85581   4.88964
          Condensed to atoms (all electrons):
               1          2          3          4          5          6
     1  C    4.789972   0.328310  -0.053499  -0.005477   0.000133  -0.000002
     2  N    0.328310   6.776499   0.324509  -0.059960   0.002681  -0.000050
     3  C   -0.053499   0.324509   4.814632   0.350676  -0.027784   0.003559
     4  C   -0.005477  -0.059960   0.350676   5.020415   0.349785  -0.059355
     5  C    0.000133   0.002681  -0.027784   0.349785   4.840403   0.302421
     6  N   -0.000002  -0.000050   0.003559  -0.059355   0.302421   7.233899
     7  C   -0.000000   0.000001  -0.000132   0.000550  -0.041520   0.267126
     8  C    0.000001   0.000000  -0.000047   0.000854   0.004543  -0.075955
     9  C   -0.000002   0.000000   0.000017  -0.000724  -0.000407  -0.007574
    10  C    0.000000  -0.000000  -0.000001   0.000068   0.000077  -0.015245
    11  C    0.000000   0.000000  -0.000009   0.000572   0.003738  -0.063460
    12  C    0.000000  -0.000003   0.000044  -0.001037  -0.034271   0.249088
    13  C    0.000000   0.000000   0.000042  -0.005076  -0.003749  -0.076432
    14  C    0.000000   0.000000   0.000001  -0.000265   0.000182   0.005536
    15  C   -0.000000  -0.000000  -0.000000   0.000015  -0.000007  -0.000006
    16  C   -0.000000   0.000000   0.000000   0.000010  -0.000120   0.006509
    17  C    0.000000  -0.000000   0.000001  -0.000030  -0.000059   0.007315
    18  C   -0.000000  -0.000000   0.000000  -0.000001   0.000023  -0.000007
    19  C    0.000000  -0.000000   0.000000   0.000013  -0.000180   0.006085
    20  C    0.000000   0.000000  -0.000019   0.000414  -0.016292  -0.079278
    21  H    0.370082  -0.056564  -0.007651  -0.001986   0.000038  -0.000001
    22  H    0.394349  -0.042311  -0.003864   0.004679  -0.000177   0.000010
    23  H    0.386468  -0.030531   0.005289   0.000189  -0.000004  -0.000000
    24  H   -0.040000   0.344929  -0.033991   0.005608  -0.000141   0.000001
    25  H   -0.008291  -0.056065   0.365903  -0.056857  -0.001352  -0.000107
    26  H    0.006083  -0.035276   0.383094  -0.035265  -0.003829   0.000076
    27  H    0.002251  -0.002625  -0.032912   0.384053  -0.036787  -0.000456
    28  H   -0.000583   0.007469  -0.037721   0.373782  -0.029454  -0.005778
    29  H   -0.000017   0.000025  -0.003472  -0.041381   0.384766  -0.032058
    30  H    0.000002  -0.000139  -0.000550  -0.049845   0.374707  -0.038420
    31  H   -0.000013  -0.000000   0.000002   0.000352  -0.000166   0.003793
    32  H    0.000000  -0.000000  -0.000000   0.000009  -0.000001   0.000115
    33  H   -0.000000  -0.000000   0.000000  -0.000000   0.000008   0.000010
    34  H   -0.000000   0.000000   0.000000   0.000003  -0.000007   0.000585
    35  H    0.000000  -0.000001   0.000004  -0.000711   0.002430  -0.010293
    36  H   -0.000000  -0.000000   0.000000  -0.000007   0.000007  -0.000127
    37  H   -0.000000   0.000000  -0.000000   0.000000  -0.000000   0.000006
    38  H    0.000000  -0.000000  -0.000000  -0.000001   0.000002  -0.000085
    39  H    0.000000  -0.000000  -0.000000   0.000000   0.000002  -0.000118
    40  H   -0.000000   0.000000   0.000000  -0.000000   0.000000   0.000005
    41  H    0.000000  -0.000000   0.000000  -0.000000  -0.000007  -0.000139
    42  H    0.000000  -0.000000  -0.000004   0.000170   0.002105  -0.006277
               7          8          9         10         11         12
     1  C   -0.000000   0.000001  -0.000002   0.000000   0.000000   0.000000
     2  N    0.000001   0.000000   0.000000  -0.000000   0.000000  -0.000003
     3  C   -0.000132  -0.000047   0.000017  -0.000001  -0.000009   0.000044
     4  C    0.000550   0.000854  -0.000724   0.000068   0.000572  -0.001037
     5  C   -0.041520   0.004543  -0.000407   0.000077   0.003738  -0.034271
     6  N    0.267126  -0.075955  -0.007574  -0.015245  -0.063460   0.249088
     7  C    4.712615   0.515563  -0.067790   0.000302  -0.003985  -0.014394
     8  C    0.515563   4.809354   0.364699  -0.041587  -0.005449  -0.005546
     9  C   -0.067790   0.364699   5.053693   0.337262  -0.032019  -0.001600
    10  C    0.000302  -0.041587   0.337262   5.052475   0.356861  -0.057036
    11  C   -0.003985  -0.005449  -0.032019   0.356861   4.812627   0.519964
    12  C   -0.014394  -0.005546  -0.001600  -0.057036   0.519964   4.683818
    13  C    0.003954  -0.000036  -0.000124   0.008089  -0.042457   0.488009
    14  C   -0.000095  -0.000001   0.000008  -0.000056  -0.036911  -0.019313
    15  C    0.000034  -0.000002  -0.000178   0.007108  -0.026582  -0.043426
    16  C   -0.000455   0.000182   0.003105  -0.062480   0.515264  -0.004636
    17  C   -0.007498   0.520534  -0.059275  -0.002228   0.000019  -0.000132
    18  C   -0.043921  -0.028431   0.007477  -0.000134   0.000001   0.000019
    19  C   -0.020807  -0.035591  -0.000095   0.000035  -0.000004  -0.000142
    20  C    0.508819  -0.052032   0.008644  -0.000012  -0.000013   0.004793
    21  H    0.000000   0.000000   0.000000  -0.000000  -0.000000  -0.000000
    22  H   -0.000004  -0.000002  -0.000002  -0.000000  -0.000000   0.000005
    23  H    0.000000  -0.000000  -0.000000  -0.000000  -0.000000  -0.000000
    24  H   -0.000000  -0.000000   0.000000  -0.000000  -0.000000   0.000000
    25  H   -0.000010   0.000003  -0.000000   0.000000  -0.000000   0.000007
    26  H    0.000006  -0.000000  -0.000000  -0.000000  -0.000001  -0.000008
    27  H    0.002100   0.000251  -0.000253  -0.000121  -0.000137  -0.000485
    28  H   -0.000300   0.000066   0.000008  -0.000005   0.000456   0.006568
    29  H   -0.001495   0.000387  -0.000012  -0.000011  -0.000065   0.003918
    30  H    0.002469  -0.000333   0.000014  -0.000014  -0.000388  -0.006921
    31  H   -0.007867  -0.029160   0.366875  -0.040678  -0.004065  -0.000103
    32  H    0.005819  -0.031351   0.363009  -0.028218   0.004013   0.000148
    33  H    0.000251   0.005012  -0.032997   0.365055  -0.033520   0.004010
    34  H   -0.000532  -0.003611  -0.041473   0.371618  -0.032478  -0.002219
    35  H    0.000034  -0.000000   0.000004  -0.000157   0.004792  -0.040980
    36  H    0.000001  -0.000000  -0.000000   0.000008   0.001006   0.003751
    37  H   -0.000000   0.000000   0.000002  -0.000182   0.003964   0.001123
    38  H   -0.000001  -0.000006   0.000224  -0.010971  -0.044307   0.004428
    39  H    0.004584  -0.036810  -0.011323   0.000367   0.000001  -0.000004
    40  H    0.001111   0.003884  -0.000182   0.000001   0.000000  -0.000000
    41  H    0.003719   0.000986   0.000009  -0.000000   0.000000   0.000001
    42  H   -0.038733   0.005616  -0.000190   0.000003   0.000019   0.000126
              13         14         15         16         17         18
     1  C    0.000000   0.000000  -0.000000  -0.000000   0.000000  -0.000000
     2  N    0.000000   0.000000  -0.000000   0.000000  -0.000000  -0.000000
     3  C    0.000042   0.000001  -0.000000   0.000000   0.000001   0.000000
     4  C   -0.005076  -0.000265   0.000015   0.000010  -0.000030  -0.000001
     5  C   -0.003749   0.000182  -0.000007  -0.000120  -0.000059   0.000023
     6  N   -0.076432   0.005536  -0.000006   0.006509   0.007315  -0.000007
     7  C    0.003954  -0.000095   0.000034  -0.000455  -0.007498  -0.043921
     8  C   -0.000036  -0.000001  -0.000002   0.000182   0.520534  -0.028431
     9  C   -0.000124   0.000008  -0.000178   0.003105  -0.059275   0.007477
    10  C    0.008089  -0.000056   0.007108  -0.062480  -0.002228  -0.000134
    11  C   -0.042457  -0.036911  -0.026582   0.515264   0.000019   0.000001
    12  C    0.488009  -0.019313  -0.043426  -0.004636  -0.000132   0.000019
    13  C    4.953608   0.534035  -0.032897  -0.055282   0.000003  -0.000000
    14  C    0.534035   4.810223   0.544654  -0.031537  -0.000000   0.000000
    15  C   -0.032897   0.544654   4.836525   0.516061  -0.000000   0.000000
    16  C   -0.055282  -0.031537   0.516061   4.928701   0.000004  -0.000000
    17  C    0.000003  -0.000000  -0.000000   0.000004   4.934901   0.512550
    18  C   -0.000000   0.000000   0.000000  -0.000000   0.512550   4.838951
    19  C   -0.000000   0.000000   0.000000  -0.000000  -0.031846   0.543424
    20  C   -0.000099  -0.000001   0.000000  -0.000008  -0.054798  -0.031526
    21  H   -0.000000   0.000000  -0.000000   0.000000   0.000000  -0.000000
    22  H   -0.000001  -0.000000   0.000000   0.000000   0.000000   0.000000
    23  H    0.000000   0.000000  -0.000000  -0.000000  -0.000000   0.000000
    24  H   -0.000000  -0.000000   0.000000   0.000000   0.000000   0.000000
    25  H   -0.000008  -0.000000   0.000000   0.000000   0.000000  -0.000000
    26  H    0.000008   0.000000   0.000000  -0.000000  -0.000000   0.000000
    27  H    0.000074   0.000016  -0.000001   0.000005  -0.000001  -0.000002
    28  H    0.004067  -0.000097  -0.000003  -0.000074   0.000000  -0.000000
    29  H    0.000088  -0.000009   0.000000   0.000002  -0.000082  -0.000011
    30  H    0.000733   0.000131  -0.000007   0.000017   0.000007   0.000000
    31  H   -0.000126  -0.000013  -0.000007   0.000515   0.002601  -0.000281
    32  H    0.000003   0.000000   0.000003  -0.000152  -0.007699   0.000245
    33  H   -0.000163   0.000008   0.000438  -0.007581  -0.000054   0.000004
    34  H   -0.000251   0.000057  -0.000265  -0.002358   0.001667  -0.000075
    35  H    0.360650  -0.040389   0.005324   0.000835  -0.000000   0.000000
    36  H   -0.037035   0.364638  -0.041690   0.004719   0.000000  -0.000000
    37  H    0.004892  -0.042329   0.363740  -0.038058   0.000000  -0.000000
    38  H    0.000533   0.005358  -0.044427   0.367588  -0.000000  -0.000000
    39  H   -0.000000   0.000000  -0.000000  -0.000000   0.362322  -0.045408
    40  H    0.000000   0.000000  -0.000000   0.000000  -0.037236   0.364662
    41  H   -0.000000   0.000000  -0.000000   0.000000   0.004581  -0.041758
    42  H   -0.000010   0.000001   0.000000  -0.000000   0.000698   0.004999
              19         20         21         22         23         24
     1  C    0.000000   0.000000   0.370082   0.394349   0.386468  -0.040000
     2  N   -0.000000   0.000000  -0.056564  -0.042311  -0.030531   0.344929
     3  C    0.000000  -0.000019  -0.007651  -0.003864   0.005289  -0.033991
     4  C    0.000013   0.000414  -0.001986   0.004679   0.000189   0.005608
     5  C   -0.000180  -0.016292   0.000038  -0.000177  -0.000004  -0.000141
     6  N    0.006085  -0.079278  -0.000001   0.000010  -0.000000   0.000001
     7  C   -0.020807   0.508819   0.000000  -0.000004   0.000000  -0.000000
     8  C   -0.035591  -0.052032   0.000000  -0.000002  -0.000000  -0.000000
     9  C   -0.000095   0.008644   0.000000  -0.000002  -0.000000   0.000000
    10  C    0.000035  -0.000012  -0.000000  -0.000000  -0.000000  -0.000000
    11  C   -0.000004  -0.000013  -0.000000  -0.000000  -0.000000  -0.000000
    12  C   -0.000142   0.004793  -0.000000   0.000005  -0.000000   0.000000
    13  C   -0.000000  -0.000099  -0.000000  -0.000001   0.000000  -0.000000
    14  C    0.000000  -0.000001   0.000000  -0.000000   0.000000  -0.000000
    15  C    0.000000   0.000000  -0.000000   0.000000  -0.000000   0.000000
    16  C   -0.000000  -0.000008   0.000000   0.000000  -0.000000   0.000000
    17  C   -0.031846  -0.054798   0.000000   0.000000  -0.000000   0.000000
    18  C    0.543424  -0.031526  -0.000000   0.000000   0.000000   0.000000
    19  C    4.829726   0.519284   0.000000   0.000000  -0.000000  -0.000000
    20  C    0.519284   4.946722  -0.000000  -0.000000   0.000000  -0.000000
    21  H    0.000000  -0.000000   0.692237  -0.051376  -0.039294  -0.002999
    22  H    0.000000  -0.000000  -0.051376   0.605141  -0.027803   0.005755
    23  H   -0.000000   0.000000  -0.039294  -0.027803   0.607980  -0.004813
    24  H   -0.000000  -0.000000  -0.002999   0.005755  -0.004813   0.497161
    25  H   -0.000000  -0.000012   0.015961  -0.001862  -0.000158  -0.001899
    26  H   -0.000000   0.000002  -0.000177   0.000034  -0.000258  -0.005819
    27  H   -0.000005   0.000179   0.000152   0.001137  -0.000097  -0.000065
    28  H    0.000000  -0.000022   0.000337  -0.000260  -0.000062  -0.000029
    29  H   -0.000028   0.003099   0.000019   0.000004  -0.000000   0.000000
    30  H   -0.000025   0.001283   0.000001  -0.000002   0.000000   0.000003
    31  H    0.000035  -0.000130  -0.000001   0.000089   0.000000   0.000000
    32  H    0.000005  -0.000199   0.000000  -0.000000   0.000000  -0.000000
    33  H   -0.000000   0.000008  -0.000000   0.000000  -0.000000   0.000000
    34  H   -0.000009  -0.000229   0.000000   0.000000  -0.000000  -0.000000
    35  H    0.000000   0.000017   0.000000   0.000000  -0.000000   0.000000
    36  H    0.000000  -0.000000   0.000000  -0.000000   0.000000   0.000000
    37  H   -0.000000   0.000000   0.000000   0.000000   0.000000  -0.000000
    38  H    0.000000   0.000000  -0.000000  -0.000000  -0.000000  -0.000000
    39  H    0.004956   0.000562  -0.000000   0.000000  -0.000000   0.000000
    40  H   -0.041930   0.004570   0.000000   0.000000   0.000000  -0.000000
    41  H    0.364066  -0.035248  -0.000000   0.000000  -0.000000   0.000000
    42  H   -0.041673   0.358053  -0.000000   0.000000   0.000000   0.000000
              25         26         27         28         29         30
     1  C   -0.008291   0.006083   0.002251  -0.000583  -0.000017   0.000002
     2  N   -0.056065  -0.035276  -0.002625   0.007469   0.000025  -0.000139
     3  C    0.365903   0.383094  -0.032912  -0.037721  -0.003472  -0.000550
     4  C   -0.056857  -0.035265   0.384053   0.373782  -0.041381  -0.049845
     5  C   -0.001352  -0.003829  -0.036787  -0.029454   0.384766   0.374707
     6  N   -0.000107   0.000076  -0.000456  -0.005778  -0.032058  -0.038420
     7  C   -0.000010   0.000006   0.002100  -0.000300  -0.001495   0.002469
     8  C    0.000003  -0.000000   0.000251   0.000066   0.000387  -0.000333
     9  C   -0.000000  -0.000000  -0.000253   0.000008  -0.000012   0.000014
    10  C    0.000000  -0.000000  -0.000121  -0.000005  -0.000011  -0.000014
    11  C   -0.000000  -0.000001  -0.000137   0.000456  -0.000065  -0.000388
    12  C    0.000007  -0.000008  -0.000485   0.006568   0.003918  -0.006921
    13  C   -0.000008   0.000008   0.000074   0.004067   0.000088   0.000733
    14  C   -0.000000   0.000000   0.000016  -0.000097  -0.000009   0.000131
    15  C    0.000000   0.000000  -0.000001  -0.000003   0.000000  -0.000007
    16  C    0.000000  -0.000000   0.000005  -0.000074   0.000002   0.000017
    17  C    0.000000  -0.000000  -0.000001   0.000000  -0.000082   0.000007
    18  C   -0.000000   0.000000  -0.000002  -0.000000  -0.000011   0.000000
    19  C   -0.000000  -0.000000  -0.000005   0.000000  -0.000028  -0.000025
    20  C   -0.000012   0.000002   0.000179  -0.000022   0.003099   0.001283
    21  H    0.015961  -0.000177   0.000152   0.000337   0.000019   0.000001
    22  H   -0.001862   0.000034   0.001137  -0.000260   0.000004  -0.000002
    23  H   -0.000158  -0.000258  -0.000097  -0.000062  -0.000000   0.000000
    24  H   -0.001899  -0.005819  -0.000065  -0.000029   0.000000   0.000003
    25  H    0.716680  -0.049661  -0.006806   0.007076   0.006349  -0.000376
    26  H   -0.049661   0.648461   0.005647  -0.006461  -0.000980   0.005131
    27  H   -0.006806   0.005647   0.614355  -0.039339  -0.004029   0.005786
    28  H    0.007076  -0.006461  -0.039339   0.600445   0.005982  -0.009540
    29  H    0.006349  -0.000980  -0.004029   0.005982   0.607712  -0.043745
    30  H   -0.000376   0.005131   0.005786  -0.009540  -0.043745   0.658345
    31  H    0.000001   0.000001   0.003025  -0.000005   0.000035   0.000006
    32  H   -0.000000   0.000000  -0.000012  -0.000000   0.000001   0.000000
    33  H    0.000000   0.000000  -0.000003  -0.000000  -0.000000  -0.000000
    34  H   -0.000000  -0.000000   0.000001  -0.000000   0.000000  -0.000001
    35  H    0.000000  -0.000007  -0.000002   0.000406  -0.000035   0.001062
    36  H   -0.000000   0.000000   0.000000  -0.000003  -0.000000   0.000015
    37  H    0.000000   0.000000   0.000000  -0.000000  -0.000000   0.000000
    38  H   -0.000000  -0.000000  -0.000000  -0.000000  -0.000000  -0.000000
    39  H   -0.000000  -0.000000  -0.000002   0.000000   0.000001  -0.000000
    40  H    0.000000   0.000000   0.000000   0.000000  -0.000000   0.000000
    41  H   -0.000000   0.000000  -0.000000  -0.000000   0.000012   0.000000
    42  H   -0.000002   0.000001   0.000002  -0.000001   0.000781  -0.000394
              31         32         33         34         35         36
     1  C   -0.000013   0.000000  -0.000000  -0.000000   0.000000  -0.000000
     2  N   -0.000000  -0.000000  -0.000000   0.000000  -0.000001  -0.000000
     3  C    0.000002  -0.000000   0.000000   0.000000   0.000004   0.000000
     4  C    0.000352   0.000009  -0.000000   0.000003  -0.000711  -0.000007
     5  C   -0.000166  -0.000001   0.000008  -0.000007   0.002430   0.000007
     6  N    0.003793   0.000115   0.000010   0.000585  -0.010293  -0.000127
     7  C   -0.007867   0.005819   0.000251  -0.000532   0.000034   0.000001
     8  C   -0.029160  -0.031351   0.005012  -0.003611  -0.000000  -0.000000
     9  C    0.366875   0.363009  -0.032997  -0.041473   0.000004  -0.000000
    10  C   -0.040678  -0.028218   0.365055   0.371618  -0.000157   0.000008
    11  C   -0.004065   0.004013  -0.033520  -0.032478   0.004792   0.001006
    12  C   -0.000103   0.000148   0.004010  -0.002219  -0.040980   0.003751
    13  C   -0.000126   0.000003  -0.000163  -0.000251   0.360650  -0.037035
    14  C   -0.000013   0.000000   0.000008   0.000057  -0.040389   0.364638
    15  C   -0.000007   0.000003   0.000438  -0.000265   0.005324  -0.041690
    16  C    0.000515  -0.000152  -0.007581  -0.002358   0.000835   0.004719
    17  C    0.002601  -0.007699  -0.000054   0.001667  -0.000000   0.000000
    18  C   -0.000281   0.000245   0.000004  -0.000075   0.000000  -0.000000
    19  C    0.000035   0.000005  -0.000000  -0.000009   0.000000   0.000000
    20  C   -0.000130  -0.000199   0.000008  -0.000229   0.000017  -0.000000
    21  H   -0.000001   0.000000  -0.000000   0.000000   0.000000   0.000000
    22  H    0.000089  -0.000000   0.000000   0.000000   0.000000  -0.000000
    23  H    0.000000   0.000000  -0.000000  -0.000000  -0.000000   0.000000
    24  H    0.000000  -0.000000   0.000000  -0.000000   0.000000   0.000000
    25  H    0.000001  -0.000000   0.000000  -0.000000   0.000000  -0.000000
    26  H    0.000001   0.000000   0.000000  -0.000000  -0.000007   0.000000
    27  H    0.003025  -0.000012  -0.000003   0.000001  -0.000002   0.000000
    28  H   -0.000005  -0.000000  -0.000000  -0.000000   0.000406  -0.000003
    29  H    0.000035   0.000001  -0.000000   0.000000  -0.000035  -0.000000
    30  H    0.000006   0.000000  -0.000000  -0.000001   0.001062   0.000015
    31  H    0.623573  -0.036699  -0.001535   0.005994   0.000004   0.000000
    32  H   -0.036699   0.637787  -0.006781  -0.001773  -0.000000   0.000000
    33  H   -0.001535  -0.006781   0.639083  -0.036875   0.000003  -0.000000
    34  H    0.005994  -0.001773  -0.036875   0.619750   0.000003  -0.000000
    35  H    0.000004  -0.000000   0.000003   0.000003   0.646987  -0.007207
    36  H    0.000000   0.000000  -0.000000  -0.000000  -0.007207   0.638358
    37  H    0.000000  -0.000000  -0.000015   0.000003  -0.000239  -0.006052
    38  H    0.000017  -0.000017   0.005455   0.001136   0.000017  -0.000241
    39  H    0.000198   0.006809  -0.000033   0.000144  -0.000000  -0.000000
    40  H    0.000003  -0.000012  -0.000000   0.000001   0.000000   0.000000
    41  H   -0.000000  -0.000000   0.000000  -0.000000  -0.000000  -0.000000
    42  H   -0.000001   0.000003  -0.000000   0.000002   0.000009  -0.000000
              37         38         39         40         41         42
     1  C   -0.000000   0.000000   0.000000  -0.000000   0.000000   0.000000
     2  N    0.000000  -0.000000  -0.000000   0.000000  -0.000000  -0.000000
     3  C   -0.000000  -0.000000  -0.000000   0.000000   0.000000  -0.000004
     4  C    0.000000  -0.000001   0.000000  -0.000000  -0.000000   0.000170
     5  C   -0.000000   0.000002   0.000002   0.000000  -0.000007   0.002105
     6  N    0.000006  -0.000085  -0.000118   0.000005  -0.000139  -0.006277
     7  C   -0.000000  -0.000001   0.004584   0.001111   0.003719  -0.038733
     8  C    0.000000  -0.000006  -0.036810   0.003884   0.000986   0.005616
     9  C    0.000002   0.000224  -0.011323  -0.000182   0.000009  -0.000190
    10  C   -0.000182  -0.010971   0.000367   0.000001  -0.000000   0.000003
    11  C    0.003964  -0.044307   0.000001   0.000000   0.000000   0.000019
    12  C    0.001123   0.004428  -0.000004  -0.000000   0.000001   0.000126
    13  C    0.004892   0.000533  -0.000000   0.000000  -0.000000  -0.000010
    14  C   -0.042329   0.005358   0.000000   0.000000   0.000000   0.000001
    15  C    0.363740  -0.044427  -0.000000  -0.000000  -0.000000   0.000000
    16  C   -0.038058   0.367588  -0.000000   0.000000   0.000000  -0.000000
    17  C    0.000000  -0.000000   0.362322  -0.037236   0.004581   0.000698
    18  C   -0.000000  -0.000000  -0.045408   0.364662  -0.041758   0.004999
    19  C   -0.000000   0.000000   0.004956  -0.041930   0.364066  -0.041673
    20  C    0.000000   0.000000   0.000562   0.004570  -0.035248   0.358053
    21  H    0.000000  -0.000000  -0.000000   0.000000  -0.000000  -0.000000
    22  H    0.000000  -0.000000   0.000000   0.000000   0.000000   0.000000
    23  H    0.000000  -0.000000  -0.000000   0.000000  -0.000000   0.000000
    24  H   -0.000000  -0.000000   0.000000  -0.000000   0.000000   0.000000
    25  H    0.000000  -0.000000  -0.000000   0.000000  -0.000000  -0.000002
    26  H    0.000000  -0.000000  -0.000000   0.000000   0.000000   0.000001
    27  H    0.000000  -0.000000  -0.000002   0.000000  -0.000000   0.000002
    28  H   -0.000000  -0.000000   0.000000   0.000000  -0.000000  -0.000001
[...]
    31  H    0.000193   0.000006  -0.000093   0.000158  -0.000575   0.000406
    32  H    0.000092  -0.000011  -0.000004  -0.000547  -0.005563   0.000706
    33  H    0.000260  -0.000146   0.001216  -0.010913   0.000239   0.000046
    34  H   -0.001576   0.000825  -0.001120  -0.005657   0.000344  -0.000455
    35  H    0.424166  -0.019653   0.003006   0.000596  -0.000019   0.000008
    36  H   -0.027326   0.398557  -0.032307   0.003448  -0.000000   0.000000
    37  H    0.007595  -0.038198   0.415607  -0.040504  -0.000000   0.000000
    38  H   -0.000870   0.005350  -0.034903   0.407964   0.000011  -0.000001
    39  H   -0.000005   0.000001  -0.000001   0.000016   0.404571  -0.036692
    40  H    0.000001  -0.000000  -0.000000  -0.000000  -0.038521   0.413393
    41  H   -0.000002  -0.000001   0.000000  -0.000000   0.002817  -0.031724
    42  H    0.000675  -0.000095   0.000001  -0.000042   0.000305   0.002861
              19         20         21         22         23         24
     1  C    0.000000  -0.000001   0.409261   0.419207   0.406691  -0.044393
     2  N   -0.000000  -0.000004  -0.065628  -0.038523  -0.030405   0.368785
     3  C   -0.000041   0.000807   0.020560  -0.028324   0.007989  -0.063498
     4  C    0.000556  -0.001880  -0.023974   0.026958   0.001018   0.020614
     5  C   -0.001912   0.001618   0.003051  -0.003436  -0.000086  -0.002060
     6  N    0.012919  -0.072260  -0.000034   0.000061  -0.000000   0.000031
     7  C   -0.008899   0.383374  -0.000022   0.000019   0.000000  -0.000000
     8  C   -0.080436   0.016349   0.000005  -0.000006  -0.000000  -0.000000
     9  C   -0.005847   0.016739   0.000001  -0.000009   0.000000  -0.000000
    10  C    0.000509   0.001799  -0.000000   0.000003  -0.000000   0.000000
    11  C    0.000283   0.001744   0.000002  -0.000017   0.000000  -0.000002
    12  C   -0.001498  -0.002523  -0.000020   0.000124   0.000000  -0.000006
    13  C   -0.000978   0.008389  -0.000014   0.000097   0.000001   0.000011
    14  C    0.000060  -0.001108   0.000001  -0.000007   0.000000  -0.000000
    15  C    0.000012   0.000279  -0.000000   0.000001  -0.000000   0.000000
    16  C    0.000096  -0.002049   0.000000  -0.000001   0.000000  -0.000000
    17  C    0.010838  -0.135414  -0.000000   0.000000  -0.000000  -0.000000
    18  C    0.479095   0.015443   0.000000  -0.000000  -0.000000   0.000000
    19  C    5.015139   0.379062   0.000000   0.000000  -0.000000  -0.000000
    20  C    0.379062   5.233092   0.000003  -0.000004  -0.000000  -0.000001
    21  H    0.000000   0.000003   0.612759  -0.056435  -0.032685  -0.008142
    22  H    0.000000  -0.000004  -0.056435   0.556202  -0.017733   0.009524
    23  H   -0.000000  -0.000000  -0.032685  -0.017733   0.532513  -0.008310
    24  H   -0.000000  -0.000001  -0.008142   0.009524  -0.008310   0.535014
    25  H    0.000016   0.000139   0.013743  -0.002309  -0.000148  -0.003307
    26  H   -0.000002  -0.000050   0.000383  -0.000510  -0.000268  -0.011362
    27  H   -0.000132   0.000219   0.001823  -0.008198   0.000149  -0.000610
    28  H    0.000013   0.000105   0.001486  -0.003313  -0.000142  -0.000772
    29  H    0.002720  -0.021550  -0.000041   0.000074  -0.000001  -0.000000
    30  H   -0.002555   0.001856  -0.000008  -0.000027   0.000001   0.000043
    31  H   -0.000330   0.001923  -0.000000   0.000035  -0.000000   0.000000
    32  H   -0.000132  -0.000008  -0.000000   0.000000  -0.000000   0.000000
    33  H   -0.000036   0.000177   0.000000  -0.000000  -0.000000   0.000000
    34  H    0.000272  -0.001128  -0.000000   0.000000   0.000000  -0.000000
    35  H   -0.000101   0.000443  -0.000000   0.000001  -0.000000   0.000010
    36  H   -0.000000  -0.000003   0.000000  -0.000000  -0.000000  -0.000000
    37  H    0.000000   0.000001  -0.000000   0.000000  -0.000000   0.000000
    38  H    0.000001  -0.000005  -0.000000   0.000000   0.000000   0.000000
    39  H    0.005979  -0.002561  -0.000000   0.000000   0.000000   0.000000
    40  H   -0.036706   0.006478  -0.000000  -0.000000   0.000000   0.000000
    41  H    0.399603  -0.026604  -0.000000   0.000000   0.000000   0.000000
    42  H   -0.024145   0.402550   0.000001  -0.000000  -0.000000  -0.000000
              25         26         27         28         29         30
     1  C   -0.020260   0.010755  -0.000328  -0.002799   0.000228  -0.000116
     2  N   -0.058456  -0.027840  -0.001655   0.017186   0.000220  -0.000355
     3  C    0.521166   0.395652  -0.028236  -0.024698  -0.014445   0.010707
     4  C   -0.164972  -0.015816   0.387057   0.387960   0.013211  -0.099804
     5  C    0.030955  -0.005168  -0.026687  -0.019242   0.397083   0.474830
     6  N   -0.000627  -0.000357   0.005322  -0.002072  -0.025077  -0.058487
     7  C   -0.000730   0.000243   0.003160  -0.001441   0.002344   0.003276
     8  C    0.000109  -0.000003  -0.000817   0.000314   0.003738  -0.002330
     9  C   -0.000010  -0.000003  -0.000040   0.000089  -0.000911   0.000562
    10  C    0.000001  -0.000002   0.000061   0.000013  -0.000008  -0.000162
    11  C    0.000018  -0.000003  -0.001466   0.000471   0.000190  -0.001923
    12  C   -0.000482   0.000635   0.000602  -0.007821   0.006269  -0.009052
    13  C    0.000040  -0.000156   0.000286  -0.006259   0.003070  -0.014363
    14  C    0.000026  -0.000189  -0.000786   0.004166   0.000289  -0.004109
    15  C   -0.000001   0.000003   0.000179  -0.000295  -0.000033   0.000479
    16  C    0.000000   0.000001  -0.000318   0.000407   0.000118  -0.000611
    17  C    0.000002   0.000000  -0.000112   0.000011   0.001321  -0.000403
    18  C    0.000000  -0.000000   0.000039  -0.000001  -0.000982   0.000316
    19  C    0.000016  -0.000002  -0.000132   0.000013   0.002720  -0.002555
    20  C    0.000139  -0.000050   0.000219   0.000105  -0.021550   0.001856
    21  H    0.013743   0.000383   0.001823   0.001486  -0.000041  -0.000008
    22  H   -0.002309  -0.000510  -0.008198  -0.003313   0.000074  -0.000027
    23  H   -0.000148  -0.000268   0.000149  -0.000142  -0.000001   0.000001
    24  H   -0.003307  -0.011362  -0.000610  -0.000772  -0.000000   0.000043
    25  H    0.560435  -0.030518  -0.001168   0.009699  -0.000360  -0.000363
    26  H   -0.030518   0.548052   0.004830  -0.003724   0.001520   0.001180
    27  H   -0.001168   0.004830   0.536438  -0.018864  -0.005945   0.007906
    28  H    0.009699  -0.003724  -0.018864   0.483574   0.002187  -0.000751
    29  H   -0.000360   0.001520  -0.005945   0.002187   0.482774  -0.032254
    30  H   -0.000363   0.001180   0.007906  -0.000751  -0.032254   0.545403
    31  H    0.000001   0.000000   0.000526  -0.000003   0.000111   0.000088
    32  H   -0.000000   0.000000   0.000043  -0.000003  -0.000028   0.000014
    33  H   -0.000000   0.000000   0.000041   0.000003  -0.000006   0.000008
    34  H    0.000000  -0.000000  -0.000013  -0.000001   0.000009  -0.000013
    35  H   -0.000035   0.000326   0.000713  -0.003485   0.000519   0.001750
    36  H    0.000000  -0.000005  -0.000001   0.000114  -0.000002   0.000005
    37  H   -0.000000   0.000000   0.000000  -0.000002  -0.000000   0.000003
    38  H   -0.000000   0.000000  -0.000002  -0.000005   0.000000  -0.000003
    39  H   -0.000000   0.000000  -0.000003  -0.000000   0.000012  -0.000003
    40  H   -0.000000   0.000000   0.000000  -0.000000  -0.000004   0.000002
    41  H   -0.000000   0.000000   0.000000  -0.000000   0.000030   0.000017
    42  H    0.000063  -0.000012   0.000018   0.000035  -0.004235   0.000745
              31         32         33         34         35         36
     1  C    0.000012  -0.000000  -0.000000  -0.000000  -0.000004  -0.000000
     2  N   -0.000003  -0.000000  -0.000000  -0.000000  -0.000062   0.000002
     3  C    0.000110   0.000004   0.000005  -0.000001   0.001552   0.000016
     4  C   -0.000054  -0.000035  -0.000082   0.000030  -0.016564  -0.000059
     5  C    0.000125  -0.000018   0.000237  -0.000163   0.019301   0.000189
     6  N    0.002519   0.002269   0.001123  -0.001728  -0.010275  -0.000250
     7  C   -0.012589   0.012375  -0.000784   0.004534  -0.000728   0.000043
     8  C   -0.066377  -0.055034   0.014068  -0.013181  -0.000166  -0.000001
     9  C    0.465952   0.449320  -0.052045  -0.026888  -0.000064  -0.000004
    10  C   -0.054415  -0.068610   0.440472   0.432471  -0.000087   0.000073
    11  C   -0.009836   0.012751  -0.061862  -0.060016  -0.000747   0.001337
    12  C    0.003043  -0.001228   0.007467  -0.000138  -0.058180   0.005945
    13  C    0.000193   0.000092   0.000260  -0.001576   0.424166  -0.027326
    14  C    0.000006  -0.000011  -0.000146   0.000825  -0.019653   0.398557
    15  C   -0.000093  -0.000004   0.001216  -0.001120   0.003006  -0.032307
    16  C    0.000158  -0.000547  -0.010913  -0.005657   0.000596   0.003448
    17  C   -0.000575  -0.005563   0.000239   0.000344  -0.000019  -0.000000
    18  C    0.000406   0.000706   0.000046  -0.000455   0.000008   0.000000
    19  C   -0.000330  -0.000132  -0.000036   0.000272  -0.000101  -0.000000
    20  C    0.001923  -0.000008   0.000177  -0.001128   0.000443  -0.000003
    21  H   -0.000000  -0.000000   0.000000  -0.000000  -0.000000   0.000000
    22  H    0.000035   0.000000  -0.000000   0.000000   0.000001  -0.000000
    23  H   -0.000000  -0.000000  -0.000000   0.000000  -0.000000  -0.000000
    24  H    0.000000   0.000000   0.000000  -0.000000   0.000010  -0.000000
    25  H    0.000001  -0.000000  -0.000000   0.000000  -0.000035   0.000000
    26  H    0.000000   0.000000   0.000000  -0.000000   0.000326  -0.000005
    27  H    0.000526   0.000043   0.000041  -0.000013   0.000713  -0.000001
    28  H   -0.000003  -0.000003   0.000003  -0.000001  -0.003485   0.000114
    29  H    0.000111  -0.000028  -0.000006   0.000009   0.000519  -0.000002
    30  H    0.000088   0.000014   0.000008  -0.000013   0.001750   0.000005
    31  H    0.504819  -0.017123   0.000265   0.005819   0.000032   0.000001
    32  H   -0.017123   0.527496  -0.005642  -0.002118   0.000001   0.000000
    33  H    0.000265  -0.005642   0.544002  -0.032745   0.000019  -0.000000
    34  H    0.005819  -0.002118  -0.032745   0.532681   0.000001   0.000001
    35  H    0.000032   0.000001   0.000019   0.000001   0.503408  -0.003636
    36  H    0.000001   0.000000  -0.000000   0.000001  -0.003636   0.518384
    37  H   -0.000001  -0.000000  -0.000030  -0.000033  -0.000280  -0.003606
    38  H   -0.000011  -0.000041  -0.000148   0.000102   0.000057  -0.000363
    39  H   -0.000086   0.002319  -0.000098   0.000641  -0.000000  -0.000000
    40  H    0.000014  -0.000035  -0.000001  -0.000001   0.000000   0.000000
    41  H   -0.000002   0.000000   0.000000  -0.000002   0.000000  -0.000000
    42  H    0.000021   0.000016  -0.000000  -0.000009   0.000078   0.000000
              37         38         39         40         41         42
     1  C    0.000000   0.000000   0.000000  -0.000000   0.000000  -0.000000
     2  N   -0.000000  -0.000000   0.000000  -0.000000   0.000000  -0.000002
     3  C    0.000000  -0.000000  -0.000000   0.000000  -0.000000   0.000313
     4  C   -0.000001  -0.000004   0.000007  -0.000001   0.000002  -0.000674
     5  C   -0.000003   0.000028   0.000023  -0.000007   0.000080   0.006983
     6  N    0.000027  -0.000360  -0.000362   0.000022  -0.000277  -0.004663
     7  C   -0.000004   0.000010   0.016387  -0.000581   0.004513  -0.034886
     8  C   -0.000007  -0.000038  -0.042360   0.006950   0.001711   0.004659
     9  C    0.000024   0.000924  -0.005216  -0.000170   0.000101  -0.000254
    10  C   -0.000213  -0.002399  -0.001159   0.000033  -0.000010   0.000034
    11  C    0.007596  -0.051693   0.000247   0.000002   0.000006  -0.000027
    12  C   -0.000946   0.015444  -0.000035  -0.000002   0.000035  -0.000960
    13  C    0.007595  -0.000870  -0.000005   0.000001  -0.000002   0.000675
    14  C   -0.038198   0.005350   0.000001  -0.000000  -0.000001  -0.000095
    15  C    0.415607  -0.034903  -0.000001  -0.000000   0.000000   0.000001
    16  C   -0.040504   0.407964   0.000016  -0.000000  -0.000000  -0.000042
    17  C   -0.000000   0.000011   0.404571  -0.038521   0.002817   0.000305
    18  C    0.000000  -0.000001  -0.036692   0.413393  -0.031724   0.002861
    19  C    0.000000   0.000001   0.005979  -0.036706   0.399603  -0.024145
    20  C    0.000001  -0.000005  -0.002561   0.006478  -0.026604   0.402550
    21  H   -0.000000  -0.000000  -0.000000  -0.000000  -0.000000   0.000001
    22  H    0.000000   0.000000   0.000000  -0.000000   0.000000  -0.000000
    23  H   -0.000000   0.000000   0.000000   0.000000   0.000000  -0.000000
    24  H    0.000000   0.000000   0.000000   0.000000   0.000000  -0.000000
    25  H   -0.000000  -0.000000  -0.000000  -0.000000  -0.000000   0.000063
    26  H    0.000000   0.000000   0.000000   0.000000   0.000000  -0.000012
    27  H    0.000000  -0.000002  -0.000003   0.000000   0.000000   0.000018
    28  H   -0.000002  -0.000005  -0.000000  -0.000000  -0.000000   0.000035
    29  H   -0.000000   0.000000   0.000012  -0.000004   0.000030  -0.004235
    30  H    0.000003  -0.000003  -0.000003   0.000002   0.000017   0.000745
    31  H   -0.000001  -0.000011  -0.000086   0.000014  -0.000002   0.000021
    32  H   -0.000000  -0.000041   0.002319  -0.000035   0.000000   0.000016
    33  H   -0.000030  -0.000148  -0.000098  -0.000001   0.000000  -0.000000
    34  H   -0.000033   0.000102   0.000641  -0.000001  -0.000002  -0.000009
    35  H   -0.000280   0.000057  -0.000000   0.000000   0.000000   0.000078
    36  H   -0.003606  -0.000363  -0.000000   0.000000  -0.000000   0.000000
    37  H    0.519111  -0.004405  -0.000000  -0.000000   0.000000   0.000000
    38  H   -0.004405   0.526393   0.000001  -0.000000  -0.000000  -0.000000
    39  H   -0.000000   0.000001   0.526374  -0.003921  -0.000348   0.000047
    40  H   -0.000000  -0.000000  -0.003921   0.516867  -0.003745  -0.000246
    41  H    0.000000  -0.000000  -0.000348  -0.003745   0.515646  -0.003199
    42  H    0.000000  -0.000000   0.000047  -0.000246  -0.003199   0.491794
 Mulliken charges:
               1
     1  C   -0.330662
     2  N   -0.355301
     3  C   -0.222044
     4  C   -0.248890
     5  C   -0.413596
     6  N   -0.142134
     7  C    0.101538
     8  C    0.072114
     9  C   -0.396888
    10  C   -0.321489
    11  C    0.046094
    12  C    0.168860
    13  C   -0.216494
    14  C   -0.149971
    15  C   -0.165856
    16  C   -0.181323
    17  C   -0.141913
    18  C   -0.156443
    19  C   -0.143424
    20  C   -0.205437
    21  H    0.123928
    22  H    0.146545
    23  H    0.141415
    24  H    0.208432
    25  H    0.147332
    26  H    0.132409
    27  H    0.145966
    28  H    0.187862
    29  H    0.187842
    30  H    0.178500
    31  H    0.175320
    32  H    0.148774
    33  H    0.154888
    34  H    0.169256
    35  H    0.158100
    36  H    0.139446
    37  H    0.138267
    38  H    0.138965
    39  H    0.136226
    40  H    0.140178
    41  H    0.141354
    42  H    0.162252
 Sum of Mulliken charges =  -0.00000
 Mulliken charges with hydrogens summed into heavy atoms:
               1
     1  C    0.081226
     2  N   -0.146869
     3  C    0.057697
     4  C    0.084938
     5  C   -0.047254
     6  N   -0.142134
     7  C    0.101538
     8  C    0.072114
     9  C   -0.072794
    10  C    0.002655
    11  C    0.046094
    12  C    0.168860
    13  C   -0.058394
    14  C   -0.010525
    15  C   -0.027589
    16  C   -0.042357
    17  C   -0.005686
    18  C   -0.016264
    19  C   -0.002070
    20  C   -0.043185
 Electronic spatial extent (au):  <R**2>=           6288.3464
 Charge=             -0.0000 electrons
 Dipole moment (field-independent basis, Debye):
    X=             -0.6275    Y=             -1.4113    Z=              0.0788  Tot=              1.5465
 Quadrupole moment (field-independent basis, Debye-Ang):
   XX=           -114.5709   YY=           -118.5281   ZZ=           -115.4635
   XY=              4.5881   XZ=              6.4898   YZ=              3.0288
 Traceless Quadrupole moment (field-independent basis, Debye-Ang):
   XX=              1.6166   YY=             -2.3406   ZZ=              0.7240
   XY=              4.5881   XZ=              6.4898   YZ=              3.0288
 Octapole moment (field-independent basis, Debye-Ang**2):
  XXX=            -37.5791  YYY=             22.4703  ZZZ=              2.4003  XYY=             -2.3795
  XXY=            -49.7724  XXZ=              8.1203  XZZ=             -9.1229  YZZ=             -7.0659
  YYZ=             -9.2372  XYZ=             14.0532
 Hexadecapole moment (field-independent basis, Debye-Ang**3):
 XXXX=          -4433.6579 YYYY=          -2848.5379 ZZZZ=          -1006.3195 XXXY=            116.5775
 XXXZ=             58.1875 YYYX=             17.6516 YYYZ=             12.9906 ZZZX=             21.1209
 ZZZY=             22.5030 XXYY=          -1220.6979 XXZZ=           -912.1293 YYZZ=           -646.1821
 XXYZ=             18.7058 YYXZ=             15.7385 ZZXY=            -15.5501
 N-N= 1.516954256041D+03 E-N=-4.909644650906D+03  KE= 8.040984522796D+02
 Unable to Open any file for archive entry.
 1\1\GINC-NOTCH344\SP\RM062X\def2TZVP\C18H22N2\U6032257\23-Sep-2022\0\\
 # M062X/def2tzvp int=(grid=ultrafine) nmr=giao guess=read geom=check\\
 SecN5.xyz\\0,1\C,0,-0.9086982747,-2.1270990588,4.6418064237\N,0,-1.212
 9757473,-3.2080136461,3.7109307767\C,0,-0.167945692,-3.4412439524,2.71
 64314373\C,0,-0.1421741225,-2.3517114146,1.6427553451\C,0,0.8813444859
 ,-2.6642962964,0.5491893439\N,0,0.9632787996,-1.6062077544,-0.45800172
 72\C,0,2.2570023125,-1.3481258549,-0.9977517772\C,0,2.6646574844,-0.01
 44345115,-1.1595093023\C,0,1.6953642331,1.0735291259,-0.799298028\C,0,
 0.531895572,1.138330414,-1.795805212\C,0,-0.3867414224,-0.0714169793,-
 1.8811591151\C,0,-0.181270995,-1.324989443,-1.2580905741\C,0,-1.156007
 7138,-2.326608719,-1.4269502853\C,0,-2.3045948631,-2.117056174,-2.1804
 126116\C,0,-2.5055457653,-0.8898897704,-2.8072351868\C,0,-1.5459058951
 ,0.1033138867,-2.6492117239\C,0,3.9380452665,0.2481561495,-1.668252351
 7\C,0,4.8139269097,-0.7894392534,-1.9882073343\C,0,4.4102953655,-2.111
 6480441,-1.8061637764\C,0,3.1341207039,-2.390286597,-1.3186537319\H,0,
 0.0850845874,-2.2101479741,5.1202062096\H,0,-0.9452490202,-1.163416051
 8,4.1249468789\H,0,-1.6670926872,-2.1023326165,5.4294152128\H,0,-1.354
 0447332,-4.0636396396,4.2399190782\H,0,0.8395216275,-3.5247728953,3.17
 18880246\H,0,-0.3772511935,-4.4055255247,2.2368675783\H,0,0.1182693611
 ,-1.3818003973,2.0797152012\H,0,-1.146562444,-2.2519355256,1.222986384
 3\H,0,1.8734663611,-2.732216852,1.0025874039\H,0,0.6780892686,-3.65645
 99577,0.1126802254\H,0,1.3025233179,0.8935570296,0.2078264845\H,0,2.20
 54766621,2.0420041992,-0.7890883223\H,0,-0.0896869391,2.0110999046,-1.
 5603215595\H,0,0.951234099,1.3291317831,-2.7928109005\H,0,-1.007460347
 1,-3.2945881689,-0.965508857\H,0,-3.031827996,-2.9170032727,-2.2814619
 833\H,0,-3.3947815148,-0.7055296498,-3.4013180379\H,0,-1.6977831126,1.
 0695256022,-3.1248315722\H,0,4.2510417841,1.2812417673,-1.7952149241\H
 ,0,5.8047828192,-0.5667972778,-2.3715840239\H,0,5.0816382375,-2.928149
 7942,-2.0543625424\H,0,2.81124122,-3.4190067945,-1.1967465471\\Version
 =ES64L-G16RevC.01\State=1-A\HF=-808.5932633\RMSD=1.755e-09\Dipole=0.32
 12973,-0.1845748,0.4826113\Quadrupole=-4.0329527,5.2139336,-1.180981,0
 .5712983,0.3749306,-4.4135396\PG=C01 [X(C18H22N2)]\\@
 The archive entry for this job was punched.


  THE LARGE PRINT GIVETH,
  AND THE SMALL PRINT TAKETH AWAY.

                     -- TOM WAITS
 Job cpu time:       0 days  2 hours 41 minutes 17.0 seconds.
 Elapsed time:       0 days  0 hours  3 minutes  1.6 seconds.
 File lengths (MBytes):  RWF=    318 Int=      0 D2E=      0 Chk=     53 Scr=      1
 Normal termination of Gaussian 16 at Fri Sep 23 16:32:29 2022.
