 Entering Gaussian System, Link 0=/uufs/chpc.utah.edu/sys/installdir/gaussian16/C01/AVX2/g16/g16
 Input=SecN5_clust-11.com
 Output=SecN5_clust-11.log
 Initial command:
 /uufs/chpc.utah.edu/sys/installdir/gaussian16/C01/AVX2/g16/l1.exe "/scratch/local/u6032257/5771820/notchpeak.peaks/Gau-1894134.inp" -scrdir="/scratch/local/u6032257/5771820/notchpeak.peaks/"
 Entering Link 1 = /uufs/chpc.utah.edu/sys/installdir/gaussian16/C01/AVX2/g16/l1.exe PID=   1894136.
  
 Copyright (c) 1988-2019, Gaussian, Inc.  All Rights Reserved.
  
 This is part of the Gaussian(R) 16 program.  It is based on
 the Gaussian(R) 09 system (copyright 2009, Gaussian, Inc.),
 the Gaussian(R) 03 system (copyright 2003, Gaussian, Inc.),
 the Gaussian(R) 98 system (copyright 1998, Gaussian, Inc.),
 the Gaussian(R) 94 system (copyright 1995, Gaussian, Inc.),
 the Gaussian 92(TM) system (copyright 1992, Gaussian, Inc.),
 the Gaussian 90(TM) system (copyright 1990, Gaussian, Inc.),
 the Gaussian 88(TM) system (copyright 1988, Gaussian, Inc.),
 the Gaussian 86(TM) system (copyright 1986, Carnegie Mellon
 University), and the Gaussian 82(TM) system (copyright 1983,
 Carnegie Mellon University). Gaussian is a federally registered
 trademark of Gaussian, Inc.
  
 This software contains proprietary and confidential information,
 including trade secrets, belonging to Gaussian, Inc.
  
 This software is provided under written license and may be
 used, copied, transmitted, or stored only in accord with that
 written license.
  
 The following legend is applicable only to US Government
 contracts under FAR:
  
                    RESTRICTED RIGHTS LEGEND
  
 Use, reproduction and disclosure by the US Government is
 subject to restrictions as set forth in subparagraphs (a)
 and (c) of the Commercial Computer Software - Restricted
 Rights clause in FAR 52.227-19.
  
 Gaussian, Inc.
 340 Quinnipiac St., Bldg. 40, Wallingford CT 06492
  
  
 ---------------------------------------------------------------
 Warning -- This program may not be used in any manner that
 competes with the business of Gaussian, Inc. or will provide
 assistance to any competitor of Gaussian, Inc.  The licensee
 of this program is prohibited from giving any competitor of
 Gaussian, Inc. access to this program.  By using this program,
 the user acknowledges that Gaussian, Inc. is engaged in the
 business of creating and licensing software in the field of
 computational chemistry and represents and warrants to the
 licensee that it is not a competitor of Gaussian, Inc. and that
 it will not use this program in any manner prohibited above.
 ---------------------------------------------------------------
  

 Cite this work as:
 Gaussian 16, Revision C.01,
 M. J. Frisch, G. W. Trucks, H. B. Schlegel, G. E. Scuseria, 
 M. A. Robb, J. R. Cheeseman, G. Scalmani, V. Barone, 
 G. A. Petersson, H. Nakatsuji, X. Li, M. Caricato, A. V. Marenich, 
 J. Bloino, B. G. Janesko, R. Gomperts, B. Mennucci, H. P. Hratchian, 
 J. V. Ortiz, A. F. Izmaylov, J. L. Sonnenberg, D. Williams-Young, 
 F. Ding, F. Lipparini, F. Egidi, J. Goings, B. Peng, A. Petrone, 
 T. Henderson, D. Ranasinghe, V. G. Zakrzewski, J. Gao, N. Rega, 
 G. Zheng, W. Liang, M. Hada, M. Ehara, K. Toyota, R. Fukuda, 
 J. Hasegawa, M. Ishida, T. Nakajima, Y. Honda, O. Kitao, H. Nakai, 
 T. Vreven, K. Throssell, J. A. Montgomery, Jr., J. E. Peralta, 
 F. Ogliaro, M. J. Bearpark, J. J. Heyd, E. N. Brothers, K. N. Kudin, 
 V. N. Staroverov, T. A. Keith, R. Kobayashi, J. Normand, 
 K. Raghavachari, A. P. Rendell, J. C. Burant, S. S. Iyengar, 
 J. Tomasi, M. Cossi, J. M. Millam, M. Klene, C. Adamo, R. Cammi, 
 J. W. Ochterski, R. L. Martin, K. Morokuma, O. Farkas, 
 J. B. Foresman, and D. J. Fox, Gaussian, Inc., Wallingford CT, 2019.
 
 ******************************************
 Gaussian 16:  ES64L-G16RevC.01  3-Jul-2019
                23-Sep-2022 
 ******************************************
 %NProcShared=56
 Will use up to   56 processors via shared memory.
 %mem=16GB
 %chk=SecN5_clust-11.chk
 ----------------------------------------------------------------------
 # B3LYP/6-31G(d,p) empiricaldispersion=GD3BJ int=(grid=ultrafine) opt 
 freq=noraman
 ----------------------------------------------------------------------
 1/18=20,19=15,26=4,38=1/1,3;
 2/9=110,12=2,17=6,18=5,40=1/2;
 3/5=1,6=6,7=101,11=2,25=1,30=1,71=1,74=-5,75=-5,124=41/1,2,3;
 4//1;
 5/5=2,38=5/2;
 6/7=2,8=2,9=2,10=2,28=1/1;
 7//1,2,3,16;
 1/18=20,19=15,26=4/3(2);
 2/9=110/2;
 99//99;
 2/9=110/2;
 3/5=1,6=6,7=101,11=2,25=1,30=1,71=1,74=-5,75=-5,124=41/1,2,3;
 4/5=5,16=3,69=1/1;
 5/5=2,38=5/2;
 7//1,2,3,16;
 1/18=20,19=15,26=4/3(-5);
 2/9=110/2;
 6/7=2,8=2,9=2,10=2,19=2,28=1/1;
 99/9=1/99;
 ---------
 SecN5.xyz
 ---------
 Symbolic Z-matrix:
 Charge =  0 Multiplicity = 1
 C                     0.4131   -3.832     4.6496 
 N                     0.5903   -3.2166    3.3409 
 C                    -0.6762   -3.0734    2.6358 
 C                    -0.4266   -2.5548    1.2101 
 C                     0.2189   -1.1521    1.1423 
 N                     0.5151   -0.7544   -0.2554 
 C                     1.8837   -0.8975   -0.5607 
 C                     2.3752   -1.8074   -1.5187 
 C                     1.4086   -2.5867   -2.3833 
 C                     0.5225   -1.6651   -3.2188 
 C                    -0.6251   -0.9614   -2.5013 
 C                    -0.5912   -0.5794   -1.1297 
 C                    -1.7304    0.079    -0.6251 
 C                    -2.8552    0.3404   -1.4007 
 C                    -2.8712   -0.0403   -2.7326 
 C                    -1.7621   -0.6771   -3.2733 
 C                     3.7577   -1.9388   -1.7098 
 C                     4.6596   -1.1825   -0.9668 
 C                     4.1864   -0.2773   -0.0245 
 C                     2.814    -0.1432    0.1714 
 H                     1.3785   -3.9421    5.1459 
 H                    -0.2166   -3.2141    5.2928 
 H                    -0.034    -4.825     4.5723 
 H                     1.2784   -3.6906    2.7675 
 H                    -1.2037   -4.0288    2.5876 
 H                    -1.3118   -2.3664    3.1737 
 H                     0.171    -3.2736    0.6489 
 H                    -1.3976   -2.5172    0.7162 
 H                    -0.4079   -0.4237    1.654 
 H                     1.1092   -1.1629    1.7744 
 H                     1.9706   -3.2382   -3.0539 
 H                     0.8155   -3.261    -1.764 
 H                     1.1356   -0.9042   -3.705 
 H                     0.108    -2.2573   -4.0363 
 H                    -1.7508    0.4314    0.3918 
 H                    -3.7039    0.8507   -0.9692 
 H                    -3.7356    0.1651   -3.348 
 H                    -1.7905   -0.9569   -4.3168 
 H                     4.1396   -2.627    -2.4499 
 H                     5.7226   -1.2936   -1.1268 
 H                     4.8761    0.3172    0.5563 
 H                     2.4545    0.558     0.9092 
 

 GradGradGradGradGradGradGradGradGradGradGradGradGradGradGradGradGradGrad
 Berny optimization.
 Initialization pass.
                           ----------------------------
                           !    Initial Parameters    !
                           ! (Angstroms and Degrees)  !
 --------------------------                            --------------------------
 ! Name  Definition              Value          Derivative Info.                !
 --------------------------------------------------------------------------------
 ! R1    R(1,2)                  1.457          estimate D2E/DX2                !
 ! R2    R(1,21)                 1.0911         estimate D2E/DX2                !
 ! R3    R(1,22)                 1.0918         estimate D2E/DX2                !
 ! R4    R(1,23)                 1.0918         estimate D2E/DX2                !
 ! R5    R(2,3)                  1.4566         estimate D2E/DX2                !
 ! R6    R(2,24)                 1.0134         estimate D2E/DX2                !
 ! R7    R(3,4)                  1.5375         estimate D2E/DX2                !
 ! R8    R(3,25)                 1.0924         estimate D2E/DX2                !
 ! R9    R(3,26)                 1.0923         estimate D2E/DX2                !
 ! R10   R(4,5)                  1.5456         estimate D2E/DX2                !
 ! R11   R(4,27)                 1.0903         estimate D2E/DX2                !
 ! R12   R(4,28)                 1.09           estimate D2E/DX2                !
 ! R13   R(5,6)                  1.4831         estimate D2E/DX2                !
 ! R14   R(5,29)                 1.0887         estimate D2E/DX2                !
 ! R15   R(5,30)                 1.0919         estimate D2E/DX2                !
 ! R16   R(6,7)                  1.4095         estimate D2E/DX2                !
 ! R17   R(6,12)                 1.4209         estimate D2E/DX2                !
 ! R18   R(7,8)                  1.4097         estimate D2E/DX2                !
 ! R19   R(7,20)                 1.4037         estimate D2E/DX2                !
 ! R20   R(8,9)                  1.513          estimate D2E/DX2                !
 ! R21   R(8,17)                 1.4018         estimate D2E/DX2                !
 ! R22   R(9,10)                 1.5273         estimate D2E/DX2                !
 ! R23   R(9,31)                 1.0909         estimate D2E/DX2                !
 ! R24   R(9,32)                 1.0909         estimate D2E/DX2                !
 ! R25   R(10,11)                1.5254         estimate D2E/DX2                !
 ! R26   R(10,33)                1.0914         estimate D2E/DX2                !
 ! R27   R(10,34)                1.0912         estimate D2E/DX2                !
 ! R28   R(11,12)                1.4242         estimate D2E/DX2                !
 ! R29   R(11,16)                1.4034         estimate D2E/DX2                !
 ! R30   R(12,13)                1.4092         estimate D2E/DX2                !
 ! R31   R(13,14)                1.3911         estimate D2E/DX2                !
 ! R32   R(13,35)                1.0764         estimate D2E/DX2                !
 ! R33   R(14,15)                1.3853         estimate D2E/DX2                !
 ! R34   R(14,36)                1.0802         estimate D2E/DX2                !
 ! R35   R(15,16)                1.3885         estimate D2E/DX2                !
 ! R36   R(15,37)                1.0808         estimate D2E/DX2                !
 ! R37   R(16,38)                1.0807         estimate D2E/DX2                !
 ! R38   R(17,18)                1.3919         estimate D2E/DX2                !
 ! R39   R(17,39)                1.0804         estimate D2E/DX2                !
 ! R40   R(18,19)                1.3897         estimate D2E/DX2                !
 ! R41   R(18,40)                1.0807         estimate D2E/DX2                !
 ! R42   R(19,20)                1.3928         estimate D2E/DX2                !
 ! R43   R(19,41)                1.08           estimate D2E/DX2                !
 ! R44   R(20,42)                1.0795         estimate D2E/DX2                !
 ! A1    A(2,1,21)             110.0957         estimate D2E/DX2                !
 ! A2    A(2,1,22)             111.1163         estimate D2E/DX2                !
 ! A3    A(2,1,23)             111.7392         estimate D2E/DX2                !
 ! A4    A(21,1,22)            107.425          estimate D2E/DX2                !
 ! A5    A(21,1,23)            107.6247         estimate D2E/DX2                !
 ! A6    A(22,1,23)            108.6793         estimate D2E/DX2                !
 ! A7    A(1,2,3)              111.7514         estimate D2E/DX2                !
 ! A8    A(1,2,24)             113.1574         estimate D2E/DX2                !
 ! A9    A(3,2,24)             111.2524         estimate D2E/DX2                !
 ! A10   A(2,3,4)              109.9306         estimate D2E/DX2                !
 ! A11   A(2,3,25)             110.8077         estimate D2E/DX2                !
 ! A12   A(2,3,26)             109.3412         estimate D2E/DX2                !
 ! A13   A(4,3,25)             109.4191         estimate D2E/DX2                !
 ! A14   A(4,3,26)             109.4375         estimate D2E/DX2                !
 ! A15   A(25,3,26)            107.8675         estimate D2E/DX2                !
 ! A16   A(3,4,5)              114.4941         estimate D2E/DX2                !
 ! A17   A(3,4,27)             110.115          estimate D2E/DX2                !
 ! A18   A(3,4,28)             106.6892         estimate D2E/DX2                !
 ! A19   A(5,4,27)             110.2936         estimate D2E/DX2                !
 ! A20   A(5,4,28)             108.7143         estimate D2E/DX2                !
 ! A21   A(27,4,28)            106.1271         estimate D2E/DX2                !
 ! A22   A(4,5,6)              111.6            estimate D2E/DX2                !
 ! A23   A(4,5,29)             110.251          estimate D2E/DX2                !
 ! A24   A(4,5,30)             107.8275         estimate D2E/DX2                !
 ! A25   A(6,5,29)             112.2425         estimate D2E/DX2                !
 ! A26   A(6,5,30)             112.6671         estimate D2E/DX2                !
 ! A27   A(29,5,30)            101.7684         estimate D2E/DX2                !
 ! A28   A(5,6,7)              111.7669         estimate D2E/DX2                !
 ! A29   A(5,6,12)             117.2213         estimate D2E/DX2                !
 ! A30   A(7,6,12)             129.4363         estimate D2E/DX2                !
 ! A31   A(6,7,8)              123.4534         estimate D2E/DX2                !
 ! A32   A(6,7,20)             118.4233         estimate D2E/DX2                !
 ! A33   A(8,7,20)             118.0477         estimate D2E/DX2                !
 ! A34   A(7,8,9)              119.8714         estimate D2E/DX2                !
 ! A35   A(7,8,17)             119.8014         estimate D2E/DX2                !
 ! A36   A(9,8,17)             120.257          estimate D2E/DX2                !
 ! A37   A(8,9,10)             111.8676         estimate D2E/DX2                !
 ! A38   A(8,9,31)             109.255          estimate D2E/DX2                !
 ! A39   A(8,9,32)             109.9568         estimate D2E/DX2                !
 ! A40   A(10,9,31)            108.8439         estimate D2E/DX2                !
 ! A41   A(10,9,32)            111.6            estimate D2E/DX2                !
 ! A42   A(31,9,32)            105.0661         estimate D2E/DX2                !
 ! A43   A(9,10,11)            117.2279         estimate D2E/DX2                !
 ! A44   A(9,10,33)            109.7833         estimate D2E/DX2                !
 ! A45   A(9,10,34)            107.6216         estimate D2E/DX2                !
 ! A46   A(11,10,33)           108.0906         estimate D2E/DX2                !
 ! A47   A(11,10,34)           108.4786         estimate D2E/DX2                !
 ! A48   A(33,10,34)           104.9504         estimate D2E/DX2                !
 ! A49   A(10,11,12)           123.9733         estimate D2E/DX2                !
 ! A50   A(10,11,16)           116.3726         estimate D2E/DX2                !
 ! A51   A(12,11,16)           119.6511         estimate D2E/DX2                !
 ! A52   A(6,12,11)            125.3163         estimate D2E/DX2                !
 ! A53   A(6,12,13)            117.8156         estimate D2E/DX2                !
 ! A54   A(11,12,13)           116.8026         estimate D2E/DX2                !
 ! A55   A(12,13,14)           122.8068         estimate D2E/DX2                !
 ! A56   A(12,13,35)           120.4341         estimate D2E/DX2                !
 ! A57   A(14,13,35)           116.7362         estimate D2E/DX2                !
 ! A58   A(13,14,15)           119.5875         estimate D2E/DX2                !
 ! A59   A(13,14,36)           120.0884         estimate D2E/DX2                !
 ! A60   A(15,14,36)           120.3175         estimate D2E/DX2                !
 ! A61   A(14,15,16)           119.4192         estimate D2E/DX2                !
 ! A62   A(14,15,37)           120.2949         estimate D2E/DX2                !
 ! A63   A(16,15,37)           120.2833         estimate D2E/DX2                !
 ! A64   A(11,16,15)           121.7242         estimate D2E/DX2                !
 ! A65   A(11,16,38)           119.9985         estimate D2E/DX2                !
 ! A66   A(15,16,38)           118.2772         estimate D2E/DX2                !
 ! A67   A(8,17,18)            121.019          estimate D2E/DX2                !
 ! A68   A(8,17,39)            120.1134         estimate D2E/DX2                !
 ! A69   A(18,17,39)           118.8644         estimate D2E/DX2                !
 ! A70   A(17,18,19)           119.6851         estimate D2E/DX2                !
 ! A71   A(17,18,40)           120.1623         estimate D2E/DX2                !
 ! A72   A(19,18,40)           120.1512         estimate D2E/DX2                !
 ! A73   A(18,19,20)           119.5783         estimate D2E/DX2                !
 ! A74   A(18,19,41)           120.3806         estimate D2E/DX2                !
 ! A75   A(20,19,41)           120.0408         estimate D2E/DX2                !
 ! A76   A(7,20,19)            121.8671         estimate D2E/DX2                !
 ! A77   A(7,20,42)            118.9999         estimate D2E/DX2                !
 ! A78   A(19,20,42)           119.1327         estimate D2E/DX2                !
 ! D1    D(21,1,2,3)           179.0123         estimate D2E/DX2                !
 ! D2    D(21,1,2,24)           52.4912         estimate D2E/DX2                !
 ! D3    D(22,1,2,3)           -62.0985         estimate D2E/DX2                !
 ! D4    D(22,1,2,24)          171.3804         estimate D2E/DX2                !
 ! D5    D(23,1,2,3)            59.4758         estimate D2E/DX2                !
 ! D6    D(23,1,2,24)          -67.0453         estimate D2E/DX2                !
 ! D7    D(1,2,3,4)           -174.2682         estimate D2E/DX2                !
 ! D8    D(1,2,3,25)           -53.1955         estimate D2E/DX2                !
 ! D9    D(1,2,3,26)            65.5712         estimate D2E/DX2                !
 ! D10   D(24,2,3,4)           -46.7165         estimate D2E/DX2                !
 ! D11   D(24,2,3,25)           74.3562         estimate D2E/DX2                !
 ! D12   D(24,2,3,26)         -166.8771         estimate D2E/DX2                !
 ! D13   D(2,3,4,5)            -62.577          estimate D2E/DX2                !
 ! D14   D(2,3,4,27)            62.3652         estimate D2E/DX2                !
 ! D15   D(2,3,4,28)           177.113          estimate D2E/DX2                !
 ! D16   D(25,3,4,5)           175.52           estimate D2E/DX2                !
 ! D17   D(25,3,4,27)          -59.5378         estimate D2E/DX2                !
 ! D18   D(25,3,4,28)           55.21           estimate D2E/DX2                !
 ! D19   D(26,3,4,5)            57.5252         estimate D2E/DX2                !
 ! D20   D(26,3,4,27)         -177.5326         estimate D2E/DX2                !
 ! D21   D(26,3,4,28)          -62.7848         estimate D2E/DX2                !
 ! D22   D(3,4,5,6)            176.131          estimate D2E/DX2                !
 ! D23   D(3,4,5,29)           -58.4175         estimate D2E/DX2                !
 ! D24   D(3,4,5,30)            51.887          estimate D2E/DX2                !
 ! D25   D(27,4,5,6)            51.283          estimate D2E/DX2                !
 ! D26   D(27,4,5,29)          176.7345         estimate D2E/DX2                !
 ! D27   D(27,4,5,30)          -72.961          estimate D2E/DX2                !
 ! D28   D(28,4,5,6)           -64.6903         estimate D2E/DX2                !
 ! D29   D(28,4,5,29)           60.7613         estimate D2E/DX2                !
 ! D30   D(28,4,5,30)          171.0658         estimate D2E/DX2                !
 ! D31   D(4,5,6,7)           -102.4643         estimate D2E/DX2                !
 ! D32   D(4,5,6,12)            64.5883         estimate D2E/DX2                !
 ! D33   D(29,5,6,7)           133.1943         estimate D2E/DX2                !
 ! D34   D(29,5,6,12)          -59.753          estimate D2E/DX2                !
 ! D35   D(30,5,6,7)            19.0151         estimate D2E/DX2                !
 ! D36   D(30,5,6,12)         -173.9323         estimate D2E/DX2                !
 ! D37   D(5,6,7,8)            115.4187         estimate D2E/DX2                !
 ! D38   D(5,6,7,20)           -61.352          estimate D2E/DX2                !
 ! D39   D(12,6,7,8)           -49.6314         estimate D2E/DX2                !
 ! D40   D(12,6,7,20)          133.5979         estimate D2E/DX2                !
 ! D41   D(5,6,12,11)         -141.33           estimate D2E/DX2                !
 ! D42   D(5,6,12,13)           41.7167         estimate D2E/DX2                !
 ! D43   D(7,6,12,11)           23.0403         estimate D2E/DX2                !
 ! D44   D(7,6,12,13)         -153.913          estimate D2E/DX2                !
 ! D45   D(6,7,8,9)              6.522          estimate D2E/DX2                !
 ! D46   D(6,7,8,17)          -176.516          estimate D2E/DX2                !
 ! D47   D(20,7,8,9)          -176.696          estimate D2E/DX2                !
 ! D48   D(20,7,8,17)            0.266          estimate D2E/DX2                !
 ! D49   D(6,7,20,19)          176.7579         estimate D2E/DX2                !
 ! D50   D(6,7,20,42)           -3.0347         estimate D2E/DX2                !
 ! D51   D(8,7,20,19)           -0.1894         estimate D2E/DX2                !
 ! D52   D(8,7,20,42)         -179.982          estimate D2E/DX2                !
 ! D53   D(7,8,9,10)            59.7418         estimate D2E/DX2                !
 ! D54   D(7,8,9,31)          -179.671          estimate D2E/DX2                !
 ! D55   D(7,8,9,32)           -64.8511         estimate D2E/DX2                !
 ! D56   D(17,8,9,10)         -117.2062         estimate D2E/DX2                !
 ! D57   D(17,8,9,31)            3.381          estimate D2E/DX2                !
 ! D58   D(17,8,9,32)          118.2009         estimate D2E/DX2                !
 ! D59   D(7,8,17,18)           -0.0191         estimate D2E/DX2                !
 ! D60   D(7,8,17,39)         -179.3553         estimate D2E/DX2                !
 ! D61   D(9,8,17,18)          176.9311         estimate D2E/DX2                !
 ! D62   D(9,8,17,39)           -2.4051         estimate D2E/DX2                !
 ! D63   D(8,9,10,11)          -76.2471         estimate D2E/DX2                !
 ! D64   D(8,9,10,33)           47.5461         estimate D2E/DX2                !
 ! D65   D(8,9,10,34)          161.2438         estimate D2E/DX2                !
 ! D66   D(31,9,10,11)         162.9266         estimate D2E/DX2                !
 ! D67   D(31,9,10,33)         -73.2802         estimate D2E/DX2                !
 ! D68   D(31,9,10,34)          40.4176         estimate D2E/DX2                !
 ! D69   D(32,9,10,11)          47.426          estimate D2E/DX2                !
 ! D70   D(32,9,10,33)         171.2191         estimate D2E/DX2                !
 ! D71   D(32,9,10,34)         -75.0831         estimate D2E/DX2                !
 ! D72   D(9,10,11,12)          30.6369         estimate D2E/DX2                !
 ! D73   D(9,10,11,16)        -150.0074         estimate D2E/DX2                !
 ! D74   D(33,10,11,12)        -94.0103         estimate D2E/DX2                !
 ! D75   D(33,10,11,16)         85.3454         estimate D2E/DX2                !
 ! D76   D(34,10,11,12)        152.7039         estimate D2E/DX2                !
 ! D77   D(34,10,11,16)        -27.9404         estimate D2E/DX2                !
 ! D78   D(10,11,12,6)           2.2147         estimate D2E/DX2                !
 ! D79   D(10,11,12,13)        179.1957         estimate D2E/DX2                !
 ! D80   D(16,11,12,6)        -177.1211         estimate D2E/DX2                !
 ! D81   D(16,11,12,13)         -0.1401         estimate D2E/DX2                !
 ! D82   D(10,11,16,15)        179.9671         estimate D2E/DX2                !
 ! D83   D(10,11,16,38)          0.093          estimate D2E/DX2                !
 ! D84   D(12,11,16,15)         -0.6477         estimate D2E/DX2                !
 ! D85   D(12,11,16,38)        179.4782         estimate D2E/DX2                !
 ! D86   D(6,12,13,14)         178.0685         estimate D2E/DX2                !
 ! D87   D(6,12,13,35)          -0.1324         estimate D2E/DX2                !
 ! D88   D(11,12,13,14)          0.8536         estimate D2E/DX2                !
 ! D89   D(11,12,13,35)       -177.3474         estimate D2E/DX2                !
 ! D90   D(12,13,14,15)         -0.7797         estimate D2E/DX2                !
 ! D91   D(12,13,14,36)       -179.8468         estimate D2E/DX2                !
 ! D92   D(35,13,14,15)        177.4834         estimate D2E/DX2                !
 ! D93   D(35,13,14,36)         -1.5837         estimate D2E/DX2                !
 ! D94   D(13,14,15,16)         -0.0374         estimate D2E/DX2                !
 ! D95   D(13,14,15,37)       -179.4475         estimate D2E/DX2                !
 ! D96   D(36,14,15,16)        179.0276         estimate D2E/DX2                !
 ! D97   D(36,14,15,37)         -0.3826         estimate D2E/DX2                !
 ! D98   D(14,15,16,11)          0.7435         estimate D2E/DX2                !
 ! D99   D(14,15,16,38)       -179.3803         estimate D2E/DX2                !
 ! D100  D(37,15,16,11)       -179.8463         estimate D2E/DX2                !
 ! D101  D(37,15,16,38)          0.0299         estimate D2E/DX2                !
 ! D102  D(8,17,18,19)          -0.315          estimate D2E/DX2                !
 ! D103  D(8,17,18,40)        -179.8852         estimate D2E/DX2                !
 ! D104  D(39,17,18,19)        179.0293         estimate D2E/DX2                !
 ! D105  D(39,17,18,40)         -0.5408         estimate D2E/DX2                !
 ! D106  D(17,18,19,20)          0.3912         estimate D2E/DX2                !
 ! D107  D(17,18,19,41)       -179.8323         estimate D2E/DX2                !
 ! D108  D(40,18,19,20)        179.9614         estimate D2E/DX2                !
 ! D109  D(40,18,19,41)         -0.2621         estimate D2E/DX2                !
 ! D110  D(18,19,20,7)          -0.1398         estimate D2E/DX2                !
 ! D111  D(18,19,20,42)        179.6525         estimate D2E/DX2                !
 ! D112  D(41,19,20,7)        -179.9171         estimate D2E/DX2                !
 ! D113  D(41,19,20,42)         -0.1248         estimate D2E/DX2                !
 --------------------------------------------------------------------------------
 Trust Radius=3.00D-01 FncErr=1.00D-07 GrdErr=1.00D-06 EigMax=2.50D+02 EigMin=1.00D-04
 Number of steps in this run=    245 maximum allowed number of steps=    252.
 GradGradGradGradGradGradGradGradGradGradGradGradGradGradGradGradGradGrad

                          Input orientation:                          
 ---------------------------------------------------------------------
 Center     Atomic      Atomic             Coordinates (Angstroms)
 Number     Number       Type             X           Y           Z
 ---------------------------------------------------------------------
      1          6           0        0.413100   -3.832000    4.649600
      2          7           0        0.590300   -3.216600    3.340900
      3          6           0       -0.676200   -3.073400    2.635800
      4          6           0       -0.426600   -2.554800    1.210100
      5          6           0        0.218900   -1.152100    1.142300
      6          7           0        0.515100   -0.754400   -0.255400
      7          6           0        1.883700   -0.897500   -0.560700
      8          6           0        2.375200   -1.807400   -1.518700
      9          6           0        1.408600   -2.586700   -2.383300
     10          6           0        0.522500   -1.665100   -3.218800
     11          6           0       -0.625100   -0.961400   -2.501300
     12          6           0       -0.591200   -0.579400   -1.129700
     13          6           0       -1.730400    0.079000   -0.625100
     14          6           0       -2.855200    0.340400   -1.400700
     15          6           0       -2.871200   -0.040300   -2.732600
     16          6           0       -1.762100   -0.677100   -3.273300
     17          6           0        3.757700   -1.938800   -1.709800
     18          6           0        4.659600   -1.182500   -0.966800
     19          6           0        4.186400   -0.277300   -0.024500
     20          6           0        2.814000   -0.143200    0.171400
     21          1           0        1.378500   -3.942100    5.145900
     22          1           0       -0.216600   -3.214100    5.292800
     23          1           0       -0.034000   -4.825000    4.572300
     24          1           0        1.278400   -3.690600    2.767500
     25          1           0       -1.203700   -4.028800    2.587600
     26          1           0       -1.311800   -2.366400    3.173700
     27          1           0        0.171000   -3.273600    0.648900
     28          1           0       -1.397600   -2.517200    0.716200
     29          1           0       -0.407900   -0.423700    1.654000
     30          1           0        1.109200   -1.162900    1.774400
     31          1           0        1.970600   -3.238200   -3.053900
     32          1           0        0.815500   -3.261000   -1.764000
     33          1           0        1.135600   -0.904200   -3.705000
     34          1           0        0.108000   -2.257300   -4.036300
     35          1           0       -1.750800    0.431400    0.391800
     36          1           0       -3.703900    0.850700   -0.969200
     37          1           0       -3.735600    0.165100   -3.348000
     38          1           0       -1.790500   -0.956900   -4.316800
     39          1           0        4.139600   -2.627000   -2.449900
     40          1           0        5.722600   -1.293600   -1.126800
     41          1           0        4.876100    0.317200    0.556300
     42          1           0        2.454500    0.558000    0.909200
 ---------------------------------------------------------------------
                    Distance matrix (angstroms):
                    1          2          3          4          5
     1  C    0.000000
     2  N    1.456988   0.000000
     3  C    2.411937   1.456604   0.000000
     4  C    3.763841   2.452014   1.537487   0.000000
     5  C    4.418227   3.038740   2.592902   1.545585   0.000000
     6  N    5.791464   4.359066   3.893070   2.505180   1.483059
     7  C    6.158018   4.719491   4.637374   3.349606   2.395118
     8  C    6.782092   5.365391   5.307887   3.981839   3.487115
     9  C    7.211343   5.816602   5.456614   4.035034   3.987897
    10  C    8.162055   6.741025   6.139750   4.616006   4.401651
    11  C    7.775190   6.379218   5.554543   4.043861   3.744933
    12  C    6.707334   5.323254   4.517328   3.066588   2.479159
    13  C    6.907458   5.654713   4.656440   3.464788   2.905010
    14  C    8.043434   6.856128   5.717989   4.593099   4.259636
    15  C    8.925273   7.678429   6.545032   5.276709   5.079337
    16  C    8.800979   7.465286   6.468299   5.040852   4.862870
    17  C    7.430513   6.097111   6.311183   5.139420   4.612643
    18  C    7.523069   6.265225   6.710066   5.700134   4.916202
    19  C    6.980036   5.735620   6.208079   5.290653   4.227027
    20  C    6.279000   4.943315   5.180814   4.170875   2.948740
    21  H    1.091070   2.098960   3.358130   4.546813   5.015734
    22  H    1.091801   2.112110   2.700125   4.140920   4.654906
    23  H    1.091752   2.119681   2.688969   4.075823   5.031804
    24  H    2.076304   1.013383   2.053958   2.573434   3.194964
    25  H    2.627664   2.108451   1.092414   2.161959   3.519671
    26  H    2.702137   2.090163   1.092324   2.162128   2.818537
    27  H    4.046730   2.725055   2.169239   1.090296   2.178646
    28  H    4.525369   3.366000   2.124768   1.090042   2.158270
    29  H    4.611309   3.412085   2.838455   2.176921   1.088706
    30  H    3.984398   2.634552   2.753121   2.148139   1.091925
    31  H    7.881771   6.542107   6.277372   4.939160   5.002835
    32  H    6.451529   5.110058   4.649581   3.299515   3.640051
    33  H    8.882193   7.435674   6.942175   5.415086   4.939444
    34  H    8.832759   7.454928   6.767415   5.281952   5.296382
    35  H    6.402180   5.242694   4.298130   3.367568   2.636369
    36  H    8.393347   7.318473   6.128748   5.204563   4.884465
    37  H    9.856476   8.653941   7.460139   6.254887   6.126653
    38  H    9.670490   8.331556   7.352543   5.912709   5.820444
    39  H    8.108127   6.817516   7.018230   5.852435   5.518253
    40  H    8.246276   7.070981   7.633445   6.698088   5.954792
    41  H    7.340936   6.213680   6.829972   6.065844   4.918511
    42  H    6.118007   4.861688   5.096027   4.252153   2.824303
                    6          7          8          9         10
     6  N    0.000000
     7  C    1.409522   0.000000
     8  C    2.482883   1.409700   0.000000
     9  C    2.946799   2.530017   1.512996   0.000000
    10  C    3.100189   3.083435   2.518549   1.527279   0.000000
    11  C    2.527246   3.172395   3.268489   2.606043   1.525446
    12  C    1.420889   2.559312   3.234012   3.098381   2.604498
    13  C    2.423531   3.744251   4.605755   4.477783   3.852885
    14  C    3.724140   4.969423   5.655445   5.264353   4.328553
    15  C    4.255994   5.297265   5.667531   4.992279   3.793885
    16  C    3.781446   4.549575   4.633945   3.806837   2.489681
    17  C    3.746003   2.432409   1.401817   2.528171   3.580295
    18  C    4.226848   2.819887   2.431785   3.814086   4.734977
    19  C    3.709364   2.444297   2.802550   4.314329   5.055067
    20  C    2.416747   1.403708   2.412166   3.804252   4.365846
    21  H    6.330950   6.487688   7.068752   7.650285   8.711238
    22  H    6.112940   6.636366   7.422450   7.871303   8.682915
    23  H    6.338610   6.741700   7.211826   7.447916   8.425906
    24  H    4.282735   4.386879   4.808422   5.269373   6.364733
    25  H    4.664613   5.408223   5.882588   5.797725   6.502394
    26  H    4.206523   5.129779   5.993752   6.191071   6.687341
    27  H    2.698617   3.168963   3.421510   3.346300   4.203561
    28  H    2.776669   3.875672   4.442141   4.181685   4.460615
    29  H    2.146416   3.221927   4.441430   4.927274   5.113795
    30  H    2.154046   2.474465   3.586453   4.404920   5.052570
    31  H    4.014890   3.420888   2.137225   1.090871   2.144488
    32  H    2.940945   2.859216   2.146110   1.090862   2.179263
    33  H    3.508162   3.232077   2.670634   2.156902   1.091444
    34  H    4.088966   4.133033   3.417735   2.128961   1.091246
    35  H    2.638047   3.985326   5.068147   5.176091   4.753908
    36  H    4.570100   5.868931   6.657545   6.320843   5.408549
    37  H    5.336488   6.361972   6.676749   5.913192   4.636566
    38  H    4.674587   5.254670   5.089771   4.077856   2.656524
    39  H    4.632436   3.413112   2.156846   2.732109   3.820978
    40  H    5.307366   3.900579   3.409203   4.675628   5.617430
    41  H    4.563497   3.417257   3.882532   5.394204   6.093827
    42  H    2.615332   2.145903   3.390591   4.671574   5.071014
                   11         12         13         14         15
    11  C    0.000000
    12  C    1.424205   0.000000
    13  C    2.413348   1.409216   0.000000
    14  C    2.807018   2.458693   1.391064   0.000000
    15  C    2.438625   2.838718   2.399419   1.385332   0.000000
    16  C    1.403417   2.444499   2.754207   2.395163   1.388515
    17  C    4.559684   4.593192   5.947044   7.001481   6.970849
    18  C    5.507416   5.287832   6.522288   7.679825   7.818927
    19  C    5.454637   4.913064   5.957868   7.201362   7.563048
    20  C    4.431725   3.671310   4.619021   5.902982   6.384771
    21  H    8.448589   7.387193   7.690185   8.895054   9.764976
    22  H    8.123394   6.952012   6.939570   8.024938   9.029228
    23  H    8.081622   7.130806   7.344383   8.385538   9.181755
    24  H    6.231541   5.325705   5.896821   7.121060   7.797113
    25  H    5.969977   5.108017   5.241457   6.141978   6.855160
    26  H    5.886528   4.715070   4.537190   5.534798   6.536578
    27  H    3.987957   3.317089   4.059350   5.140014   5.580659
    28  H    3.656443   2.795120   2.941105   3.843402   4.494525
    29  H    4.195571   2.794070   2.682538   3.988022   5.045503
    30  H    4.618442   3.415498   3.919597   5.296946   6.116933
    31  H    3.496690   4.163482   5.531753   6.231195   5.811439
    32  H    2.811957   3.093884   4.351356   5.155202   4.990276
    33  H    2.133596   3.117612   4.320466   4.773396   4.212639
    34  H    2.138461   3.428200   4.524853   4.740779   3.935779
    35  H    3.402517   2.163643   1.076423   2.107377   3.352562
    36  H    3.887164   3.429263   2.146772   1.080227   2.144027
    37  H    3.414837   3.919488   3.382665   2.144251   1.080784
    38  H    2.157364   3.426140   3.834755   3.364552   2.125502
    39  H    5.047696   5.321284   6.716341   7.670301   7.478118
    40  H    6.503299   6.354066   7.594929   8.736340   8.831917
    41  H    6.422378   5.791188   6.715526   7.975173   8.424092
    42  H    4.839837   3.837588   4.482957   5.794472   6.479487
                   16         17         18         19         20
    16  C    0.000000
    17  C    5.874063   0.000000
    18  C    6.842047   1.391928   0.000000
    19  C    6.789639   2.405120   1.389689   0.000000
    20  C    5.752538   2.766525   2.404555   1.392782   0.000000
    21  H    9.560676   7.528242   7.466332   6.931674   6.421678
    22  H    9.066587   8.152169   8.190685   7.502325   6.696544
    23  H    9.041285   7.884917   8.122765   7.721653   7.028391
    24  H    7.403856   5.409431   5.627440   5.282267   4.656377
    25  H    6.774648   6.888486   7.423845   7.067531   6.089156
    26  H    6.679844   7.052038   7.362267   6.695000   5.565847
    27  H    5.085503   4.495506   5.208715   5.055167   4.124665
    28  H    4.408508   5.726879   6.426787   6.061918   4.865209
    29  H    5.116283   5.564432   5.755339   4.893505   3.557727
    30  H    5.827490   4.444797   4.485521   3.672804   2.552595
    31  H    4.532154   2.586266   3.976507   4.780582   4.548946
    32  H    3.949500   3.226095   4.442161   4.826105   4.178571
    33  H    2.938470   3.453495   4.471439   4.821459   4.292158
    34  H    2.564464   4.339857   5.594112   6.053783   5.431077
    35  H    3.829081   6.354380   6.748607   5.993822   4.606098
    36  H    3.378407   8.000330   8.607092   8.026311   6.691175
    37  H    2.146994   7.953593   8.829809   8.602294   7.441672
    38  H    1.080734   6.208309   7.271670   7.389792   6.481317
    39  H    6.269782   1.080377   2.134611   3.377254   3.846777
    40  H    7.810779   2.148721   1.080700   2.146588   3.386547
    41  H    7.727882   3.387560   2.148443   1.080021   2.147643
    42  H    6.066176   3.845972   3.378044   2.137522   1.079477
                   21         22         23         24         25
    21  H    0.000000
    22  H    1.759519   0.000000
    23  H    1.761728   1.774109   0.000000
    24  H    2.393754   2.973082   2.503310   0.000000
    25  H    3.635956   2.992693   2.437451   2.511486   0.000000
    26  H    3.689189   2.531530   3.103799   2.937284   1.766005
    27  H    4.704036   4.660427   4.223971   2.426662   2.493729
    28  H    5.418424   4.777625   4.696259   3.570109   2.413435
    29  H    5.269130   4.589531   5.294121   3.841370   3.808104
    30  H    4.377612   4.283025   4.748276   2.721056   3.771496
    31  H    8.251229   8.628547   8.043338   5.879839   6.521330
    32  H    6.966174   7.132030   6.581523   4.575295   4.858303
    33  H    9.360890   9.387464   9.233327   7.048239   7.404881
    34  H    9.421545   9.383653   8.984500   7.050949   6.981033
    35  H    7.177847   6.297876   6.932079   5.640114   5.001424
    36  H    9.284189   8.239934   8.740135   7.707765   6.535392
    37  H   10.731703   9.922992  10.066484   8.798066   7.696146
    38  H   10.416174   9.995825   9.852085   8.190151   7.579686
    39  H    8.188366   8.903402   8.459399   6.044748   7.476116
    40  H    8.076665   8.953976   8.836796   6.376684   8.321762
    41  H    7.172118   7.800007   8.165755   5.821968   7.744538
    42  H    6.273620   6.370201   6.970482   4.784046   6.102310
                   26         27         28         29         30
    26  H    0.000000
    27  H    3.065342   0.000000
    28  H    2.463617   1.742750   0.000000
    29  H    2.626901   3.076895   2.498343   0.000000
    30  H    3.044289   2.569440   3.039402   1.691894   0.000000
    31  H    7.093461   4.117103   5.106688   5.978545   5.325539
    32  H    5.450376   2.497524   3.406236   4.607570   4.124143
    33  H    7.446094   5.049847   5.344706   5.597513   5.485567
    34  H    7.349274   4.794573   4.992057   6.000646   5.997028
    35  H    3.969808   4.181679   2.987345   2.031680   3.554290
    36  H    5.765023   5.885826   4.416146   4.401010   5.894731
    37  H    7.403774   6.562118   5.401731   6.036578   7.174584
    38  H    7.636978   5.820031   5.283937   6.151938   6.749327
    39  H    7.836488   5.076459   6.379407   6.509707   5.401076
    40  H    8.314324   6.155792   7.455944   6.787680   5.451376
    41  H    7.234818   5.919492   6.886124   5.447434   4.226582
    42  H    5.278740   4.468029   4.932827   3.116375   2.349447
                   31         32         33         34         35
    31  H    0.000000
    32  H    1.731652   0.000000
    33  H    2.562950   3.069927   0.000000
    34  H    2.323048   2.582889   1.731069   0.000000
    35  H    6.260002   4.986701   5.186415   5.503845   0.000000
    36  H    7.298289   6.161393   5.829669   5.796322   2.417175
    37  H    6.650539   5.912675   4.999944   4.595110   4.242222
    38  H    4.576584   4.314731   2.989839   2.318194   4.909162
    39  H    2.333011   3.452833   3.683386   4.348234   7.219826
    40  H    4.644641   5.325065   5.276298   6.396690   7.818790
    41  H    5.840920   5.888614   5.800158   7.103154   6.629925
    42  H    5.509215   4.941364   5.016809   6.155481   4.238901
                   36         37         38         39         40
    36  H    0.000000
    37  H    2.475832   0.000000
    38  H    4.258514   2.445582   0.000000
    39  H    8.706742   8.403641   6.437440   0.000000
    40  H    9.668597   9.824413   8.169219   2.456509   0.000000
    41  H    8.730875   9.456642   8.355477   4.271766   2.478722
    42  H    6.445149   7.522995   6.901161   4.926189   4.272493
                   41         42
    41  H    0.000000
    42  H    2.458998   0.000000
 Stoichiometry    C18H22N2
 Framework group  C1[X(C18H22N2)]
 Deg. of freedom   120
 Full point group                 C1      NOp   1
 Largest Abelian subgroup         C1      NOp   1
 Largest concise Abelian subgroup C1      NOp   1
                         Standard orientation:                         
 ---------------------------------------------------------------------
 Center     Atomic      Atomic             Coordinates (Angstroms)
 Number     Number       Type             X           Y           Z
 ---------------------------------------------------------------------
      1          6           0        5.161720   -1.896499   -0.480360
      2          7           0        3.852626   -1.268937   -0.356858
      3          6           0        2.773843   -2.223723   -0.572045
      4          6           0        1.420670   -1.493804   -0.574562
      5          6           0        1.065715   -0.797479    0.758844
      6          7           0       -0.204357   -0.038495    0.657223
      7          6           0        0.023417    1.345952    0.522401
      8          6           0       -0.328123    2.083073   -0.626654
      9          6           0       -1.117336    1.420698   -1.734606
     10          6           0       -2.467078    0.903861   -1.240993
     11          6           0       -2.464329   -0.382111   -0.420472
     12          6           0       -1.390723   -0.784927    0.424200
     13          6           0       -1.555228   -1.994840    1.127716
     14          6           0       -2.692322   -2.787256    1.008739
     15          6           0       -3.725860   -2.380603    0.180743
     16          6           0       -3.610465   -1.186151   -0.517785
     17          6           0       -0.000137    3.443489   -0.709019
     18          6           0        0.669997    4.083914    0.329364
     19          6           0        1.015420    3.369008    1.469903
     20          6           0        0.693934    2.016657    1.557273
     21          1           0        5.948351   -1.155165   -0.331802
     22          1           0        5.298126   -2.673652    0.274262
     23          1           0        5.306566   -2.338799   -1.467939
     24          1           0        3.744430   -0.453049   -0.948098
     25          1           0        2.904572   -2.749679   -1.520543
     26          1           0        2.784143   -2.967544    0.227829
     27          1           0        1.381919   -0.778673   -1.396651
     28          1           0        0.660413   -2.244587   -0.790266
     29          1           0        1.048241   -1.523361    1.570061
     30          1           0        1.911100   -0.167136    1.042204
     31          1           0       -1.287559    2.141497   -2.535527
     32          1           0       -0.524984    0.625739   -2.189731
     33          1           0       -2.967658    1.677793   -0.656443
     34          1           0       -3.103539    0.755206   -2.114856
     35          1           0       -0.798909   -2.333194    1.814874
     36          1           0       -2.773375   -3.706053    1.570996
     37          1           0       -4.618269   -2.982971    0.086659
     38          1           0       -4.431994   -0.881649   -1.150523
     39          1           0       -0.276311    4.015704   -1.582811
     40          1           0        0.914377    5.133775    0.252024
     41          1           0        1.533111    3.855343    2.283487
     42          1           0        0.970675    1.466926    2.444110
 ---------------------------------------------------------------------
 Rotational constants (GHZ):           0.3613384           0.2893569           0.1888654
 Standard basis: 6-31G(d,p) (6D, 7F)
 There are   410 symmetry adapted cartesian basis functions of A   symmetry.
 There are   410 symmetry adapted basis functions of A   symmetry.
   410 basis functions,   714 primitive gaussians,   410 cartesian basis functions
    72 alpha electrons       72 beta electrons
       nuclear repulsion energy      1523.2909807752 Hartrees.
 NAtoms=   42 NActive=   42 NUniq=   42 SFac= 1.00D+00 NAtFMM=   60 NAOKFM=F Big=F
 Integral buffers will be    131072 words long.
 Raffenetti 2 integral format.
 Two-electron integral symmetry is turned on.
 Nuclear repulsion after empirical dispersion term =     1523.2005933551 Hartrees.
 One-electron integrals computed using PRISM.
 NBasis=   410 RedAO= T EigKep=  3.69D-04  NBF=   410
 NBsUse=   410 1.00D-06 EigRej= -1.00D+00 NBFU=   410
 ExpMin= 1.61D-01 ExpMax= 4.17D+03 ExpMxC= 6.27D+02 IAcc=3 IRadAn=         5 AccDes= 0.00D+00
 Harris functional with IExCor=  402 and IRadAn=       5 diagonalized for initial guess.
 HarFok:  IExCor=  402 AccDes= 0.00D+00 IRadAn=         5 IDoV= 1 UseB2=F ITyADJ=14
 ICtDFT=  3500011 ScaDFX=  1.000000  1.000000  1.000000  1.000000
 FoFCou: FMM=F IPFlag=           0 FMFlag=      100000 FMFlg1=           0
         NFxFlg=           0 DoJE=T BraDBF=F KetDBF=T FulRan=T
         wScrn=  0.000000 ICntrl=       500 IOpCl=  0 I1Cent=   200000004 NGrid=           0
         NMat0=    1 NMatS0=      1 NMatT0=    0 NMatD0=    1 NMtDS0=    0 NMtDT0=    0
 Petite list used in FoFCou.
 Requested convergence on RMS density matrix=1.00D-08 within 128 cycles.
 Requested convergence on MAX density matrix=1.00D-06.
 Requested convergence on             energy=1.00D-06.
 No special actions if energy rises.
 Integral accuracy reduced to 1.0D-05 until final iterations.
 Initial convergence to 1.0D-05 achieved.  Increase integral accuracy.
 SCF Done:  E(RB3LYP) =  -808.769473374     A.U. after   14 cycles
            NFock= 14  Conv=0.72D-08     -V/T= 2.0097

 **********************************************************************

            Population analysis using the SCF Density.

 **********************************************************************

 Orbital symmetries:
       Occupied  (A) (A) (A) (A) (A) (A) (A) (A) (A) (A) (A) (A)
                 (A) (A) (A) (A) (A) (A) (A) (A) (A) (A) (A) (A)
                 (A) (A) (A) (A) (A) (A) (A) (A) (A) (A) (A) (A)
                 (A) (A) (A) (A) (A) (A) (A) (A) (A) (A) (A) (A)
                 (A) (A) (A) (A) (A) (A) (A) (A) (A) (A) (A) (A)
                 (A) (A) (A) (A) (A) (A) (A) (A) (A) (A) (A) (A)
       Virtual   (A) (A) (A) (A) (A) (A) (A) (A) (A) (A) (A) (A)
                 (A) (A) (A) (A) (A) (A) (A) (A) (A) (A) (A) (A)
                 (A) (A) (A) (A) (A) (A) (A) (A) (A) (A) (A) (A)
                 (A) (A) (A) (A) (A) (A) (A) (A) (A) (A) (A) (A)
                 (A) (A) (A) (A) (A) (A) (A) (A) (A) (A) (A) (A)
                 (A) (A) (A) (A) (A) (A) (A) (A) (A) (A) (A) (A)
                 (A) (A) (A) (A) (A) (A) (A) (A) (A) (A) (A) (A)
                 (A) (A) (A) (A) (A) (A) (A) (A) (A) (A) (A) (A)
                 (A) (A) (A) (A) (A) (A) (A) (A) (A) (A) (A) (A)
                 (A) (A) (A) (A) (A) (A) (A) (A) (A) (A) (A) (A)
                 (A) (A) (A) (A) (A) (A) (A) (A) (A) (A) (A) (A)
                 (A) (A) (A) (A) (A) (A) (A) (A) (A) (A) (A) (A)
                 (A) (A) (A) (A) (A) (A) (A) (A) (A) (A) (A) (A)
                 (A) (A) (A) (A) (A) (A) (A) (A) (A) (A) (A) (A)
                 (A) (A) (A) (A) (A) (A) (A) (A) (A) (A) (A) (A)
                 (A) (A) (A) (A) (A) (A) (A) (A) (A) (A) (A) (A)
                 (A) (A) (A) (A) (A) (A) (A) (A) (A) (A) (A) (A)
                 (A) (A) (A) (A) (A) (A) (A) (A) (A) (A) (A) (A)
                 (A) (A) (A) (A) (A) (A) (A) (A) (A) (A) (A) (A)
                 (A) (A) (A) (A) (A) (A) (A) (A) (A) (A) (A) (A)
                 (A) (A) (A) (A) (A) (A) (A) (A) (A) (A) (A) (A)
                 (A) (A) (A) (A) (A) (A) (A) (A) (A) (A) (A) (A)
                 (A) (A) (A) (A) (A) (A) (A) (A) (A) (A) (A) (A)
                 (A) (A) (A) (A) (A) (A) (A) (A) (A) (A) (A) (A)
                 (A) (A) (A) (A) (A) (A) (A) (A) (A) (A) (A) (A)
                 (A) (A) (A) (A) (A) (A) (A) (A) (A) (A) (A) (A)
                 (A) (A) (A) (A) (A) (A) (A) (A) (A) (A) (A) (A)
                 (A) (A) (A) (A) (A) (A) (A) (A) (A) (A) (A) (A)
                 (A) (A)
 The electronic state is 1-A.
 Alpha  occ. eigenvalues --  -14.34634 -14.31237 -10.22476 -10.21807 -10.20911
 Alpha  occ. eigenvalues --  -10.20326 -10.19825 -10.18807 -10.18763 -10.18409
 Alpha  occ. eigenvalues --  -10.18363 -10.18149 -10.18142 -10.17972 -10.17914
 Alpha  occ. eigenvalues --  -10.17839 -10.17725 -10.17722 -10.17554 -10.17145
 Alpha  occ. eigenvalues --   -0.94297  -0.89739  -0.84798  -0.83712  -0.79269
 Alpha  occ. eigenvalues --   -0.76600  -0.74890  -0.74691  -0.71833  -0.70112
 Alpha  occ. eigenvalues --   -0.67186  -0.64570  -0.64034  -0.60461  -0.59711
 Alpha  occ. eigenvalues --   -0.58094  -0.57775  -0.55932  -0.51349  -0.50043
 Alpha  occ. eigenvalues --   -0.47695  -0.47204  -0.47003  -0.46263  -0.45897
 Alpha  occ. eigenvalues --   -0.44999  -0.43577  -0.43168  -0.42323  -0.42278
 Alpha  occ. eigenvalues --   -0.40983  -0.40686  -0.40110  -0.38765  -0.38395
 Alpha  occ. eigenvalues --   -0.37477  -0.36934  -0.36112  -0.35413  -0.34590
 Alpha  occ. eigenvalues --   -0.34512  -0.34083  -0.33153  -0.33066  -0.32231
 Alpha  occ. eigenvalues --   -0.32049  -0.27956  -0.24159  -0.23704  -0.23233
 Alpha  occ. eigenvalues --   -0.21336  -0.18350
 Alpha virt. eigenvalues --   -0.00068   0.00614   0.00952   0.02033   0.08579
 Alpha virt. eigenvalues --    0.09509   0.10042   0.10819   0.11331   0.11888
 Alpha virt. eigenvalues --    0.13356   0.14298   0.14417   0.14654   0.14913
 Alpha virt. eigenvalues --    0.16362   0.16828   0.17058   0.17384   0.17390
 Alpha virt. eigenvalues --    0.18085   0.18717   0.18852   0.19557   0.20081
 Alpha virt. eigenvalues --    0.20340   0.20969   0.21492   0.23057   0.23709
 Alpha virt. eigenvalues --    0.24624   0.25053   0.25288   0.26004   0.26893
 Alpha virt. eigenvalues --    0.28343   0.29035   0.30316   0.32207   0.33086
 Alpha virt. eigenvalues --    0.33608   0.35239   0.35682   0.36988   0.38099
 Alpha virt. eigenvalues --    0.41140   0.46063   0.49711   0.50204   0.50576
 Alpha virt. eigenvalues --    0.51378   0.51763   0.52649   0.53493   0.54044
 Alpha virt. eigenvalues --    0.54708   0.55004   0.55458   0.56423   0.57077
 Alpha virt. eigenvalues --    0.57680   0.58242   0.58430   0.58743   0.59541
 Alpha virt. eigenvalues --    0.60545   0.61061   0.61255   0.61738   0.61910
 Alpha virt. eigenvalues --    0.62150   0.62421   0.62763   0.63207   0.64425
 Alpha virt. eigenvalues --    0.64961   0.66825   0.67614   0.67919   0.69396
 Alpha virt. eigenvalues --    0.70370   0.71325   0.71928   0.74506   0.75316
 Alpha virt. eigenvalues --    0.75447   0.75973   0.76334   0.78958   0.79839
 Alpha virt. eigenvalues --    0.80802   0.81576   0.81932   0.82044   0.82448
 Alpha virt. eigenvalues --    0.82943   0.83369   0.83824   0.84477   0.85469
 Alpha virt. eigenvalues --    0.87150   0.87679   0.88915   0.89102   0.89545
 Alpha virt. eigenvalues --    0.89955   0.90838   0.91358   0.92362   0.93102
 Alpha virt. eigenvalues --    0.93360   0.94147   0.94883   0.95705   0.96219
 Alpha virt. eigenvalues --    0.97529   0.98909   0.99513   1.00510   1.01286
 Alpha virt. eigenvalues --    1.03900   1.04932   1.06396   1.07131   1.07756
 Alpha virt. eigenvalues --    1.08758   1.09622   1.11295   1.11509   1.13529
 Alpha virt. eigenvalues --    1.16705   1.17972   1.19582   1.20266   1.21624
 Alpha virt. eigenvalues --    1.23542   1.23588   1.24541   1.26081   1.29203
 Alpha virt. eigenvalues --    1.30755   1.32180   1.32670   1.34470   1.35997
 Alpha virt. eigenvalues --    1.36178   1.37863   1.40539   1.41605   1.41981
 Alpha virt. eigenvalues --    1.42317   1.42819   1.43828   1.44415   1.46856
 Alpha virt. eigenvalues --    1.48272   1.49659   1.51869   1.54142   1.58182
 Alpha virt. eigenvalues --    1.58531   1.60996   1.66150   1.69577   1.70007
 Alpha virt. eigenvalues --    1.72131   1.72614   1.73392   1.76410   1.77214
 Alpha virt. eigenvalues --    1.78216   1.78417   1.80175   1.80717   1.81436
 Alpha virt. eigenvalues --    1.82837   1.83730   1.84369   1.85258   1.87466
 Alpha virt. eigenvalues --    1.87572   1.88789   1.89306   1.90062   1.90551
 Alpha virt. eigenvalues --    1.91484   1.92554   1.94119   1.94909   1.95135
 Alpha virt. eigenvalues --    1.96280   1.96878   1.97563   1.99096   1.99538
 Alpha virt. eigenvalues --    2.00779   2.01073   2.02337   2.02727   2.03912
 Alpha virt. eigenvalues --    2.04349   2.05225   2.06439   2.07153   2.08340
 Alpha virt. eigenvalues --    2.09076   2.10869   2.11657   2.13563   2.14753
 Alpha virt. eigenvalues --    2.15202   2.16435   2.17814   2.19247   2.22019
 Alpha virt. eigenvalues --    2.22810   2.23534   2.25059   2.25492   2.26535
 Alpha virt. eigenvalues --    2.27285   2.27877   2.29751   2.29885   2.31503
 Alpha virt. eigenvalues --    2.31573   2.33275   2.34267   2.35973   2.36596
 Alpha virt. eigenvalues --    2.39177   2.39794   2.40088   2.40622   2.41984
 Alpha virt. eigenvalues --    2.42877   2.43116   2.43860   2.44383   2.44921
 Alpha virt. eigenvalues --    2.46422   2.47557   2.48295   2.48934   2.50443
 Alpha virt. eigenvalues --    2.51955   2.53174   2.53524   2.55407   2.56394
 Alpha virt. eigenvalues --    2.57305   2.58154   2.59050   2.59820   2.60738
 Alpha virt. eigenvalues --    2.61648   2.62366   2.63363   2.64542   2.66327
 Alpha virt. eigenvalues --    2.67379   2.68097   2.68918   2.70321   2.71115
 Alpha virt. eigenvalues --    2.72371   2.74054   2.74428   2.74785   2.75369
 Alpha virt. eigenvalues --    2.78218   2.78629   2.79219   2.80582   2.82503
 Alpha virt. eigenvalues --    2.83254   2.84379   2.85654   2.87068   2.88528
 Alpha virt. eigenvalues --    2.90132   2.91093   2.92265   2.94319   2.96434
 Alpha virt. eigenvalues --    2.97319   3.00426   3.02013   3.05910   3.07665
 Alpha virt. eigenvalues --    3.10093   3.15662   3.20112   3.22561   3.23662
 Alpha virt. eigenvalues --    3.25935   3.26603   3.26908   3.30339   3.30526
 Alpha virt. eigenvalues --    3.32798   3.33731   3.35970   3.37811   3.39207
 Alpha virt. eigenvalues --    3.39859   3.44314   3.44819   3.45516   3.46743
 Alpha virt. eigenvalues --    3.49680   3.50120   3.51109   3.53965   3.56707
 Alpha virt. eigenvalues --    3.60526   3.86248   3.87493   4.03265   4.14455
 Alpha virt. eigenvalues --    4.14806   4.17247   4.17893   4.21676   4.23341
 Alpha virt. eigenvalues --    4.28475   4.36464   4.41958   4.45495   4.47197
 Alpha virt. eigenvalues --    4.47940   4.50228   4.56628   4.58514   4.65732
 Alpha virt. eigenvalues --    4.75006   4.85321   4.88977
          Condensed to atoms (all electrons):
               1          2          3          4          5          6
     1  C    4.782769   0.322579  -0.051293   0.005193   0.000297   0.000000
     2  N    0.322579   6.793711   0.322839  -0.050897  -0.007527   0.000170
     3  C   -0.051293   0.322839   4.799214   0.352992  -0.032309   0.003979
     4  C    0.005193  -0.050897   0.352992   5.009004   0.360341  -0.061793
     5  C    0.000297  -0.007527  -0.032309   0.360341   4.848438   0.298545
     6  N    0.000000   0.000170   0.003979  -0.061793   0.298545   7.235556
     7  C   -0.000000  -0.000027  -0.000120   0.000350  -0.041891   0.265598
     8  C   -0.000000   0.000000  -0.000052   0.000814   0.004317  -0.076394
     9  C    0.000000   0.000000   0.000021  -0.000793  -0.000401  -0.007540
    10  C   -0.000000   0.000000  -0.000001   0.000086   0.000070  -0.015229
    11  C   -0.000000  -0.000000  -0.000012   0.000429   0.003483  -0.063105
    12  C   -0.000000   0.000003   0.000015  -0.002284  -0.033234   0.248903
    13  C    0.000000  -0.000003  -0.000088  -0.004346  -0.004361  -0.075859
    14  C    0.000000  -0.000000  -0.000002  -0.000187   0.000256   0.005450
    15  C   -0.000000   0.000000   0.000000   0.000019  -0.000011   0.000001
    16  C    0.000000  -0.000000   0.000000   0.000016  -0.000122   0.006547
    17  C    0.000000   0.000000   0.000001  -0.000037  -0.000067   0.007315
    18  C    0.000000  -0.000000   0.000000  -0.000000   0.000019  -0.000002
    19  C    0.000000  -0.000000  -0.000000   0.000012  -0.000099   0.005967
    20  C   -0.000000  -0.000040  -0.000012   0.000258  -0.015429  -0.078224
    21  H    0.386175  -0.032351   0.005307  -0.000270   0.000000  -0.000000
    22  H    0.393235  -0.040669  -0.003744   0.000260  -0.000043  -0.000000
    23  H    0.370684  -0.053712  -0.008344  -0.000055   0.000011   0.000000
    24  H   -0.036574   0.343025  -0.043910  -0.002766  -0.000812  -0.000101
    25  H   -0.006384  -0.058923   0.367966  -0.036185   0.004918  -0.000091
    26  H   -0.002911  -0.050183   0.382965  -0.028189  -0.008492  -0.000011
    27  H    0.000109  -0.006683  -0.031663   0.379055  -0.040392  -0.001356
    28  H   -0.000215   0.004138  -0.032745   0.377200  -0.034084  -0.006876
    29  H   -0.000027  -0.000207   0.001248  -0.052428   0.375704  -0.036199
    30  H   -0.000285   0.018522  -0.005827  -0.040991   0.382723  -0.030790
    31  H   -0.000000  -0.000000  -0.000000   0.000007   0.000000   0.000109
    32  H   -0.000000   0.000000   0.000006   0.000745  -0.000228   0.003846
    33  H    0.000000  -0.000000   0.000000   0.000003  -0.000008   0.000586
    34  H   -0.000000   0.000000   0.000000   0.000001   0.000008   0.000005
    35  H   -0.000000   0.000001  -0.000008  -0.000313   0.001513  -0.009401
    36  H   -0.000000  -0.000000   0.000000  -0.000006   0.000007  -0.000126
    37  H   -0.000000   0.000000   0.000000   0.000000  -0.000000   0.000006
    38  H   -0.000000  -0.000000  -0.000000  -0.000000   0.000002  -0.000085
    39  H    0.000000  -0.000000  -0.000000   0.000001   0.000002  -0.000118
    40  H    0.000000   0.000000  -0.000000  -0.000000   0.000000   0.000005
    41  H   -0.000000  -0.000000   0.000000  -0.000000  -0.000006  -0.000138
    42  H   -0.000000  -0.000004  -0.000003   0.000181   0.001771  -0.005891
               7          8          9         10         11         12
     1  C   -0.000000  -0.000000   0.000000  -0.000000  -0.000000  -0.000000
     2  N   -0.000027   0.000000   0.000000   0.000000  -0.000000   0.000003
     3  C   -0.000120  -0.000052   0.000021  -0.000001  -0.000012   0.000015
     4  C    0.000350   0.000814  -0.000793   0.000086   0.000429  -0.002284
     5  C   -0.041891   0.004317  -0.000401   0.000070   0.003483  -0.033234
     6  N    0.265598  -0.076394  -0.007540  -0.015229  -0.063105   0.248903
     7  C    4.713114   0.514000  -0.067971   0.000481  -0.003829  -0.014397
     8  C    0.514000   4.814766   0.364936  -0.041553  -0.005597  -0.005444
     9  C   -0.067971   0.364936   5.054429   0.336987  -0.032082  -0.001531
    10  C    0.000481  -0.041553   0.336987   5.051787   0.357532  -0.057312
    11  C   -0.003829  -0.005597  -0.032082   0.357532   4.813219   0.518855
    12  C   -0.014397  -0.005444  -0.001531  -0.057312   0.518855   4.686197
    13  C    0.004022  -0.000028  -0.000126   0.008061  -0.042657   0.487952
    14  C   -0.000100  -0.000000   0.000008  -0.000053  -0.036511  -0.020053
    15  C    0.000033  -0.000002  -0.000179   0.007145  -0.026763  -0.043343
    16  C   -0.000466   0.000183   0.003090  -0.062364   0.514878  -0.004863
    17  C   -0.007494   0.519452  -0.059315  -0.002205   0.000021  -0.000141
    18  C   -0.043789  -0.028522   0.007478  -0.000133   0.000001   0.000019
    19  C   -0.020977  -0.035412  -0.000092   0.000033  -0.000002  -0.000146
    20  C    0.509573  -0.052124   0.008592  -0.000019   0.000017   0.004924
    21  H    0.000000   0.000000  -0.000000   0.000000   0.000000   0.000000
    22  H    0.000000   0.000000   0.000000  -0.000000   0.000000   0.000000
    23  H    0.000000   0.000000  -0.000000   0.000000  -0.000000  -0.000000
    24  H    0.000063   0.000020  -0.000001   0.000000   0.000000  -0.000001
    25  H    0.000002   0.000001  -0.000000   0.000000   0.000000  -0.000004
    26  H    0.000007  -0.000000  -0.000000  -0.000000  -0.000000   0.000001
    27  H    0.002775   0.000575  -0.000283  -0.000106  -0.000078  -0.000617
    28  H   -0.000380   0.000106  -0.000034  -0.000013   0.000729   0.008188
    29  H    0.002612  -0.000303   0.000011  -0.000014  -0.000387  -0.007335
    30  H   -0.001891   0.000138  -0.000015  -0.000011  -0.000077   0.003726
    31  H    0.005809  -0.031311   0.362881  -0.028175   0.004016   0.000147
    32  H   -0.007828  -0.029540   0.366381  -0.040688  -0.004112  -0.000045
    33  H   -0.000545  -0.003573  -0.041547   0.372060  -0.032517  -0.002344
    34  H    0.000250   0.005005  -0.033005   0.364798  -0.033457   0.004079
    35  H    0.000056   0.000000   0.000004  -0.000158   0.004726  -0.041020
    36  H    0.000001  -0.000000  -0.000000   0.000008   0.000995   0.003751
    37  H   -0.000000   0.000000   0.000002  -0.000182   0.003984   0.001112
    38  H   -0.000001  -0.000007   0.000225  -0.011072  -0.044017   0.004446
    39  H    0.004560  -0.036981  -0.011380   0.000367  -0.000000  -0.000003
    40  H    0.001105   0.003904  -0.000182   0.000001   0.000000  -0.000000
    41  H    0.003731   0.000978   0.000009  -0.000000   0.000000   0.000001
    42  H   -0.038252   0.005619  -0.000190   0.000004   0.000019   0.000151
              13         14         15         16         17         18
     1  C    0.000000   0.000000  -0.000000   0.000000   0.000000   0.000000
     2  N   -0.000003  -0.000000   0.000000  -0.000000   0.000000  -0.000000
     3  C   -0.000088  -0.000002   0.000000   0.000000   0.000001   0.000000
     4  C   -0.004346  -0.000187   0.000019   0.000016  -0.000037  -0.000000
     5  C   -0.004361   0.000256  -0.000011  -0.000122  -0.000067   0.000019
     6  N   -0.075859   0.005450   0.000001   0.006547   0.007315  -0.000002
     7  C    0.004022  -0.000100   0.000033  -0.000466  -0.007494  -0.043789
     8  C   -0.000028  -0.000000  -0.000002   0.000183   0.519452  -0.028522
     9  C   -0.000126   0.000008  -0.000179   0.003090  -0.059315   0.007478
    10  C    0.008061  -0.000053   0.007145  -0.062364  -0.002205  -0.000133
    11  C   -0.042657  -0.036511  -0.026763   0.514878   0.000021   0.000001
    12  C    0.487952  -0.020053  -0.043343  -0.004863  -0.000141   0.000019
    13  C    4.957574   0.533055  -0.032969  -0.055411   0.000003  -0.000000
    14  C    0.533055   4.812271   0.544587  -0.031730  -0.000000   0.000000
    15  C   -0.032969   0.544587   4.837892   0.515880  -0.000000   0.000000
    16  C   -0.055411  -0.031730   0.515880   4.930313   0.000005  -0.000000
    17  C    0.000003  -0.000000  -0.000000   0.000005   4.936763   0.512841
    18  C   -0.000000   0.000000   0.000000  -0.000000   0.512841   4.839782
    19  C   -0.000000   0.000000   0.000000   0.000000  -0.032077   0.542965
    20  C   -0.000123  -0.000002   0.000000  -0.000007  -0.054624  -0.031469
    21  H   -0.000000  -0.000000   0.000000   0.000000   0.000000  -0.000000
    22  H   -0.000000  -0.000000  -0.000000   0.000000   0.000000   0.000000
    23  H    0.000000   0.000000   0.000000  -0.000000  -0.000000  -0.000000
    24  H   -0.000000   0.000000  -0.000000   0.000000  -0.000001  -0.000001
    25  H    0.000006  -0.000000  -0.000000  -0.000000  -0.000000  -0.000000
    26  H    0.000007   0.000001  -0.000000   0.000000  -0.000000   0.000000
    27  H    0.000109   0.000015  -0.000002   0.000003  -0.000009  -0.000003
    28  H    0.003787  -0.000135  -0.000016  -0.000085   0.000001  -0.000000
    29  H    0.000579   0.000187  -0.000008   0.000018   0.000006   0.000000
    30  H    0.000130  -0.000010   0.000000   0.000002  -0.000060  -0.000004
    31  H    0.000003   0.000000   0.000003  -0.000154  -0.007745   0.000249
    32  H   -0.000124  -0.000013  -0.000008   0.000529   0.002610  -0.000283
    33  H   -0.000246   0.000057  -0.000267  -0.002340   0.001656  -0.000074
    34  H   -0.000164   0.000007   0.000441  -0.007642  -0.000058   0.000004
    35  H    0.360951  -0.040189   0.005308   0.000838  -0.000000   0.000000
    36  H   -0.037204   0.364662  -0.041786   0.004736   0.000000  -0.000000
    37  H    0.004899  -0.042451   0.363684  -0.038060   0.000000  -0.000000
    38  H    0.000530   0.005363  -0.044601   0.367422  -0.000000  -0.000000
    39  H   -0.000000   0.000000  -0.000000  -0.000000   0.362301  -0.045439
    40  H    0.000000   0.000000  -0.000000   0.000000  -0.037389   0.364597
    41  H   -0.000000   0.000000  -0.000000   0.000000   0.004591  -0.041952
    42  H   -0.000010   0.000001   0.000000  -0.000000   0.000699   0.004979
              19         20         21         22         23         24
     1  C    0.000000  -0.000000   0.386175   0.393235   0.370684  -0.036574
     2  N   -0.000000  -0.000040  -0.032351  -0.040669  -0.053712   0.343025
     3  C   -0.000000  -0.000012   0.005307  -0.003744  -0.008344  -0.043910
     4  C    0.000012   0.000258  -0.000270   0.000260  -0.000055  -0.002766
     5  C   -0.000099  -0.015429   0.000000  -0.000043   0.000011  -0.000812
     6  N    0.005967  -0.078224  -0.000000  -0.000000   0.000000  -0.000101
     7  C   -0.020977   0.509573   0.000000   0.000000   0.000000   0.000063
     8  C   -0.035412  -0.052124   0.000000   0.000000   0.000000   0.000020
     9  C   -0.000092   0.008592  -0.000000   0.000000  -0.000000  -0.000001
    10  C    0.000033  -0.000019   0.000000  -0.000000   0.000000   0.000000
    11  C   -0.000002   0.000017   0.000000   0.000000  -0.000000   0.000000
    12  C   -0.000146   0.004924   0.000000   0.000000  -0.000000  -0.000001
    13  C   -0.000000  -0.000123  -0.000000  -0.000000   0.000000  -0.000000
    14  C    0.000000  -0.000002  -0.000000  -0.000000   0.000000   0.000000
    15  C    0.000000   0.000000   0.000000  -0.000000   0.000000  -0.000000
    16  C    0.000000  -0.000007   0.000000   0.000000  -0.000000   0.000000
    17  C   -0.032077  -0.054624   0.000000   0.000000  -0.000000  -0.000001
    18  C    0.542965  -0.031469  -0.000000   0.000000  -0.000000  -0.000001
    19  C    4.828895   0.519895  -0.000000  -0.000000   0.000000  -0.000000
    20  C    0.519895   4.941853   0.000000  -0.000000  -0.000000   0.000018
    21  H   -0.000000   0.000000   0.609992  -0.027988  -0.040755  -0.003459
    22  H   -0.000000  -0.000000  -0.027988   0.605999  -0.048971   0.005726
    23  H    0.000000  -0.000000  -0.040755  -0.048971   0.689908  -0.004253
    24  H   -0.000000   0.000018  -0.003459   0.005726  -0.004253   0.495638
    25  H    0.000000   0.000000  -0.000193  -0.002555   0.016059  -0.003912
    26  H   -0.000000   0.000000   0.000064   0.006881  -0.002496   0.007017
    27  H   -0.000010   0.000205   0.000002   0.000015  -0.000071   0.006558
    28  H    0.000001  -0.000019   0.000004   0.000001   0.000012  -0.000082
    29  H   -0.000019   0.001086  -0.000001  -0.000001   0.000001   0.000079
    30  H   -0.000033   0.003770  -0.000004  -0.000055   0.000045  -0.000899
    31  H    0.000005  -0.000199  -0.000000  -0.000000   0.000000   0.000000
    32  H    0.000036  -0.000130   0.000000  -0.000000   0.000000  -0.000006
    33  H   -0.000009  -0.000230   0.000000   0.000000  -0.000000  -0.000000
    34  H   -0.000000   0.000008  -0.000000   0.000000   0.000000  -0.000000
    35  H    0.000000   0.000016  -0.000000  -0.000000   0.000000  -0.000000
    36  H    0.000000  -0.000000  -0.000000   0.000000  -0.000000  -0.000000
    37  H   -0.000000  -0.000000   0.000000   0.000000   0.000000   0.000000
    38  H    0.000000   0.000000  -0.000000  -0.000000   0.000000  -0.000000
    39  H    0.004962   0.000559  -0.000000   0.000000   0.000000   0.000000
    40  H   -0.041918   0.004572   0.000000  -0.000000  -0.000000   0.000000
    41  H    0.364359  -0.035095  -0.000000   0.000000  -0.000000  -0.000000
    42  H   -0.041186   0.358183   0.000000   0.000000  -0.000000   0.000000
              25         26         27         28         29         30
     1  C   -0.006384  -0.002911   0.000109  -0.000215  -0.000027  -0.000285
     2  N   -0.058923  -0.050183  -0.006683   0.004138  -0.000207   0.018522
     3  C    0.367966   0.382965  -0.031663  -0.032745   0.001248  -0.005827
     4  C   -0.036185  -0.028189   0.379055   0.377200  -0.052428  -0.040991
     5  C    0.004918  -0.008492  -0.040392  -0.034084   0.375704   0.382723
     6  N   -0.000091  -0.000011  -0.001356  -0.006876  -0.036199  -0.030790
     7  C    0.000002   0.000007   0.002775  -0.000380   0.002612  -0.001891
     8  C    0.000001  -0.000000   0.000575   0.000106  -0.000303   0.000138
     9  C   -0.000000  -0.000000  -0.000283  -0.000034   0.000011  -0.000015
    10  C    0.000000  -0.000000  -0.000106  -0.000013  -0.000014  -0.000011
    11  C    0.000000  -0.000000  -0.000078   0.000729  -0.000387  -0.000077
    12  C   -0.000004   0.000001  -0.000617   0.008188  -0.007335   0.003726
    13  C    0.000006   0.000007   0.000109   0.003787   0.000579   0.000130
    14  C   -0.000000   0.000001   0.000015  -0.000135   0.000187  -0.000010
    15  C   -0.000000  -0.000000  -0.000002  -0.000016  -0.000008   0.000000
    16  C   -0.000000   0.000000   0.000003  -0.000085   0.000018   0.000002
    17  C   -0.000000  -0.000000  -0.000009   0.000001   0.000006  -0.000060
    18  C   -0.000000   0.000000  -0.000003  -0.000000   0.000000  -0.000004
    19  C    0.000000  -0.000000  -0.000010   0.000001  -0.000019  -0.000033
    20  C    0.000000   0.000000   0.000205  -0.000019   0.001086   0.003770
    21  H   -0.000193   0.000064   0.000002   0.000004  -0.000001  -0.000004
    22  H   -0.002555   0.006881   0.000015   0.000001  -0.000001  -0.000055
    23  H    0.016059  -0.002496  -0.000071   0.000012   0.000001   0.000045
    24  H   -0.003912   0.007017   0.006558  -0.000082   0.000079  -0.000899
    25  H    0.711408  -0.057814  -0.006472  -0.000945  -0.000120   0.000539
    26  H   -0.057814   0.649028   0.005923  -0.003685   0.004791  -0.001433
    27  H   -0.006472   0.005923   0.629575  -0.037574   0.005764  -0.005154
    28  H   -0.000945  -0.003685  -0.037574   0.616673  -0.007974   0.005676
    29  H   -0.000120   0.004791   0.005764  -0.007974   0.651591  -0.038610
    30  H    0.000539  -0.001433  -0.005154   0.005676  -0.038610   0.577491
    31  H   -0.000000   0.000000  -0.000006   0.000000   0.000000   0.000001
    32  H    0.000001   0.000000   0.002502   0.000144   0.000005   0.000046
    33  H    0.000000  -0.000000   0.000000   0.000000  -0.000001   0.000000
    34  H   -0.000000   0.000000  -0.000003  -0.000002  -0.000000  -0.000000
    35  H   -0.000001  -0.000006  -0.000006   0.000223   0.001305  -0.000060
    36  H   -0.000000   0.000000   0.000000  -0.000003   0.000017  -0.000000
    37  H    0.000000  -0.000000   0.000000  -0.000000   0.000000  -0.000000
    38  H    0.000000  -0.000000  -0.000000  -0.000001   0.000000  -0.000000
    39  H   -0.000000  -0.000000  -0.000003   0.000000  -0.000000   0.000001
    40  H    0.000000   0.000000   0.000000   0.000000   0.000000  -0.000000
    41  H   -0.000000   0.000000  -0.000000  -0.000000   0.000000   0.000014
    42  H   -0.000000   0.000000   0.000003  -0.000001  -0.000429   0.000903
              31         32         33         34         35         36
     1  C   -0.000000  -0.000000   0.000000  -0.000000  -0.000000  -0.000000
     2  N   -0.000000   0.000000  -0.000000   0.000000   0.000001  -0.000000
     3  C   -0.000000   0.000006   0.000000   0.000000  -0.000008   0.000000
     4  C    0.000007   0.000745   0.000003   0.000001  -0.000313  -0.000006
     5  C    0.000000  -0.000228  -0.000008   0.000008   0.001513   0.000007
     6  N    0.000109   0.003846   0.000586   0.000005  -0.009401  -0.000126
     7  C    0.005809  -0.007828  -0.000545   0.000250   0.000056   0.000001
     8  C   -0.031311  -0.029540  -0.003573   0.005005   0.000000  -0.000000
     9  C    0.362881   0.366381  -0.041547  -0.033005   0.000004  -0.000000
    10  C   -0.028175  -0.040688   0.372060   0.364798  -0.000158   0.000008
    11  C    0.004016  -0.004112  -0.032517  -0.033457   0.004726   0.000995
    12  C    0.000147  -0.000045  -0.002344   0.004079  -0.041020   0.003751
    13  C    0.000003  -0.000124  -0.000246  -0.000164   0.360951  -0.037204
    14  C    0.000000  -0.000013   0.000057   0.000007  -0.040189   0.364662
    15  C    0.000003  -0.000008  -0.000267   0.000441   0.005308  -0.041786
    16  C   -0.000154   0.000529  -0.002340  -0.007642   0.000838   0.004736
    17  C   -0.007745   0.002610   0.001656  -0.000058  -0.000000   0.000000
    18  C    0.000249  -0.000283  -0.000074   0.000004   0.000000  -0.000000
    19  C    0.000005   0.000036  -0.000009  -0.000000   0.000000   0.000000
    20  C   -0.000199  -0.000130  -0.000230   0.000008   0.000016  -0.000000
    21  H   -0.000000   0.000000   0.000000  -0.000000  -0.000000  -0.000000
    22  H   -0.000000  -0.000000   0.000000   0.000000  -0.000000   0.000000
    23  H    0.000000   0.000000  -0.000000   0.000000   0.000000  -0.000000
    24  H    0.000000  -0.000006  -0.000000  -0.000000  -0.000000  -0.000000
    25  H   -0.000000   0.000001   0.000000  -0.000000  -0.000001  -0.000000
    26  H    0.000000   0.000000  -0.000000   0.000000  -0.000006   0.000000
    27  H   -0.000006   0.002502   0.000000  -0.000003  -0.000006   0.000000
    28  H    0.000000   0.000144   0.000000  -0.000002   0.000223  -0.000003
    29  H    0.000000   0.000005  -0.000001  -0.000000   0.001305   0.000017
    30  H    0.000001   0.000046   0.000000  -0.000000  -0.000060  -0.000000
    31  H    0.638407  -0.036944  -0.001744  -0.006859  -0.000000   0.000000
    32  H   -0.036944   0.626111   0.006003  -0.001481   0.000004   0.000000
    33  H   -0.001744   0.006003   0.619122  -0.036916   0.000003  -0.000000
    34  H   -0.006859  -0.001481  -0.036916   0.640029   0.000003  -0.000000
    35  H   -0.000000   0.000004   0.000003   0.000003   0.644859  -0.007221
    36  H    0.000000   0.000000  -0.000000  -0.000000  -0.007221   0.639202
    37  H   -0.000000   0.000000   0.000003  -0.000015  -0.000239  -0.006064
    38  H   -0.000017   0.000018   0.001106   0.005539   0.000017  -0.000241
    39  H    0.006844   0.000200   0.000142  -0.000033  -0.000000  -0.000000
    40  H   -0.000013   0.000003   0.000001  -0.000000   0.000000   0.000000
    41  H   -0.000000  -0.000000  -0.000000   0.000000  -0.000000  -0.000000
    42  H    0.000003  -0.000001   0.000002  -0.000000   0.000015  -0.000000
              37         38         39         40         41         42
     1  C   -0.000000  -0.000000   0.000000   0.000000  -0.000000  -0.000000
     2  N    0.000000  -0.000000  -0.000000   0.000000  -0.000000  -0.000004
     3  C    0.000000  -0.000000  -0.000000  -0.000000   0.000000  -0.000003
     4  C    0.000000  -0.000000   0.000001  -0.000000  -0.000000   0.000181
     5  C   -0.000000   0.000002   0.000002   0.000000  -0.000006   0.001771
     6  N    0.000006  -0.000085  -0.000118   0.000005  -0.000138  -0.005891
     7  C   -0.000000  -0.000001   0.004560   0.001105   0.003731  -0.038252
     8  C    0.000000  -0.000007  -0.036981   0.003904   0.000978   0.005619
     9  C    0.000002   0.000225  -0.011380  -0.000182   0.000009  -0.000190
    10  C   -0.000182  -0.011072   0.000367   0.000001  -0.000000   0.000004
    11  C    0.003984  -0.044017  -0.000000   0.000000   0.000000   0.000019
    12  C    0.001112   0.004446  -0.000003  -0.000000   0.000001   0.000151
    13  C    0.004899   0.000530  -0.000000   0.000000  -0.000000  -0.000010
    14  C   -0.042451   0.005363   0.000000   0.000000   0.000000   0.000001
    15  C    0.363684  -0.044601  -0.000000  -0.000000  -0.000000   0.000000
    16  C   -0.038060   0.367422  -0.000000   0.000000   0.000000  -0.000000
    17  C    0.000000  -0.000000   0.362301  -0.037389   0.004591   0.000699
    18  C   -0.000000  -0.000000  -0.045439   0.364597  -0.041952   0.004979
    19  C   -0.000000   0.000000   0.004962  -0.041918   0.364359  -0.041186
    20  C   -0.000000   0.000000   0.000559   0.004572  -0.035095   0.358183
    21  H    0.000000  -0.000000  -0.000000   0.000000  -0.000000   0.000000
    22  H    0.000000  -0.000000   0.000000  -0.000000   0.000000   0.000000
    23  H    0.000000   0.000000   0.000000  -0.000000  -0.000000  -0.000000
    24  H    0.000000  -0.000000   0.000000   0.000000  -0.000000   0.000000
    25  H    0.000000   0.000000  -0.000000   0.000000  -0.000000  -0.000000
    26  H   -0.000000  -0.000000  -0.000000   0.000000   0.000000   0.000000
    27  H    0.000000  -0.000000  -0.000003   0.000000  -0.000000   0.000003
    28  H   -0.000000  -0.000001   0.000000   0.000000  -0.000000  -0.000001
[...]
    33  H   -0.001720   0.000818  -0.001119  -0.005214   0.000284  -0.000428
    34  H    0.000357  -0.000139   0.001276  -0.011161   0.000249   0.000044
    35  H    0.417824  -0.020646   0.002962   0.000608  -0.000027   0.000010
    36  H   -0.028177   0.399074  -0.031832   0.003481  -0.000000   0.000000
    37  H    0.007596  -0.038651   0.416183  -0.040530  -0.000000   0.000000
    38  H   -0.001160   0.005659  -0.035120   0.408950   0.000010  -0.000001
    39  H   -0.000007   0.000001  -0.000001   0.000018   0.404443  -0.036132
    40  H    0.000001  -0.000000  -0.000000  -0.000000  -0.038372   0.413004
    41  H   -0.000002  -0.000001   0.000000  -0.000000   0.002965  -0.032520
    42  H    0.000786  -0.000105   0.000005  -0.000052  -0.000045   0.003393
              19         20         21         22         23         24
     1  C   -0.000001   0.000003   0.406669   0.416025   0.418507  -0.042691
     2  N    0.000026   0.000018  -0.033965  -0.044897  -0.050871   0.352449
     3  C   -0.000142   0.000346   0.011613  -0.007351  -0.013318  -0.054588
     4  C    0.000451   0.000819  -0.000544   0.000904  -0.000489   0.009110
     5  C   -0.001587  -0.011113   0.000162   0.000031  -0.000312  -0.003312
     6  N    0.011362  -0.066002  -0.000003  -0.000017   0.000009  -0.000400
     7  C   -0.009284   0.381326   0.000001   0.000000   0.000000   0.000219
     8  C   -0.076865   0.009026  -0.000000  -0.000000   0.000000  -0.000033
     9  C   -0.005742   0.017719  -0.000000  -0.000000   0.000000  -0.000016
    10  C    0.000391   0.002557   0.000000  -0.000000   0.000000   0.000000
    11  C    0.000355   0.001441   0.000000  -0.000000   0.000000   0.000005
    12  C   -0.000789  -0.003435   0.000000   0.000003  -0.000001   0.000075
    13  C   -0.001127   0.009852  -0.000000  -0.000006   0.000002  -0.000039
    14  C    0.000034  -0.001099   0.000000  -0.000000   0.000000  -0.000002
    15  C    0.000013   0.000301  -0.000000   0.000000  -0.000000  -0.000000
    16  C    0.000096  -0.002196   0.000000   0.000000  -0.000000   0.000000
    17  C    0.006563  -0.132369   0.000000   0.000000  -0.000000   0.000003
    18  C    0.481844   0.012519   0.000000  -0.000000  -0.000000  -0.000002
    19  C    5.005583   0.387589  -0.000000  -0.000000   0.000000  -0.000000
    20  C    0.387589   5.231185   0.000001   0.000001  -0.000000  -0.000024
    21  H   -0.000000   0.000001   0.533049  -0.017927  -0.033622  -0.006656
    22  H   -0.000000   0.000001  -0.017927   0.552766  -0.053701   0.009711
    23  H    0.000000  -0.000000  -0.033622  -0.053701   0.608814  -0.010230
    24  H   -0.000000  -0.000024  -0.006656   0.009711  -0.010230   0.530714
    25  H    0.000001   0.000011  -0.000267  -0.003537   0.016533  -0.009660
    26  H   -0.000001  -0.000059   0.000229   0.006945  -0.005380   0.010743
    27  H   -0.000100  -0.000186   0.000043   0.000031  -0.000189   0.003055
    28  H    0.000003  -0.000120   0.000014  -0.000024   0.000051   0.000122
    29  H   -0.002046   0.001284  -0.000003  -0.000146   0.000068  -0.000315
    30  H    0.002045  -0.019707  -0.000160  -0.000441   0.000379  -0.001174
    31  H   -0.000129  -0.000011  -0.000000   0.000000  -0.000000  -0.000000
    32  H   -0.000364   0.002040  -0.000000  -0.000000   0.000000  -0.000001
    33  H    0.000278  -0.001175  -0.000000   0.000000   0.000000   0.000000
    34  H   -0.000036   0.000177  -0.000000  -0.000000   0.000000  -0.000000
    35  H   -0.000130   0.000454   0.000000   0.000008  -0.000004   0.000018
    36  H   -0.000000  -0.000004  -0.000000  -0.000000   0.000000  -0.000000
    37  H    0.000000   0.000001  -0.000000   0.000000   0.000000  -0.000000
    38  H    0.000001  -0.000006  -0.000000   0.000000  -0.000000   0.000000
    39  H    0.005848  -0.002557   0.000000   0.000000  -0.000000   0.000000
    40  H   -0.036300   0.006206   0.000000   0.000000  -0.000000   0.000000
    41  H    0.400482  -0.026899  -0.000000  -0.000000   0.000000  -0.000000
    42  H   -0.025558   0.406308  -0.000000  -0.000003   0.000000  -0.000009
              25         26         27         28         29         30
     1  C   -0.006291  -0.008669   0.000071  -0.000659   0.000064  -0.000821
     2  N   -0.052402  -0.053721  -0.009538   0.005992   0.003039   0.024626
     3  C    0.433707   0.411931  -0.022320  -0.052247   0.021342  -0.014124
     4  C   -0.060772  -0.009086   0.434024   0.452179  -0.093993  -0.006107
     5  C    0.011429  -0.013196  -0.078238  -0.041848   0.444747   0.412489
     6  N   -0.000056  -0.000594   0.006078  -0.001938  -0.051038  -0.028338
     7  C   -0.000031   0.000146   0.004157  -0.000020   0.001331   0.002618
     8  C    0.000013  -0.000015  -0.001016   0.000017  -0.002084   0.003624
     9  C    0.000001  -0.000009  -0.000151   0.000052   0.000509  -0.000559
    10  C    0.000002  -0.000001   0.000052   0.000019  -0.000105  -0.000021
    11  C    0.000025   0.000007  -0.001019  -0.000409  -0.001529   0.000043
    12  C    0.000035   0.000491   0.000063  -0.001331  -0.015331   0.004660
    13  C    0.000123  -0.000548   0.000641  -0.004241  -0.011725   0.001724
    14  C    0.000011  -0.000118  -0.000463   0.001505  -0.002714   0.000183
    15  C   -0.000003   0.000005   0.000121   0.000016   0.000451  -0.000029
    16  C   -0.000000   0.000001  -0.000207   0.000245  -0.000609   0.000092
    17  C    0.000000   0.000001  -0.000057   0.000009  -0.000313   0.000873
    18  C   -0.000000  -0.000000   0.000021  -0.000002   0.000254  -0.000684
    19  C    0.000001  -0.000001  -0.000100   0.000003  -0.002046   0.002045
    20  C    0.000011  -0.000059  -0.000186  -0.000120   0.001284  -0.019707
    21  H   -0.000267   0.000229   0.000043   0.000014  -0.000003  -0.000160
    22  H   -0.003537   0.006945   0.000031  -0.000024  -0.000146  -0.000441
    23  H    0.016533  -0.005380  -0.000189   0.000051   0.000068   0.000379
    24  H   -0.009660   0.010743   0.003055   0.000122  -0.000315  -0.001174
    25  H    0.598927  -0.050936  -0.007283  -0.002760   0.000525   0.001472
    26  H   -0.050936   0.563914   0.006230  -0.001355  -0.002315  -0.000595
    27  H   -0.007283   0.006230   0.514983  -0.011388   0.005992  -0.001652
    28  H   -0.002760  -0.001355  -0.011388   0.478607   0.002046   0.001962
    29  H    0.000525  -0.002315   0.005992   0.002046   0.545563  -0.019812
    30  H    0.001472  -0.000595  -0.001652   0.001962  -0.019812   0.444048
    31  H   -0.000000  -0.000000   0.000034  -0.000002   0.000014  -0.000020
    32  H    0.000003  -0.000001   0.000555   0.000024   0.000117   0.000121
    33  H    0.000000  -0.000000  -0.000010  -0.000001  -0.000014   0.000007
    34  H   -0.000000   0.000000   0.000025   0.000004   0.000007  -0.000003
    35  H   -0.000303   0.001581   0.001005  -0.003594   0.005033  -0.000011
    36  H    0.000003  -0.000012  -0.000003   0.000063   0.000007   0.000000
    37  H    0.000000  -0.000000   0.000000  -0.000000   0.000003  -0.000000
    38  H   -0.000000   0.000000  -0.000001  -0.000002  -0.000003   0.000000
    39  H   -0.000000   0.000000  -0.000001  -0.000000  -0.000003   0.000004
    40  H   -0.000000   0.000000   0.000000   0.000000   0.000001  -0.000002
    41  H   -0.000000   0.000000   0.000000   0.000000   0.000017   0.000025
    42  H    0.000003  -0.000023   0.000006  -0.000025   0.001282  -0.004780
              31         32         33         34         35         36
     1  C    0.000000  -0.000000  -0.000000   0.000000   0.000005   0.000000
     2  N   -0.000000   0.000009   0.000000   0.000000  -0.000308   0.000000
     3  C    0.000007   0.000142  -0.000002   0.000005   0.002504   0.000008
     4  C   -0.000027   0.000053   0.000020  -0.000057  -0.015514   0.000003
     5  C   -0.000009  -0.000194  -0.000143   0.000187   0.020358   0.000109
     6  N    0.002306   0.003730  -0.001688   0.001084  -0.010452  -0.000235
     7  C    0.011930  -0.012055   0.004614  -0.000870  -0.000025   0.000046
     8  C   -0.054710  -0.067489  -0.013207   0.013902  -0.000357  -0.000001
     9  C    0.448731   0.465406  -0.027532  -0.051903  -0.000021  -0.000004
    10  C   -0.068459  -0.054781   0.432075   0.441042  -0.000185   0.000075
    11  C    0.012573  -0.010261  -0.058780  -0.063483  -0.001841   0.001283
    12  C   -0.001196   0.002686  -0.000500   0.007989  -0.054867   0.005820
    13  C    0.000101   0.000220  -0.001720   0.000357   0.417824  -0.028177
    14  C   -0.000010   0.000006   0.000818  -0.000139  -0.020646   0.399074
    15  C   -0.000007  -0.000084  -0.001119   0.001276   0.002962  -0.031832
    16  C   -0.000552   0.000153  -0.005214  -0.011161   0.000608   0.003481
    17  C   -0.005056  -0.000788   0.000284   0.000249  -0.000027  -0.000000
    18  C    0.000678   0.000440  -0.000428   0.000044   0.000010   0.000000
    19  C   -0.000129  -0.000364   0.000278  -0.000036  -0.000130  -0.000000
    20  C   -0.000011   0.002040  -0.001175   0.000177   0.000454  -0.000004
    21  H   -0.000000  -0.000000  -0.000000  -0.000000   0.000000  -0.000000
    22  H    0.000000  -0.000000   0.000000  -0.000000   0.000008  -0.000000
    23  H   -0.000000   0.000000   0.000000   0.000000  -0.000004   0.000000
    24  H   -0.000000  -0.000001   0.000000  -0.000000   0.000018  -0.000000
    25  H   -0.000000   0.000003   0.000000  -0.000000  -0.000303   0.000003
    26  H   -0.000000  -0.000001  -0.000000   0.000000   0.001581  -0.000012
    27  H    0.000034   0.000555  -0.000010   0.000025   0.001005  -0.000003
    28  H   -0.000002   0.000024  -0.000001   0.000004  -0.003594   0.000063
    29  H    0.000014   0.000117  -0.000014   0.000007   0.005033   0.000007
    30  H   -0.000020   0.000121   0.000007  -0.000003  -0.000011   0.000000
    31  H    0.527192  -0.016854  -0.001912  -0.005821   0.000002   0.000000
    32  H   -0.016854   0.507340   0.005728   0.000697   0.000035   0.000001
    33  H   -0.001912   0.005728   0.532083  -0.032610  -0.000001   0.000001
    34  H   -0.005821   0.000697  -0.032610   0.545708   0.000021  -0.000000
    35  H    0.000002   0.000035  -0.000001   0.000021   0.499305  -0.003542
    36  H    0.000000   0.000001   0.000001  -0.000000  -0.003542   0.518702
    37  H   -0.000000  -0.000001  -0.000031  -0.000033  -0.000270  -0.003655
    38  H   -0.000043  -0.000013   0.000135  -0.000074   0.000055  -0.000363
    39  H    0.002271  -0.000109   0.000655  -0.000104  -0.000000  -0.000000
    40  H   -0.000036   0.000015  -0.000001  -0.000001   0.000000   0.000000
    41  H    0.000000  -0.000002  -0.000002   0.000000   0.000000  -0.000000
    42  H    0.000016   0.000024  -0.000009   0.000000   0.000058  -0.000000
              37         38         39         40         41         42
     1  C    0.000000  -0.000000  -0.000000   0.000000  -0.000000   0.000001
     2  N   -0.000000   0.000000  -0.000000  -0.000000  -0.000000   0.000140
     3  C    0.000000  -0.000000  -0.000000   0.000000   0.000001   0.000254
     4  C    0.000001  -0.000005   0.000003  -0.000000  -0.000005  -0.000065
     5  C   -0.000003   0.000024   0.000052  -0.000006   0.000113   0.002639
     6  N    0.000027  -0.000348  -0.000362   0.000024  -0.000278  -0.003540
     7  C   -0.000005   0.000011   0.016205  -0.000453   0.004605  -0.036601
     8  C   -0.000007  -0.000039  -0.042670   0.006790   0.001627   0.005094
     9  C    0.000024   0.000931  -0.005378  -0.000186   0.000098  -0.000199
    10  C   -0.000191  -0.002600  -0.001142   0.000035  -0.000010   0.000040
    11  C    0.007848  -0.052402   0.000262   0.000002   0.000005  -0.000023
    12  C   -0.001210   0.015436  -0.000048  -0.000004   0.000029  -0.001172
    13  C    0.007596  -0.001160  -0.000007   0.000001  -0.000002   0.000786
    14  C   -0.038651   0.005659   0.000001  -0.000000  -0.000001  -0.000105
    15  C    0.416183  -0.035120  -0.000001  -0.000000   0.000000   0.000005
    16  C   -0.040530   0.408950   0.000018  -0.000000  -0.000000  -0.000052
    17  C   -0.000000   0.000010   0.404443  -0.038372   0.002965  -0.000045
    18  C    0.000000  -0.000001  -0.036132   0.413004  -0.032520   0.003393
    19  C    0.000000   0.000001   0.005848  -0.036300   0.400482  -0.025558
    20  C    0.000001  -0.000006  -0.002557   0.006206  -0.026899   0.406308
    21  H   -0.000000  -0.000000   0.000000   0.000000  -0.000000  -0.000000
    22  H    0.000000   0.000000   0.000000   0.000000  -0.000000  -0.000003
    23  H    0.000000  -0.000000  -0.000000  -0.000000   0.000000   0.000000
    24  H   -0.000000   0.000000   0.000000   0.000000  -0.000000  -0.000009
    25  H    0.000000  -0.000000  -0.000000  -0.000000  -0.000000   0.000003
    26  H   -0.000000   0.000000   0.000000   0.000000   0.000000  -0.000023
    27  H    0.000000  -0.000001  -0.000001   0.000000   0.000000   0.000006
    28  H   -0.000000  -0.000002  -0.000000   0.000000   0.000000  -0.000025
    29  H    0.000003  -0.000003  -0.000003   0.000001   0.000017   0.001282
    30  H   -0.000000   0.000000   0.000004  -0.000002   0.000025  -0.004780
    31  H   -0.000000  -0.000043   0.002271  -0.000036   0.000000   0.000016
    32  H   -0.000001  -0.000013  -0.000109   0.000015  -0.000002   0.000024
    33  H   -0.000031   0.000135   0.000655  -0.000001  -0.000002  -0.000009
    34  H   -0.000033  -0.000074  -0.000104  -0.000001   0.000000   0.000000
    35  H   -0.000270   0.000055  -0.000000   0.000000   0.000000   0.000058
    36  H   -0.003655  -0.000363  -0.000000   0.000000  -0.000000  -0.000000
    37  H    0.519293  -0.004437  -0.000000  -0.000000   0.000000   0.000000
    38  H   -0.004437   0.526672   0.000001  -0.000000  -0.000000  -0.000000
    39  H   -0.000000   0.000001   0.527532  -0.003914  -0.000353   0.000044
    40  H   -0.000000  -0.000000  -0.003914   0.517706  -0.003770  -0.000239
    41  H    0.000000  -0.000000  -0.000353  -0.003770   0.516161  -0.003316
    42  H    0.000000  -0.000000   0.000044  -0.000239  -0.003316   0.490413
 Mulliken charges:
               1
     1  C   -0.329583
     2  N   -0.366940
     3  C   -0.178514
     4  C   -0.329417
     5  C   -0.355563
     6  N   -0.138236
     7  C    0.100700
     8  C    0.072522
     9  C   -0.397591
    10  C   -0.320117
    11  C    0.046921
    12  C    0.162509
    13  C   -0.225039
    14  C   -0.148676
    15  C   -0.168005
    16  C   -0.180601
    17  C   -0.142730
    18  C   -0.157109
    19  C   -0.142764
    20  C   -0.204223
    21  H    0.141366
    22  H    0.141624
    23  H    0.123752
    24  H    0.212924
    25  H    0.131479
    26  H    0.144408
    27  H    0.156633
    28  H    0.179035
    29  H    0.170400
    30  H    0.198046
    31  H    0.149001
    32  H    0.173453
    33  H    0.169399
    34  H    0.153520
    35  H    0.160250
    36  H    0.139153
    37  H    0.138050
    38  H    0.138734
    39  H    0.135444
    40  H    0.139499
    41  H    0.141029
    42  H    0.165253
 Sum of Mulliken charges =  -0.00000
 Mulliken charges with hydrogens summed into heavy atoms:
               1
     1  C    0.077160
     2  N   -0.154016
     3  C    0.097373
     4  C    0.006251
     5  C    0.012883
     6  N   -0.138236
     7  C    0.100700
     8  C    0.072522
     9  C   -0.075137
    10  C    0.002803
    11  C    0.046921
    12  C    0.162509
    13  C   -0.064788
    14  C   -0.009523
    15  C   -0.029955
    16  C   -0.041868
    17  C   -0.007286
    18  C   -0.017609
    19  C   -0.001735
    20  C   -0.038969
 Electronic spatial extent (au):  <R**2>=           6292.2502
 Charge=             -0.0000 electrons
 Dipole moment (field-independent basis, Debye):
    X=              1.1846    Y=             -0.0916    Z=             -1.0091  Tot=              1.5588
 Quadrupole moment (field-independent basis, Debye-Ang):
   XX=           -112.3337   YY=           -118.6705   ZZ=           -117.5877
   XY=             -2.1487   XZ=              3.4295   YZ=             -1.2939
 Traceless Quadrupole moment (field-independent basis, Debye-Ang):
   XX=              3.8636   YY=             -2.4732   ZZ=             -1.3904
   XY=             -2.1487   XZ=              3.4295   YZ=             -1.2939
 Octapole moment (field-independent basis, Debye-Ang**2):
  XXX=             38.8330  YYY=              2.8690  ZZZ=             -7.4087  XYY=            -14.5669
  XXY=              0.1511  XXZ=            -30.4182  XZZ=             15.9694  YZZ=              8.4123
  YYZ=             18.0681  XYZ=             -4.5031
 Hexadecapole moment (field-independent basis, Debye-Ang**3):
 XXXX=          -4471.3357 YYYY=          -3181.2222 ZZZZ=           -796.1389 XXXY=             53.2368
 XXXZ=             12.3380 YYYX=            -18.1849 YYYZ=            -11.2875 ZZZX=             18.1649
 ZZZY=             10.2612 XXYY=          -1263.7617 XXZZ=           -888.6902 YYZZ=           -659.6241
 XXYZ=            -26.3597 YYXZ=              0.0773 ZZXY=             -5.9961
 N-N= 1.519171974349D+03 E-N=-4.914183591859D+03  KE= 8.041023420900D+02
 Unable to Open any file for archive entry.
 1\1\GINC-NOTCH364\SP\RM062X\def2TZVP\C18H22N2\U6032257\23-Sep-2022\0\\
 # M062X/def2tzvp int=(grid=ultrafine) nmr=giao guess=read geom=check\\
 SecN5.xyz\\0,1\C,0,0.1401715085,-3.6832980205,4.9159982765\N,0,0.31738
 19737,-3.40697121,3.4970620344\C,0,-0.9171576448,-2.9956842828,2.83487
 60424\C,0,-0.6857069268,-2.7181266816,1.3506911741\C,0,0.3562295933,-1
 .6191496796,1.1248057926\N,0,0.6112242741,-1.3802341579,-0.2961199359\
 C,0,1.9599046671,-1.0887531498,-0.6525048243\C,0,2.5094514666,-1.70703
 48634,-1.7866918171\C,0,1.630474726,-2.6105852214,-2.6012518765\C,0,0.
 5574720197,-1.8144581773,-3.3530583843\C,0,-0.478547704,-1.0774717923,
 -2.5178526024\C,0,-0.443656551,-0.8888763359,-1.1152642348\C,0,-1.5106
 123438,-0.2001612146,-0.506011324\C,0,-2.5847294629,0.2922124798,-1.23
 73445629\C,0,-2.6170427245,0.1210232819,-2.6188907713\C,0,-1.566694077
 3,-0.5546017509,-3.2295320106\C,0,3.836998769,-1.4411244977,-2.1281901
 069\C,0,4.626943765,-0.5984426395,-1.3462130751\C,0,4.0813818602,-0.00
 41563057,-0.2087698266\C,0,2.7513982376,-0.2433534818,0.1335180658\H,0
 ,1.0795672221,-4.0478062806,5.3415266659\H,0,-0.1223365172,-2.75522438
 36,5.4361215721\H,0,-0.6509539099,-4.4222361871,5.1403113101\H,0,0.672
 997035,-4.24065101,3.0338110656\H,0,-1.7319913403,-3.736006421,2.94801
 39891\H,0,-1.26789462,-2.0788156184,3.329105308\H,0,-0.34202089,-3.630
 4911094,0.8458075286\H,0,-1.6375849254,-2.4481432393,0.8840158103\H,0,
 0.0604655047,-0.7077760351,1.6696489736\H,0,1.2965820382,-1.9405938269
 ,1.5715315363\H,0,2.2332375585,-3.1648371498,-3.3277325031\H,0,1.14709
 67701,-3.3416618798,-1.943113146\H,0,1.0673680855,-1.0883065828,-4.000
 3816411\H,0,0.0187698308,-2.491032003,-4.0280078612\H,0,-1.4919274366,
 -0.035529162,0.5637819407\H,0,-3.3856469181,0.8166572046,-0.7247721058
 \H,0,-3.4455011759,0.4985686071,-3.2094713854\H,0,-1.5865123551,-0.704
 6830493,-4.3065517586\H,0,4.2593275831,-1.9187291464,-3.0085229014\H,0
 ,5.6607976324,-0.4122217141,-1.6197987526\H,0,4.6850120135,0.655185389
 8,0.4075487758\H,0,2.3205633887,0.2327812982,1.0079715462\\Version=ES6
 4L-G16RevC.01\State=1-A\HF=-808.5957229\RMSD=4.061e-09\Dipole=-0.12804
 35,-0.5266775,0.2869028\Quadrupole=-1.2709665,-2.145969,3.4169355,-0.5
 099769,-2.5453758,0.8013624\PG=C01 [X(C18H22N2)]\\@
 The archive entry for this job was punched.


       THE DEATH-KNELL OF THE ATOM

 SO THE ATOMS IN TURN, WE NOW CLEARLY DISCERN,
 FLY TO BITS WITH THE UTMOST FACILITY;
 THEY WEND ON THEIR WAY, AND, IN SPLITTING, DISPLAY
 AN ABSOLUTE LACK OF STABILITY.

          SIR WM. RAMSAY, 1905
 Job cpu time:       0 days  2 hours 33 minutes 48.2 seconds.
 Elapsed time:       0 days  0 hours  3 minutes 22.4 seconds.
 File lengths (MBytes):  RWF=    318 Int=      0 D2E=      0 Chk=     53 Scr=      1
 Normal termination of Gaussian 16 at Fri Sep 23 16:32:25 2022.
