 Entering Gaussian System, Link 0=/uufs/chpc.utah.edu/sys/installdir/gaussian16/C01/AVX2/g16/g16
 Input=SecN5_clust-13.com
 Output=SecN5_clust-13.log
 Initial command:
 /uufs/chpc.utah.edu/sys/installdir/gaussian16/C01/AVX2/g16/l1.exe "/scratch/local/u6032257/5771823/notchpeak.peaks/Gau-602138.inp" -scrdir="/scratch/local/u6032257/5771823/notchpeak.peaks/"
 Entering Link 1 = /uufs/chpc.utah.edu/sys/installdir/gaussian16/C01/AVX2/g16/l1.exe PID=    602140.
  
 Copyright (c) 1988-2019, Gaussian, Inc.  All Rights Reserved.
  
 This is part of the Gaussian(R) 16 program.  It is based on
 the Gaussian(R) 09 system (copyright 2009, Gaussian, Inc.),
 the Gaussian(R) 03 system (copyright 2003, Gaussian, Inc.),
 the Gaussian(R) 98 system (copyright 1998, Gaussian, Inc.),
 the Gaussian(R) 94 system (copyright 1995, Gaussian, Inc.),
 the Gaussian 92(TM) system (copyright 1992, Gaussian, Inc.),
 the Gaussian 90(TM) system (copyright 1990, Gaussian, Inc.),
 the Gaussian 88(TM) system (copyright 1988, Gaussian, Inc.),
 the Gaussian 86(TM) system (copyright 1986, Carnegie Mellon
 University), and the Gaussian 82(TM) system (copyright 1983,
 Carnegie Mellon University). Gaussian is a federally registered
 trademark of Gaussian, Inc.
  
 This software contains proprietary and confidential information,
 including trade secrets, belonging to Gaussian, Inc.
  
 This software is provided under written license and may be
 used, copied, transmitted, or stored only in accord with that
 written license.
  
 The following legend is applicable only to US Government
 contracts under FAR:
  
                    RESTRICTED RIGHTS LEGEND
  
 Use, reproduction and disclosure by the US Government is
 subject to restrictions as set forth in subparagraphs (a)
 and (c) of the Commercial Computer Software - Restricted
 Rights clause in FAR 52.227-19.
  
 Gaussian, Inc.
 340 Quinnipiac St., Bldg. 40, Wallingford CT 06492
  
  
 ---------------------------------------------------------------
 Warning -- This program may not be used in any manner that
 competes with the business of Gaussian, Inc. or will provide
 assistance to any competitor of Gaussian, Inc.  The licensee
 of this program is prohibited from giving any competitor of
 Gaussian, Inc. access to this program.  By using this program,
 the user acknowledges that Gaussian, Inc. is engaged in the
 business of creating and licensing software in the field of
 computational chemistry and represents and warrants to the
 licensee that it is not a competitor of Gaussian, Inc. and that
 it will not use this program in any manner prohibited above.
 ---------------------------------------------------------------
  

 Cite this work as:
 Gaussian 16, Revision C.01,
 M. J. Frisch, G. W. Trucks, H. B. Schlegel, G. E. Scuseria, 
 M. A. Robb, J. R. Cheeseman, G. Scalmani, V. Barone, 
 G. A. Petersson, H. Nakatsuji, X. Li, M. Caricato, A. V. Marenich, 
 J. Bloino, B. G. Janesko, R. Gomperts, B. Mennucci, H. P. Hratchian, 
 J. V. Ortiz, A. F. Izmaylov, J. L. Sonnenberg, D. Williams-Young, 
 F. Ding, F. Lipparini, F. Egidi, J. Goings, B. Peng, A. Petrone, 
 T. Henderson, D. Ranasinghe, V. G. Zakrzewski, J. Gao, N. Rega, 
 G. Zheng, W. Liang, M. Hada, M. Ehara, K. Toyota, R. Fukuda, 
 J. Hasegawa, M. Ishida, T. Nakajima, Y. Honda, O. Kitao, H. Nakai, 
 T. Vreven, K. Throssell, J. A. Montgomery, Jr., J. E. Peralta, 
 F. Ogliaro, M. J. Bearpark, J. J. Heyd, E. N. Brothers, K. N. Kudin, 
 V. N. Staroverov, T. A. Keith, R. Kobayashi, J. Normand, 
 K. Raghavachari, A. P. Rendell, J. C. Burant, S. S. Iyengar, 
 J. Tomasi, M. Cossi, J. M. Millam, M. Klene, C. Adamo, R. Cammi, 
 J. W. Ochterski, R. L. Martin, K. Morokuma, O. Farkas, 
 J. B. Foresman, and D. J. Fox, Gaussian, Inc., Wallingford CT, 2019.
 
 ******************************************
 Gaussian 16:  ES64L-G16RevC.01  3-Jul-2019
                23-Sep-2022 
 ******************************************
 %NProcShared=40
 Will use up to   40 processors via shared memory.
 %mem=16GB
 %chk=SecN5_clust-13.chk
 ----------------------------------------------------------------------
 # B3LYP/6-31G(d,p) empiricaldispersion=GD3BJ int=(grid=ultrafine) opt 
 freq=noraman
 ----------------------------------------------------------------------
 1/18=20,19=15,26=4,38=1/1,3;
 2/9=110,12=2,17=6,18=5,40=1/2;
 3/5=1,6=6,7=101,11=2,25=1,30=1,71=1,74=-5,75=-5,124=41/1,2,3;
 4//1;
 5/5=2,38=5/2;
 6/7=2,8=2,9=2,10=2,28=1/1;
 7//1,2,3,16;
 1/18=20,19=15,26=4/3(2);
 2/9=110/2;
 99//99;
 2/9=110/2;
 3/5=1,6=6,7=101,11=2,25=1,30=1,71=1,74=-5,75=-5,124=41/1,2,3;
 4/5=5,16=3,69=1/1;
 5/5=2,38=5/2;
 7//1,2,3,16;
 1/18=20,19=15,26=4/3(-5);
 2/9=110/2;
 6/7=2,8=2,9=2,10=2,19=2,28=1/1;
 99/9=1/99;
 ---------
 SecN5.xyz
 ---------
 Symbolic Z-matrix:
 Charge =  0 Multiplicity = 1
 C                    -1.0525   -4.2904    1.8553 
 N                     0.0993   -3.411     1.7155 
 C                     0.3701   -2.6472    2.9185 
 C                     1.2237   -1.423     2.5385 
 C                     0.5319   -0.4419    1.5525 
 N                     0.6401   -0.8375    0.1241 
 C                     1.9573   -0.8897   -0.3818 
 C                     2.3978   -1.9679   -1.1754 
 C                     1.4202   -3.0577   -1.5676 
 C                     0.2745   -2.5432   -2.4403 
 C                    -0.7246   -1.5341   -1.8672 
 C                    -0.517    -0.7525   -0.6933 
 C                    -1.5163    0.1877   -0.368 
 C                    -2.6811    0.3362   -1.1135 
 C                    -2.8794   -0.4506   -2.2361 
 C                    -1.9041   -1.3662   -2.6084 
 C                     3.722    -2.0059   -1.632 
 C                     4.6177   -0.989    -1.3163 
 C                     4.1939    0.0856   -0.5441 
 C                     2.8788    0.1296   -0.0866 
 H                    -0.8981   -5.0193    2.6531 
 H                    -1.215    -4.8421    0.9282 
 H                    -1.9632   -3.7267    2.0662 
 H                     0.0331   -2.7425    0.9428 
 H                    -0.5614   -2.3031    3.3742 
 H                     0.8898   -3.2702    3.6492 
 H                     1.4745   -0.8867    3.4533 
 H                     2.1669   -1.7906    2.1309 
 H                    -0.5171   -0.4539    1.8508 
 H                     0.8599    0.5845    1.72 
 H                     1.9525   -3.8333   -2.1197 
 H                     1.0534   -3.5649   -0.6777 
 H                     0.7084   -2.0902   -3.3334 
 H                    -0.2868   -3.411    -2.7905 
 H                    -1.3901    0.8504    0.4725 
 H                    -3.4205    1.0688   -0.8243 
 H                    -3.7775   -0.341    -2.8273 
 H                    -2.0664   -1.9537   -3.5011 
 H                     4.0603   -2.8301   -2.2432 
 H                     5.6359   -1.032    -1.676 
 H                     4.8791    0.8839   -0.2997 
 H                     2.5709    0.9779    0.5021 
 

 GradGradGradGradGradGradGradGradGradGradGradGradGradGradGradGradGradGrad
 Berny optimization.
 Initialization pass.
                           ----------------------------
                           !    Initial Parameters    !
                           ! (Angstroms and Degrees)  !
 --------------------------                            --------------------------
 ! Name  Definition              Value          Derivative Info.                !
 --------------------------------------------------------------------------------
 ! R1    R(1,2)                  1.4559         estimate D2E/DX2                !
 ! R2    R(1,21)                 1.0916         estimate D2E/DX2                !
 ! R3    R(1,22)                 1.091          estimate D2E/DX2                !
 ! R4    R(1,23)                 1.0916         estimate D2E/DX2                !
 ! R5    R(2,3)                  1.4505         estimate D2E/DX2                !
 ! R6    R(2,24)                 1.0239         estimate D2E/DX2                !
 ! R7    R(3,4)                  1.54           estimate D2E/DX2                !
 ! R8    R(3,25)                 1.0926         estimate D2E/DX2                !
 ! R9    R(3,26)                 1.0919         estimate D2E/DX2                !
 ! R10   R(4,5)                  1.5535         estimate D2E/DX2                !
 ! R11   R(4,27)                 1.0897         estimate D2E/DX2                !
 ! R12   R(4,28)                 1.0913         estimate D2E/DX2                !
 ! R13   R(5,6)                  1.4861         estimate D2E/DX2                !
 ! R14   R(5,29)                 1.0907         estimate D2E/DX2                !
 ! R15   R(5,30)                 1.0905         estimate D2E/DX2                !
 ! R16   R(6,7)                  1.412          estimate D2E/DX2                !
 ! R17   R(6,12)                 1.4192         estimate D2E/DX2                !
 ! R18   R(7,8)                  1.4094         estimate D2E/DX2                !
 ! R19   R(7,20)                 1.4054         estimate D2E/DX2                !
 ! R20   R(8,9)                  1.5156         estimate D2E/DX2                !
 ! R21   R(8,17)                 1.4012         estimate D2E/DX2                !
 ! R22   R(9,10)                 1.5294         estimate D2E/DX2                !
 ! R23   R(9,31)                 1.0907         estimate D2E/DX2                !
 ! R24   R(9,32)                 1.088          estimate D2E/DX2                !
 ! R25   R(10,11)                1.5313         estimate D2E/DX2                !
 ! R26   R(10,33)                1.0914         estimate D2E/DX2                !
 ! R27   R(10,34)                1.0912         estimate D2E/DX2                !
 ! R28   R(11,12)                1.4255         estimate D2E/DX2                !
 ! R29   R(11,16)                1.4031         estimate D2E/DX2                !
 ! R30   R(12,13)                1.4101         estimate D2E/DX2                !
 ! R31   R(13,14)                1.3909         estimate D2E/DX2                !
 ! R32   R(13,35)                1.0777         estimate D2E/DX2                !
 ! R33   R(14,15)                1.3851         estimate D2E/DX2                !
 ! R34   R(14,36)                1.0803         estimate D2E/DX2                !
 ! R35   R(15,16)                1.3886         estimate D2E/DX2                !
 ! R36   R(15,37)                1.0808         estimate D2E/DX2                !
 ! R37   R(16,38)                1.0809         estimate D2E/DX2                !
 ! R38   R(17,18)                1.3914         estimate D2E/DX2                !
 ! R39   R(17,39)                1.0804         estimate D2E/DX2                !
 ! R40   R(18,19)                1.3895         estimate D2E/DX2                !
 ! R41   R(18,40)                1.0807         estimate D2E/DX2                !
 ! R42   R(19,20)                1.3931         estimate D2E/DX2                !
 ! R43   R(19,41)                1.0801         estimate D2E/DX2                !
 ! R44   R(20,42)                1.0775         estimate D2E/DX2                !
 ! A1    A(2,1,21)             111.1993         estimate D2E/DX2                !
 ! A2    A(2,1,22)             109.9799         estimate D2E/DX2                !
 ! A3    A(2,1,23)             111.5099         estimate D2E/DX2                !
 ! A4    A(21,1,22)            107.7256         estimate D2E/DX2                !
 ! A5    A(21,1,23)            108.7604         estimate D2E/DX2                !
 ! A6    A(22,1,23)            107.5204         estimate D2E/DX2                !
 ! A7    A(1,2,3)              112.7144         estimate D2E/DX2                !
 ! A8    A(1,2,24)             114.5633         estimate D2E/DX2                !
 ! A9    A(3,2,24)             107.1078         estimate D2E/DX2                !
 ! A10   A(2,3,4)              108.5071         estimate D2E/DX2                !
 ! A11   A(2,3,25)             110.6457         estimate D2E/DX2                !
 ! A12   A(2,3,26)             110.0868         estimate D2E/DX2                !
 ! A13   A(4,3,25)             108.9725         estimate D2E/DX2                !
 ! A14   A(4,3,26)             110.7861         estimate D2E/DX2                !
 ! A15   A(25,3,26)            107.8412         estimate D2E/DX2                !
 ! A16   A(3,4,5)              114.3185         estimate D2E/DX2                !
 ! A17   A(3,4,27)             108.1591         estimate D2E/DX2                !
 ! A18   A(3,4,28)             107.6652         estimate D2E/DX2                !
 ! A19   A(5,4,27)             108.936          estimate D2E/DX2                !
 ! A20   A(5,4,28)             111.1349         estimate D2E/DX2                !
 ! A21   A(27,4,28)            106.2855         estimate D2E/DX2                !
 ! A22   A(4,5,6)              114.1742         estimate D2E/DX2                !
 ! A23   A(4,5,29)             104.3455         estimate D2E/DX2                !
 ! A24   A(4,5,30)             111.2844         estimate D2E/DX2                !
 ! A25   A(6,5,29)             109.2677         estimate D2E/DX2                !
 ! A26   A(6,5,30)             112.1043         estimate D2E/DX2                !
 ! A27   A(29,5,30)            104.9303         estimate D2E/DX2                !
 ! A28   A(5,6,7)              114.9697         estimate D2E/DX2                !
 ! A29   A(5,6,12)             118.5726         estimate D2E/DX2                !
 ! A30   A(7,6,12)             123.8092         estimate D2E/DX2                !
 ! A31   A(6,7,8)              121.4396         estimate D2E/DX2                !
 ! A32   A(6,7,20)             120.6363         estimate D2E/DX2                !
 ! A33   A(8,7,20)             117.9157         estimate D2E/DX2                !
 ! A34   A(7,8,9)              119.616          estimate D2E/DX2                !
 ! A35   A(7,8,17)             119.9735         estimate D2E/DX2                !
 ! A36   A(9,8,17)             120.3797         estimate D2E/DX2                !
 ! A37   A(8,9,10)             112.89           estimate D2E/DX2                !
 ! A38   A(8,9,31)             109.1168         estimate D2E/DX2                !
 ! A39   A(8,9,32)             109.9378         estimate D2E/DX2                !
 ! A40   A(10,9,31)            108.4195         estimate D2E/DX2                !
 ! A41   A(10,9,32)            111.7777         estimate D2E/DX2                !
 ! A42   A(31,9,32)            104.303          estimate D2E/DX2                !
 ! A43   A(9,10,11)            119.7951         estimate D2E/DX2                !
 ! A44   A(9,10,33)            107.9846         estimate D2E/DX2                !
 ! A45   A(9,10,34)            107.5136         estimate D2E/DX2                !
 ! A46   A(11,10,33)           106.9856         estimate D2E/DX2                !
 ! A47   A(11,10,34)           107.9723         estimate D2E/DX2                !
 ! A48   A(33,10,34)           105.7814         estimate D2E/DX2                !
 ! A49   A(10,11,12)           125.0645         estimate D2E/DX2                !
 ! A50   A(10,11,16)           115.443          estimate D2E/DX2                !
 ! A51   A(12,11,16)           119.4605         estimate D2E/DX2                !
 ! A52   A(6,12,11)            124.0686         estimate D2E/DX2                !
 ! A53   A(6,12,13)            119.0022         estimate D2E/DX2                !
 ! A54   A(11,12,13)           116.8948         estimate D2E/DX2                !
 ! A55   A(12,13,14)           122.7527         estimate D2E/DX2                !
 ! A56   A(12,13,35)           120.4584         estimate D2E/DX2                !
 ! A57   A(14,13,35)           116.7701         estimate D2E/DX2                !
 ! A58   A(13,14,15)           119.5802         estimate D2E/DX2                !
 ! A59   A(13,14,36)           120.139          estimate D2E/DX2                !
 ! A60   A(15,14,36)           120.2771         estimate D2E/DX2                !
 ! A61   A(14,15,16)           119.4256         estimate D2E/DX2                !
 ! A62   A(14,15,37)           120.3106         estimate D2E/DX2                !
 ! A63   A(16,15,37)           120.2552         estimate D2E/DX2                !
 ! A64   A(11,16,15)           121.8501         estimate D2E/DX2                !
 ! A65   A(11,16,38)           119.8307         estimate D2E/DX2                !
 ! A66   A(15,16,38)           118.317          estimate D2E/DX2                !
 ! A67   A(8,17,18)            120.9703         estimate D2E/DX2                !
 ! A68   A(8,17,39)            120.0617         estimate D2E/DX2                !
 ! A69   A(18,17,39)           118.9672         estimate D2E/DX2                !
 ! A70   A(17,18,19)           119.6677         estimate D2E/DX2                !
 ! A71   A(17,18,40)           120.1255         estimate D2E/DX2                !
 ! A72   A(19,18,40)           120.2054         estimate D2E/DX2                !
 ! A73   A(18,19,20)           119.6608         estimate D2E/DX2                !
 ! A74   A(18,19,41)           120.2575         estimate D2E/DX2                !
 ! A75   A(20,19,41)           120.0817         estimate D2E/DX2                !
 ! A76   A(7,20,19)            121.8076         estimate D2E/DX2                !
 ! A77   A(7,20,42)            119.893          estimate D2E/DX2                !
 ! A78   A(19,20,42)           118.2976         estimate D2E/DX2                !
 ! D1    D(21,1,2,3)           -60.7235         estimate D2E/DX2                !
 ! D2    D(21,1,2,24)          176.4591         estimate D2E/DX2                !
 ! D3    D(22,1,2,3)          -179.9645         estimate D2E/DX2                !
 ! D4    D(22,1,2,24)           57.218          estimate D2E/DX2                !
 ! D5    D(23,1,2,3)            60.8531         estimate D2E/DX2                !
 ! D6    D(23,1,2,24)          -61.9643         estimate D2E/DX2                !
 ! D7    D(1,2,3,4)           -159.5862         estimate D2E/DX2                !
 ! D8    D(1,2,3,25)           -40.0814         estimate D2E/DX2                !
 ! D9    D(1,2,3,26)            79.0225         estimate D2E/DX2                !
 ! D10   D(24,2,3,4)           -32.6909         estimate D2E/DX2                !
 ! D11   D(24,2,3,25)           86.8139         estimate D2E/DX2                !
 ! D12   D(24,2,3,26)         -154.0821         estimate D2E/DX2                !
 ! D13   D(2,3,4,5)             61.8491         estimate D2E/DX2                !
 ! D14   D(2,3,4,27)          -176.6174         estimate D2E/DX2                !
 ! D15   D(2,3,4,28)           -62.1495         estimate D2E/DX2                !
 ! D16   D(25,3,4,5)           -58.6985         estimate D2E/DX2                !
 ! D17   D(25,3,4,27)           62.835          estimate D2E/DX2                !
 ! D18   D(25,3,4,28)          177.3029         estimate D2E/DX2                !
 ! D19   D(26,3,4,5)          -177.1904         estimate D2E/DX2                !
 ! D20   D(26,3,4,27)          -55.6569         estimate D2E/DX2                !
 ! D21   D(26,3,4,28)           58.811          estimate D2E/DX2                !
 ! D22   D(3,4,5,6)            -82.9022         estimate D2E/DX2                !
 ! D23   D(3,4,5,29)            36.3161         estimate D2E/DX2                !
 ! D24   D(3,4,5,30)           148.9619         estimate D2E/DX2                !
 ! D25   D(27,4,5,6)           155.9927         estimate D2E/DX2                !
 ! D26   D(27,4,5,29)          -84.7889         estimate D2E/DX2                !
 ! D27   D(27,4,5,30)           27.8569         estimate D2E/DX2                !
 ! D28   D(28,4,5,6)            39.2188         estimate D2E/DX2                !
 ! D29   D(28,4,5,29)          158.4371         estimate D2E/DX2                !
 ! D30   D(28,4,5,30)          -88.9171         estimate D2E/DX2                !
 ! D31   D(4,5,6,7)            -62.3157         estimate D2E/DX2                !
 ! D32   D(4,5,6,12)           135.411          estimate D2E/DX2                !
 ! D33   D(29,5,6,7)          -178.7141         estimate D2E/DX2                !
 ! D34   D(29,5,6,12)           19.0126         estimate D2E/DX2                !
 ! D35   D(30,5,6,7)            65.4016         estimate D2E/DX2                !
 ! D36   D(30,5,6,12)          -96.8717         estimate D2E/DX2                !
 ! D37   D(5,6,7,8)            135.0548         estimate D2E/DX2                !
 ! D38   D(5,6,7,20)           -43.8688         estimate D2E/DX2                !
 ! D39   D(12,6,7,8)           -63.7179         estimate D2E/DX2                !
 ! D40   D(12,6,7,20)          117.3585         estimate D2E/DX2                !
 ! D41   D(5,6,12,11)         -154.9315         estimate D2E/DX2                !
 ! D42   D(5,6,12,13)           27.2719         estimate D2E/DX2                !
 ! D43   D(7,6,12,11)           44.4704         estimate D2E/DX2                !
 ! D44   D(7,6,12,13)         -133.3262         estimate D2E/DX2                !
 ! D45   D(6,7,8,9)              3.7006         estimate D2E/DX2                !
 ! D46   D(6,7,8,17)          -178.3113         estimate D2E/DX2                !
 ! D47   D(20,7,8,9)          -177.3476         estimate D2E/DX2                !
 ! D48   D(20,7,8,17)            0.6405         estimate D2E/DX2                !
 ! D49   D(6,7,20,19)          178.3204         estimate D2E/DX2                !
 ! D50   D(6,7,20,42)           -2.1783         estimate D2E/DX2                !
 ! D51   D(8,7,20,19)           -0.6403         estimate D2E/DX2                !
 ! D52   D(8,7,20,42)          178.861          estimate D2E/DX2                !
 ! D53   D(7,8,9,10)            63.0954         estimate D2E/DX2                !
 ! D54   D(7,8,9,31)          -176.2846         estimate D2E/DX2                !
 ! D55   D(7,8,9,32)           -62.4643         estimate D2E/DX2                !
 ! D56   D(17,8,9,10)         -114.8844         estimate D2E/DX2                !
 ! D57   D(17,8,9,31)            5.7356         estimate D2E/DX2                !
 ! D58   D(17,8,9,32)          119.5559         estimate D2E/DX2                !
 ! D59   D(7,8,17,18)           -0.1322         estimate D2E/DX2                !
 ! D60   D(7,8,17,39)         -179.7958         estimate D2E/DX2                !
 ! D61   D(9,8,17,18)          177.8403         estimate D2E/DX2                !
 ! D62   D(9,8,17,39)           -1.8233         estimate D2E/DX2                !
 ! D63   D(8,9,10,11)          -64.5846         estimate D2E/DX2                !
 ! D64   D(8,9,10,33)           58.0855         estimate D2E/DX2                !
 ! D65   D(8,9,10,34)          171.806          estimate D2E/DX2                !
 ! D66   D(31,9,10,11)         174.3983         estimate D2E/DX2                !
 ! D67   D(31,9,10,33)         -62.9317         estimate D2E/DX2                !
 ! D68   D(31,9,10,34)          50.7889         estimate D2E/DX2                !
 ! D69   D(32,9,10,11)          59.9761         estimate D2E/DX2                !
 ! D70   D(32,9,10,33)        -177.3538         estimate D2E/DX2                !
 ! D71   D(32,9,10,34)         -63.6333         estimate D2E/DX2                !
 ! D72   D(9,10,11,12)          16.7897         estimate D2E/DX2                !
 ! D73   D(9,10,11,16)        -165.2885         estimate D2E/DX2                !
 ! D74   D(33,10,11,12)       -106.3666         estimate D2E/DX2                !
 ! D75   D(33,10,11,16)         71.5552         estimate D2E/DX2                !
 ! D76   D(34,10,11,12)        140.1773         estimate D2E/DX2                !
 ! D77   D(34,10,11,16)        -41.9008         estimate D2E/DX2                !
 ! D78   D(10,11,12,6)          -1.8271         estimate D2E/DX2                !
 ! D79   D(10,11,12,13)        176.0121         estimate D2E/DX2                !
 ! D80   D(16,11,12,6)        -179.6717         estimate D2E/DX2                !
 ! D81   D(16,11,12,13)         -1.8325         estimate D2E/DX2                !
 ! D82   D(10,11,16,15)       -177.6719         estimate D2E/DX2                !
 ! D83   D(10,11,16,38)          1.7775         estimate D2E/DX2                !
 ! D84   D(12,11,16,15)          0.3745         estimate D2E/DX2                !
 ! D85   D(12,11,16,38)        179.8239         estimate D2E/DX2                !
 ! D86   D(6,12,13,14)        -179.9308         estimate D2E/DX2                !
 ! D87   D(6,12,13,35)           1.7            estimate D2E/DX2                !
 ! D88   D(11,12,13,14)          2.1158         estimate D2E/DX2                !
 ! D89   D(11,12,13,35)       -176.2534         estimate D2E/DX2                !
 ! D90   D(12,13,14,15)         -0.8644         estimate D2E/DX2                !
 ! D91   D(12,13,14,36)        179.8358         estimate D2E/DX2                !
 ! D92   D(35,13,14,15)        177.5612         estimate D2E/DX2                !
 ! D93   D(35,13,14,36)         -1.7387         estimate D2E/DX2                !
 ! D94   D(13,14,15,16)         -0.7051         estimate D2E/DX2                !
 ! D95   D(13,14,15,37)       -179.6399         estimate D2E/DX2                !
 ! D96   D(36,14,15,16)        178.5938         estimate D2E/DX2                !
 ! D97   D(36,14,15,37)         -0.3409         estimate D2E/DX2                !
 ! D98   D(14,15,16,11)          0.9391         estimate D2E/DX2                !
 ! D99   D(14,15,16,38)       -178.5183         estimate D2E/DX2                !
 ! D100  D(37,15,16,11)        179.8745         estimate D2E/DX2                !
 ! D101  D(37,15,16,38)          0.4171         estimate D2E/DX2                !
 ! D102  D(8,17,18,19)          -0.4061         estimate D2E/DX2                !
 ! D103  D(8,17,18,40)        -179.9819         estimate D2E/DX2                !
 ! D104  D(39,17,18,19)        179.2612         estimate D2E/DX2                !
 ! D105  D(39,17,18,40)         -0.3147         estimate D2E/DX2                !
 ! D106  D(17,18,19,20)          0.4132         estimate D2E/DX2                !
 ! D107  D(17,18,19,41)       -179.5323         estimate D2E/DX2                !
 ! D108  D(40,18,19,20)        179.9887         estimate D2E/DX2                !
 ! D109  D(40,18,19,41)          0.0432         estimate D2E/DX2                !
 ! D110  D(18,19,20,7)           0.1166         estimate D2E/DX2                !
 ! D111  D(18,19,20,42)       -179.3923         estimate D2E/DX2                !
 ! D112  D(41,19,20,7)        -179.9379         estimate D2E/DX2                !
 ! D113  D(41,19,20,42)          0.5532         estimate D2E/DX2                !
 --------------------------------------------------------------------------------
 Trust Radius=3.00D-01 FncErr=1.00D-07 GrdErr=1.00D-06 EigMax=2.50D+02 EigMin=1.00D-04
 Number of steps in this run=    245 maximum allowed number of steps=    252.
 GradGradGradGradGradGradGradGradGradGradGradGradGradGradGradGradGradGrad

                          Input orientation:                          
 ---------------------------------------------------------------------
 Center     Atomic      Atomic             Coordinates (Angstroms)
 Number     Number       Type             X           Y           Z
 ---------------------------------------------------------------------
      1          6           0       -1.052500   -4.290400    1.855300
      2          7           0        0.099300   -3.411000    1.715500
      3          6           0        0.370100   -2.647200    2.918500
      4          6           0        1.223700   -1.423000    2.538500
      5          6           0        0.531900   -0.441900    1.552500
      6          7           0        0.640100   -0.837500    0.124100
      7          6           0        1.957300   -0.889700   -0.381800
      8          6           0        2.397800   -1.967900   -1.175400
      9          6           0        1.420200   -3.057700   -1.567600
     10          6           0        0.274500   -2.543200   -2.440300
     11          6           0       -0.724600   -1.534100   -1.867200
     12          6           0       -0.517000   -0.752500   -0.693300
     13          6           0       -1.516300    0.187700   -0.368000
     14          6           0       -2.681100    0.336200   -1.113500
     15          6           0       -2.879400   -0.450600   -2.236100
     16          6           0       -1.904100   -1.366200   -2.608400
     17          6           0        3.722000   -2.005900   -1.632000
     18          6           0        4.617700   -0.989000   -1.316300
     19          6           0        4.193900    0.085600   -0.544100
     20          6           0        2.878800    0.129600   -0.086600
     21          1           0       -0.898100   -5.019300    2.653100
     22          1           0       -1.215000   -4.842100    0.928200
     23          1           0       -1.963200   -3.726700    2.066200
     24          1           0        0.033100   -2.742500    0.942800
     25          1           0       -0.561400   -2.303100    3.374200
     26          1           0        0.889800   -3.270200    3.649200
     27          1           0        1.474500   -0.886700    3.453300
     28          1           0        2.166900   -1.790600    2.130900
     29          1           0       -0.517100   -0.453900    1.850800
     30          1           0        0.859900    0.584500    1.720000
     31          1           0        1.952500   -3.833300   -2.119700
     32          1           0        1.053400   -3.564900   -0.677700
     33          1           0        0.708400   -2.090200   -3.333400
     34          1           0       -0.286800   -3.411000   -2.790500
     35          1           0       -1.390100    0.850400    0.472500
     36          1           0       -3.420500    1.068800   -0.824300
     37          1           0       -3.777500   -0.341000   -2.827300
     38          1           0       -2.066400   -1.953700   -3.501100
     39          1           0        4.060300   -2.830100   -2.243200
     40          1           0        5.635900   -1.032000   -1.676000
     41          1           0        4.879100    0.883900   -0.299700
     42          1           0        2.570900    0.977900    0.502100
 ---------------------------------------------------------------------
                    Distance matrix (angstroms):
                    1          2          3          4          5
     1  C    0.000000
     2  N    1.455861   0.000000
     3  C    2.419564   1.450494   0.000000
     4  C    3.724222   2.427704   1.540032   0.000000
     5  C    4.172884   3.004874   2.599131   1.553493   0.000000
     6  N    4.217163   3.073747   3.340148   2.552004   1.486113
     7  C    5.062437   3.769322   4.062018   3.057896   2.444137
     8  C    5.146233   3.965217   4.618770   3.932999   3.640288
     9  C    4.398868   3.556451   4.625615   4.423903   4.167315
    10  C    4.823465   4.249052   5.360662   5.190788   4.519311
    11  C    4.643459   4.127627   5.033913   4.818548   3.803425
    12  C    4.393047   3.640023   4.173959   3.731506   2.498055
    13  C    5.021111   4.461141   4.732467   4.306936   2.877471
    14  C    5.733371   5.456682   5.870905   5.628441   4.246924
    15  C    5.900948   5.766434   6.477206   6.370070   5.098091
    16  C    5.403775   5.185647   6.112248   6.023034   4.909329
    17  C    6.338458   5.128744   5.688018   4.896360   4.771150
    18  C    7.287624   5.955991   6.222963   5.154326   5.022260
    19  C    7.240940   5.839328   5.837743   4.538765   4.252556
    20  C    6.225953   4.848611   4.799460   3.470025   2.919110
    21  H    1.091613   2.111997   2.702892   4.177145   4.920245
    22  H    1.091006   2.096491   3.360271   4.497840   4.775266
    23  H    1.091609   2.115789   2.708510   3.960610   4.156840
    24  H    2.099328   1.023885   2.006500   2.388486   2.431727
    25  H    2.549039   2.101250   1.092593   2.158600   2.824528
    26  H    2.833975   2.093779   1.091851   2.181122   3.538859
    27  H    4.530398   3.359050   2.145943   1.089668   2.167806
    28  H    4.085277   2.659553   2.140693   1.091281   2.196990
    29  H    3.873681   3.023689   2.595703   2.107717   1.090655
    30  H    5.238342   4.067254   3.481406   2.198260   1.090476
    31  H    5.003957   4.280356   5.412419   5.295236   5.196610
    32  H    3.373019   2.580968   3.773821   3.867904   3.872839
    33  H    5.904596   5.254228   6.285774   5.932108   5.159464
    34  H    4.789895   4.522511   5.797205   5.884896   5.324235
    35  H    5.334223   4.682189   4.616755   4.033442   2.555489
    36  H    6.442725   6.237643   6.495064   6.251886   4.853129
    37  H    6.704486   6.715021   7.452205   7.414481   6.145222
    38  H    5.931204   5.833258   6.901358   6.898055   5.880100
    39  H    6.713487   5.630122   6.347769   5.735058   5.706176
    40  H    8.235408   6.914901   7.172653   6.114115   6.068134
    41  H    8.160961   6.734514   6.569365   5.170988   4.907804
    42  H    6.535684   5.181080   4.880969   3.424353   2.697535
                    6          7          8          9         10
     6  N    0.000000
     7  C    1.411976   0.000000
     8  C    2.460897   1.409382   0.000000
     9  C    2.898222   2.528799   1.515647   0.000000
    10  C    3.101487   3.131022   2.537586   1.529361   0.000000
    11  C    2.512555   3.132771   3.227406   2.647883   1.531316
    12  C    1.419242   2.497602   3.194632   3.135457   2.623945
    13  C    2.437880   3.636878   4.540780   4.538138   3.867713
    14  C    3.733577   4.853140   5.577449   5.342792   4.334387
    15  C    4.255246   5.198548   5.592506   5.072516   3.790483
    16  C    3.770813   4.482768   4.574044   3.872390   2.481911
    17  C    3.734589   2.433736   1.401226   2.531544   3.581522
    18  C    4.233085   2.821503   2.430237   3.816632   4.747873
    19  C    3.732037   2.445390   2.800246   4.315240   5.086046
    20  C    2.447745   1.405446   2.411712   3.805227   4.412045
    21  H    5.123412   5.866645   5.901814   5.199682   5.783493
    22  H    4.486067   5.234602   5.073311   4.044426   4.341698
    23  H    4.346999   5.423246   5.711363   5.009936   5.168802
    24  H    2.160496   2.981607   3.267810   2.885395   3.397552
    25  H    3.762278   4.738047   5.437654   5.377504   5.879183
    26  H    4.290304   4.801593   5.219848   5.247998   6.163533
    27  H    3.432523   3.865372   4.842142   5.470432   6.238470
    28  H    2.695694   2.677539   3.319092   3.980202   5.004344
    29  H    2.113706   3.361113   4.466176   4.713636   4.837907
    30  H    2.148789   2.791973   4.154904   4.938408   5.237680
    31  H    3.966340   3.418348   2.137688   1.090740   2.140754
    32  H    2.872701   2.839241   2.146049   1.087987   2.181127
    33  H    3.678074   3.422411   2.743354   2.135595   1.091378
    34  H    3.997116   4.146658   3.449371   2.129355   1.091226
    35  H    2.663100   3.868186   5.000658   5.228101   4.771983
    36  H    4.584966   5.740406   6.572475   6.404129   5.413966
    37  H    5.335960   6.258552   6.596204   5.998616   4.627976
    38  H    4.659734   5.201182   5.033703   4.136861   2.636782
    39  H    4.612194   3.413586   2.155804   2.734660   3.801768
    40  H    5.313775   3.902217   3.407609   4.678390   5.622499
    41  H    4.594774   3.418964   3.880266   5.395162   6.126135
    42  H    2.677041   2.155392   3.394364   4.679085   5.131210
                   11         12         13         14         15
    11  C    0.000000
    12  C    1.425496   0.000000
    13  C    2.416399   1.410105   0.000000
    14  C    2.809622   2.458692   1.390892   0.000000
    15  C    2.439923   2.837659   2.399014   1.385138   0.000000
    16  C    1.403135   2.443007   2.753976   2.395124   1.388575
    17  C    4.477741   4.518992   5.818021   6.837687   6.808992
    18  C    5.398221   5.177761   6.317424   7.420901   7.572477
    19  C    5.344686   4.787197   5.713827   6.903089   7.292595
    20  C    4.350049   3.560568   4.404482   5.657711   6.173642
    21  H    5.710502   5.435919   6.051617   6.785849   6.978742
    22  H    4.358626   4.454357   5.202865   5.756108   5.662887
    23  H    4.670467   4.307227   4.631153   5.208937   5.484710
    24  H    3.151260   2.634299   3.564395   4.590604   4.882711
    25  H    5.300025   4.353262   4.595648   5.621253   6.346680
    26  H    6.004248   5.212984   5.821021   6.959940   7.536164
    27  H    5.793349   4.601997   4.970066   6.294455   7.177458
    28  H    4.940786   4.032007   4.870743   6.209067   6.806720
    29  H    3.877294   2.561563   2.516570   3.754228   4.720511
    30  H    4.457254   3.083414   3.188028   4.541922   5.541166
    31  H    3.537929   4.198140   5.591911   6.314065   5.899446
    32  H    2.949634   3.221179   4.558649   5.418025   5.253036
    33  H    2.124260   3.203307   4.351059   4.722720   4.094468
    34  H    2.137032   3.393945   4.508971   4.752527   3.974028
    35  H    3.406307   2.165798   1.077747   2.108668   3.353674
    36  H    3.889808   3.429957   2.147213   1.080302   2.143489
    37  H    3.415476   3.918437   3.382411   2.144249   1.080793
    38  H    2.155486   3.424509   3.834647   3.364838   2.126148
    39  H    4.971545   5.260255   6.612258   7.533137   7.336314
    40  H    6.383151   6.237147   7.372415   8.447536   8.553483
    41  H    6.301209   5.652488   6.433545   7.623573   8.107087
    42  H    4.773264   3.736093   4.252845   5.532219   6.264513
                   16         17         18         19         20
    16  C    0.000000
    17  C    5.745918   0.000000
    18  C    6.659255   1.391413   0.000000
    19  C    6.599596   2.404285   1.389484   0.000000
    20  C    5.610082   2.767600   2.405660   1.393101   0.000000
    21  H    6.483869   6.984840   7.900855   7.887367   6.948532
    22  H    5.006424   6.242806   7.341972   7.463652   6.519725
    23  H    5.237112   6.997095   7.889522   7.697868   6.553668
    24  H    4.272934   4.558526   5.403411   5.246073   4.172126
    25  H    6.202590   6.595292   7.109903   6.608467   5.452535
    26  H    7.112570   6.124613   6.614930   6.305730   5.428716
    27  H    6.956225   5.671344   5.713078   4.931502   3.941550
    28  H    6.262118   4.077267   4.304901   3.845059   3.018489
    29  H    4.758206   5.701629   6.056651   5.312262   3.952990
    30  H    5.493630   5.112504   5.080953   4.060863   2.747125
    31  H    4.604213   2.590053   3.979797   4.781649   4.549297
    32  H    4.160371   3.234594   4.443794   4.817337   4.163030
    33  H    2.806235   3.461741   4.534750   4.966187   4.492200
    34  H    2.613432   4.403056   5.665110   6.111399   5.465158
    35  H    3.830073   6.222615   6.532753   5.727080   4.365278
    36  H    3.378122   7.818022   8.311995   7.682726   6.411511
    37  H    2.146760   7.774518   8.554672   8.302904   7.213822
    38  H    1.080931   6.082913   7.097971   7.217614   6.360342
    39  H    6.152271   1.080425   2.135296   3.377291   3.847946
    40  H    7.604779   2.147890   1.080724   2.146996   3.387788
    41  H    7.510316   3.385978   2.146989   1.080052   2.148390
    42  H    5.932591   3.844799   3.371152   2.127172   1.077489
                   21         22         23         24         25
    21  H    0.000000
    22  H    1.762698   0.000000
    23  H    1.774741   1.760388   0.000000
    24  H    2.996010   2.442598   2.493169   0.000000
    25  H    2.830388   3.585614   2.388000   2.541301   0.000000
    26  H    2.692239   3.782181   3.294524   2.887387   1.765471
    27  H    4.831970   5.408764   4.669842   3.438639   2.481398
    28  H    4.482346   4.711198   4.561841   2.621221   3.041722
    29  H    4.650992   4.538122   3.584525   2.522870   2.396299
    30  H    5.946748   5.863458   5.164900   3.515191   3.618661
    31  H    5.684377   4.510036   5.732873   3.775294   6.232507
    32  H    4.125271   3.058724   4.081059   2.084076   4.540662
    33  H    6.855556   5.425279   6.242696   4.378060   6.830052
    34  H    5.709036   4.091251   5.147574   3.806147   6.269480
    35  H    6.280960   5.713395   4.880386   3.893021   4.364764
    36  H    7.451159   6.547841   5.785805   5.438382   6.096849
    37  H    7.759653   6.397663   6.221012   5.873800   7.256152
    38  H    6.974024   5.355972   5.843715   4.977786   7.046762
    39  H    7.304251   6.475702   7.460387   5.135816   7.293355
    40  H    8.793908   8.260360   8.888858   6.416798   8.094859
    41  H    8.771707   8.451797   8.583250   6.178859   7.297503
    42  H    7.254459   6.956076   6.718462   4.525044   5.368913
                   26         27         28         29         30
    26  H    0.000000
    27  H    2.461975   0.000000
    28  H    2.474962   1.745049   0.000000
    29  H    3.625625   2.592642   3.011491   0.000000
    30  H    4.310617   2.355099   2.741931   1.729599   0.000000
    31  H    5.892930   6.322125   4.720825   5.769241   5.954328
    32  H    4.340009   4.941178   3.503749   4.305590   4.796241
    33  H    7.083926   6.935028   5.663529   5.572724   5.719600
    34  H    6.547820   6.961272   5.732933   5.508098   6.133804
    35  H    5.680556   4.484263   4.730478   2.088789   2.586399
    36  H    7.577454   6.788436   6.937465   4.231372   5.002982
    37  H    8.503467   8.205317   7.875340   5.703295   6.560485
    38  H    7.848508   7.876556   7.047471   5.769971   6.501198
    39  H    6.705679   6.550823   4.878348   6.584812   6.132618
    40  H    7.476146   6.606669   5.205951   7.115611   6.079150
    41  H    6.983185   5.367619   4.518495   5.960984   4.508081
    42  H    5.547674   3.659017   3.237406   3.661255   2.136718
                   31         32         33         34         35
    31  H    0.000000
    32  H    1.720402   0.000000
    33  H    2.461554   3.057206   0.000000
    34  H    2.375452   2.506740   1.740596   0.000000
    35  H    6.311063   5.175763   5.247448   5.479413   0.000000
    36  H    7.387677   6.442705   5.772580   5.809873   2.419073
    37  H    6.747574   6.192892   4.841398   4.648789   4.243559
    38  H    4.646797   4.505630   2.783212   2.407416   4.910179
    39  H    2.337623   3.468742   3.601558   4.419758   7.115333
    40  H    4.648826   5.330243   5.305376   6.479207   7.584468
    41  H    5.842034   5.879684   5.953431   7.164968   6.316667
    42  H    5.513973   4.932724   5.252923   6.186284   3.963162
                   36         37         38         39         40
    36  H    0.000000
    37  H    2.475277   0.000000
    38  H    4.258445   2.445950   0.000000
    39  H    8.554360   8.244265   6.315603   0.000000
    40  H    9.335799   9.508684   7.969062   2.457111   0.000000
    41  H    8.318218   9.100872   8.157261   4.270998   2.477422
    42  H    6.137139   7.288799   6.791498   4.925023   4.263572
                   41         42
    41  H    0.000000
    42  H    2.445303   0.000000
 Stoichiometry    C18H22N2
 Framework group  C1[X(C18H22N2)]
 Deg. of freedom   120
 Full point group                 C1      NOp   1
 Largest Abelian subgroup         C1      NOp   1
 Largest concise Abelian subgroup C1      NOp   1
                         Standard orientation:                         
 ---------------------------------------------------------------------
 Center     Atomic      Atomic             Coordinates (Angstroms)
 Number     Number       Type             X           Y           Z
 ---------------------------------------------------------------------
      1          6           0       -1.586300    3.103170    1.770587
      2          7           0       -0.429211    2.587379    1.053205
      3          6           0       -0.067202    3.406027   -0.088152
      4          6           0        0.783548    2.555457   -1.049637
      5          6           0        0.048829    1.314063   -1.626237
      6          7           0        0.057560    0.130122   -0.728049
      7          6           0        1.338344   -0.388930   -0.438478
      8          6           0        1.706285   -0.748835    0.873561
      9          6           0        0.684841   -0.657680    1.989594
     10          6           0       -0.504427   -1.597376    1.785742
     11          6           0       -1.445185   -1.387039    0.595927
     12          6           0       -1.147761   -0.598650   -0.553864
     13          6           0       -2.105938   -0.592606   -1.588396
     14          6           0       -3.313112   -1.277805   -1.499996
     15          6           0       -3.598065   -2.017180   -0.363891
     16          6           0       -2.666379   -2.074661    0.664115
     17          6           0        2.997489   -1.227791    1.132070
     18          6           0        3.930912   -1.358599    0.108526
     19          6           0        3.578192   -1.018085   -1.191590
     20          6           0        2.296240   -0.540994   -1.455625
     21          1           0       -1.395019    4.104866    2.159992
     22          1           0       -1.818487    2.456173    2.617804
     23          1           0       -2.470627    3.137874    1.131547
     24          1           0       -0.532036    1.626694    0.714309
     25          1           0       -0.960782    3.750174   -0.614305
     26          1           0        0.486282    4.287089    0.242792
     27          1           0        1.102753    3.192111   -1.874354
     28          1           0        1.691438    2.264006   -0.518896
     29          1           0       -0.978907    1.650264   -1.768558
     30          1           0        0.406499    1.072114   -2.627571
     31          1           0        1.165667   -0.910482    2.935432
     32          1           0        0.366248    0.374719    2.117526
     33          1           0       -0.120127   -2.616198    1.712111
     34          1           0       -1.103558   -1.571341    2.697410
     35          1           0       -1.913400   -0.065120   -2.508301
     36          1           0       -4.018265   -1.242023   -2.317634
     37          1           0       -4.529983   -2.558882   -0.285142
     38          1           0       -2.896845   -2.676509    1.531914
     39          1           0        3.280028   -1.507217    2.136764
     40          1           0        4.922925   -1.729761    0.323271
     41          1           0        4.292826   -1.123016   -1.994585
     42          1           0        2.043052   -0.292956   -2.473150
 ---------------------------------------------------------------------
 Rotational constants (GHZ):           0.4099746           0.3113201           0.2489815
 Standard basis: 6-31G(d,p) (6D, 7F)
 There are   410 symmetry adapted cartesian basis functions of A   symmetry.
 There are   410 symmetry adapted basis functions of A   symmetry.
   410 basis functions,   714 primitive gaussians,   410 cartesian basis functions
    72 alpha electrons       72 beta electrons
       nuclear repulsion energy      1574.7229613936 Hartrees.
 NAtoms=   42 NActive=   42 NUniq=   42 SFac= 1.00D+00 NAtFMM=   60 NAOKFM=F Big=F
 Integral buffers will be    131072 words long.
 Raffenetti 2 integral format.
 Two-electron integral symmetry is turned on.
 Nuclear repulsion after empirical dispersion term =     1574.6284849346 Hartrees.
 One-electron integrals computed using PRISM.
 NBasis=   410 RedAO= T EigKep=  3.64D-04  NBF=   410
 NBsUse=   410 1.00D-06 EigRej= -1.00D+00 NBFU=   410
 ExpMin= 1.61D-01 ExpMax= 4.17D+03 ExpMxC= 6.27D+02 IAcc=3 IRadAn=         5 AccDes= 0.00D+00
 Harris functional with IExCor=  402 and IRadAn=       5 diagonalized for initial guess.
 HarFok:  IExCor=  402 AccDes= 0.00D+00 IRadAn=         5 IDoV= 1 UseB2=F ITyADJ=14
 ICtDFT=  3500011 ScaDFX=  1.000000  1.000000  1.000000  1.000000
 FoFCou: FMM=F IPFlag=           0 FMFlag=      100000 FMFlg1=           0
         NFxFlg=           0 DoJE=T BraDBF=F KetDBF=T FulRan=T
         wScrn=  0.000000 ICntrl=       500 IOpCl=  0 I1Cent=   200000004 NGrid=           0
         NMat0=    1 NMatS0=      1 NMatT0=    0 NMatD0=    1 NMtDS0=    0 NMtDT0=    0
 Petite list used in FoFCou.
 Requested convergence on RMS density matrix=1.00D-08 within 128 cycles.
 Requested convergence on MAX density matrix=1.00D-06.
 Requested convergence on             energy=1.00D-06.
 No special actions if energy rises.
 Integral accuracy reduced to 1.0D-05 until final iterations.
 Initial convergence to 1.0D-05 achieved.  Increase integral accuracy.
 SCF Done:  E(RB3LYP) =  -808.772569497     A.U. after   14 cycles
            NFock= 14  Conv=0.65D-08     -V/T= 2.0097

 **********************************************************************

            Population analysis using the SCF Density.

 **********************************************************************

 Orbital symmetries:
       Occupied  (A) (A) (A) (A) (A) (A) (A) (A) (A) (A) (A) (A)
                 (A) (A) (A) (A) (A) (A) (A) (A) (A) (A) (A) (A)
                 (A) (A) (A) (A) (A) (A) (A) (A) (A) (A) (A) (A)
                 (A) (A) (A) (A) (A) (A) (A) (A) (A) (A) (A) (A)
                 (A) (A) (A) (A) (A) (A) (A) (A) (A) (A) (A) (A)
                 (A) (A) (A) (A) (A) (A) (A) (A) (A) (A) (A) (A)
       Virtual   (A) (A) (A) (A) (A) (A) (A) (A) (A) (A) (A) (A)
                 (A) (A) (A) (A) (A) (A) (A) (A) (A) (A) (A) (A)
                 (A) (A) (A) (A) (A) (A) (A) (A) (A) (A) (A) (A)
                 (A) (A) (A) (A) (A) (A) (A) (A) (A) (A) (A) (A)
                 (A) (A) (A) (A) (A) (A) (A) (A) (A) (A) (A) (A)
                 (A) (A) (A) (A) (A) (A) (A) (A) (A) (A) (A) (A)
                 (A) (A) (A) (A) (A) (A) (A) (A) (A) (A) (A) (A)
                 (A) (A) (A) (A) (A) (A) (A) (A) (A) (A) (A) (A)
                 (A) (A) (A) (A) (A) (A) (A) (A) (A) (A) (A) (A)
                 (A) (A) (A) (A) (A) (A) (A) (A) (A) (A) (A) (A)
                 (A) (A) (A) (A) (A) (A) (A) (A) (A) (A) (A) (A)
                 (A) (A) (A) (A) (A) (A) (A) (A) (A) (A) (A) (A)
                 (A) (A) (A) (A) (A) (A) (A) (A) (A) (A) (A) (A)
                 (A) (A) (A) (A) (A) (A) (A) (A) (A) (A) (A) (A)
                 (A) (A) (A) (A) (A) (A) (A) (A) (A) (A) (A) (A)
                 (A) (A) (A) (A) (A) (A) (A) (A) (A) (A) (A) (A)
                 (A) (A) (A) (A) (A) (A) (A) (A) (A) (A) (A) (A)
                 (A) (A) (A) (A) (A) (A) (A) (A) (A) (A) (A) (A)
                 (A) (A) (A) (A) (A) (A) (A) (A) (A) (A) (A) (A)
                 (A) (A) (A) (A) (A) (A) (A) (A) (A) (A) (A) (A)
                 (A) (A) (A) (A) (A) (A) (A) (A) (A) (A) (A) (A)
                 (A) (A) (A) (A) (A) (A) (A) (A) (A) (A) (A) (A)
                 (A) (A) (A) (A) (A) (A) (A) (A) (A) (A) (A) (A)
                 (A) (A) (A) (A) (A) (A) (A) (A) (A) (A) (A) (A)
                 (A) (A) (A) (A) (A) (A) (A) (A) (A) (A) (A) (A)
                 (A) (A) (A) (A) (A) (A) (A) (A) (A) (A) (A) (A)
                 (A) (A) (A) (A) (A) (A) (A) (A) (A) (A) (A) (A)
                 (A) (A) (A) (A) (A) (A) (A) (A) (A) (A) (A) (A)
                 (A) (A)
 The electronic state is 1-A.
 Alpha  occ. eigenvalues --  -14.35483 -14.30004 -10.22905 -10.22130 -10.22115
 Alpha  occ. eigenvalues --  -10.19666 -10.19360 -10.19066 -10.18936 -10.18576
 Alpha  occ. eigenvalues --  -10.18437 -10.18382 -10.18302 -10.18157 -10.18142
 Alpha  occ. eigenvalues --  -10.18130 -10.18097 -10.18085 -10.17968 -10.17641
 Alpha  occ. eigenvalues --   -0.95111  -0.88985  -0.85061  -0.84020  -0.79351
 Alpha  occ. eigenvalues --   -0.76776  -0.75114  -0.74958  -0.72104  -0.70411
 Alpha  occ. eigenvalues --   -0.67625  -0.64530  -0.63796  -0.60678  -0.59871
 Alpha  occ. eigenvalues --   -0.58324  -0.57162  -0.56273  -0.51653  -0.50783
 Alpha  occ. eigenvalues --   -0.48527  -0.47533  -0.47014  -0.46291  -0.45310
 Alpha  occ. eigenvalues --   -0.44538  -0.43593  -0.43294  -0.43011  -0.42630
 Alpha  occ. eigenvalues --   -0.41348  -0.40982  -0.39350  -0.38474  -0.38059
 Alpha  occ. eigenvalues --   -0.37571  -0.37467  -0.36364  -0.35230  -0.35155
 Alpha  occ. eigenvalues --   -0.34822  -0.33986  -0.33492  -0.32586  -0.32412
 Alpha  occ. eigenvalues --   -0.32177  -0.28616  -0.24381  -0.23937  -0.23376
 Alpha  occ. eigenvalues --   -0.20627  -0.19215
 Alpha virt. eigenvalues --   -0.00313   0.00286   0.00721   0.01321   0.08585
 Alpha virt. eigenvalues --    0.09944   0.10105   0.10757   0.12007   0.12724
 Alpha virt. eigenvalues --    0.13271   0.14330   0.14516   0.14954   0.15576
 Alpha virt. eigenvalues --    0.16178   0.16389   0.16935   0.17491   0.17773
 Alpha virt. eigenvalues --    0.18240   0.18524   0.18720   0.19142   0.19819
 Alpha virt. eigenvalues --    0.19944   0.21594   0.22428   0.22857   0.23640
 Alpha virt. eigenvalues --    0.24182   0.24412   0.25651   0.26546   0.27002
 Alpha virt. eigenvalues --    0.28081   0.28995   0.29918   0.32126   0.32698
 Alpha virt. eigenvalues --    0.33905   0.35180   0.35853   0.36723   0.37808
 Alpha virt. eigenvalues --    0.40276   0.47498   0.48602   0.49249   0.50814
 Alpha virt. eigenvalues --    0.51393   0.52455   0.53220   0.53603   0.53937
 Alpha virt. eigenvalues --    0.54407   0.55045   0.56012   0.56798   0.57443
 Alpha virt. eigenvalues --    0.57989   0.58236   0.59056   0.59227   0.60165
 Alpha virt. eigenvalues --    0.60383   0.60727   0.60863   0.61390   0.61633
 Alpha virt. eigenvalues --    0.61983   0.62116   0.62762   0.63414   0.63931
 Alpha virt. eigenvalues --    0.65141   0.67184   0.67363   0.68167   0.69285
 Alpha virt. eigenvalues --    0.70537   0.71589   0.72719   0.73731   0.75716
 Alpha virt. eigenvalues --    0.76038   0.77371   0.78438   0.79002   0.79807
 Alpha virt. eigenvalues --    0.80965   0.81744   0.82063   0.82379   0.82770
 Alpha virt. eigenvalues --    0.83000   0.83368   0.84038   0.84133   0.86110
 Alpha virt. eigenvalues --    0.86505   0.87897   0.88484   0.88937   0.89117
 Alpha virt. eigenvalues --    0.89612   0.90373   0.91241   0.92497   0.93120
 Alpha virt. eigenvalues --    0.93735   0.94526   0.95151   0.96464   0.96870
 Alpha virt. eigenvalues --    0.97019   0.98283   0.99671   1.01050   1.02885
 Alpha virt. eigenvalues --    1.03654   1.04607   1.06066   1.07455   1.08101
 Alpha virt. eigenvalues --    1.09926   1.10878   1.11927   1.12999   1.13706
 Alpha virt. eigenvalues --    1.14717   1.16969   1.18879   1.20255   1.21381
 Alpha virt. eigenvalues --    1.23273   1.23820   1.26880   1.28897   1.29727
 Alpha virt. eigenvalues --    1.32373   1.33813   1.35637   1.36369   1.37421
 Alpha virt. eigenvalues --    1.38111   1.40102   1.41018   1.41289   1.41889
 Alpha virt. eigenvalues --    1.42502   1.42974   1.43546   1.45187   1.46010
 Alpha virt. eigenvalues --    1.49363   1.51894   1.53519   1.57287   1.58065
 Alpha virt. eigenvalues --    1.58905   1.62125   1.63756   1.67242   1.68203
 Alpha virt. eigenvalues --    1.68974   1.71141   1.74289   1.76524   1.78025
 Alpha virt. eigenvalues --    1.78354   1.78880   1.80028   1.81330   1.81429
 Alpha virt. eigenvalues --    1.82082   1.84287   1.85224   1.86334   1.87214
 Alpha virt. eigenvalues --    1.87550   1.88126   1.89387   1.89862   1.91245
 Alpha virt. eigenvalues --    1.91849   1.93042   1.93797   1.94831   1.95444
 Alpha virt. eigenvalues --    1.96348   1.97704   1.97904   1.99060   1.99233
 Alpha virt. eigenvalues --    2.00722   2.01473   2.01727   2.02180   2.03187
 Alpha virt. eigenvalues --    2.04881   2.06111   2.07070   2.07869   2.08712
 Alpha virt. eigenvalues --    2.09335   2.10687   2.12806   2.13298   2.14480
 Alpha virt. eigenvalues --    2.15727   2.16865   2.17774   2.18494   2.20959
 Alpha virt. eigenvalues --    2.22070   2.23364   2.24434   2.25545   2.27419
 Alpha virt. eigenvalues --    2.27777   2.28698   2.29646   2.30209   2.31405
 Alpha virt. eigenvalues --    2.32949   2.33629   2.34122   2.35200   2.37941
 Alpha virt. eigenvalues --    2.38923   2.39587   2.40022   2.40347   2.41310
 Alpha virt. eigenvalues --    2.42471   2.43279   2.44513   2.45430   2.45996
 Alpha virt. eigenvalues --    2.47037   2.47248   2.49280   2.50181   2.50967
 Alpha virt. eigenvalues --    2.51634   2.52668   2.53816   2.55992   2.56104
 Alpha virt. eigenvalues --    2.57283   2.58072   2.58209   2.59297   2.59684
 Alpha virt. eigenvalues --    2.61215   2.62320   2.62918   2.64125   2.64655
 Alpha virt. eigenvalues --    2.66305   2.66729   2.69279   2.70186   2.70620
 Alpha virt. eigenvalues --    2.73096   2.73493   2.74395   2.75003   2.75313
 Alpha virt. eigenvalues --    2.76618   2.78337   2.79405   2.79833   2.81426
 Alpha virt. eigenvalues --    2.81675   2.83475   2.85897   2.87722   2.88450
 Alpha virt. eigenvalues --    2.89448   2.91276   2.93859   2.95054   2.97749
 Alpha virt. eigenvalues --    3.00074   3.01449   3.02892   3.06620   3.07321
 Alpha virt. eigenvalues --    3.09514   3.12798   3.20765   3.22298   3.22841
 Alpha virt. eigenvalues --    3.25934   3.26148   3.27510   3.30623   3.31084
 Alpha virt. eigenvalues --    3.33590   3.34331   3.36531   3.39043   3.39132
 Alpha virt. eigenvalues --    3.39829   3.40859   3.45092   3.46120   3.47217
 Alpha virt. eigenvalues --    3.49289   3.49840   3.51205   3.56038   3.58797
 Alpha virt. eigenvalues --    3.63971   3.86010   3.86921   4.06529   4.14528
 Alpha virt. eigenvalues --    4.14917   4.16668   4.17622   4.20666   4.23413
 Alpha virt. eigenvalues --    4.29488   4.37392   4.40947   4.46395   4.47124
 Alpha virt. eigenvalues --    4.49024   4.49951   4.56988   4.60366   4.69086
 Alpha virt. eigenvalues --    4.72362   4.85920   4.87150
          Condensed to atoms (all electrons):
               1          2          3          4          5          6
     1  C    4.786322   0.319387  -0.050045   0.005050   0.000422   0.000156
     2  N    0.319387   6.831823   0.323270  -0.045937  -0.001957  -0.011513
     3  C   -0.050045   0.323270   4.784586   0.372444  -0.030361  -0.001619
     4  C    0.005050  -0.045937   0.372444   5.003409   0.351127  -0.044689
     5  C    0.000422  -0.001957  -0.030361   0.351127   4.859474   0.281874
     6  N    0.000156  -0.011513  -0.001619  -0.044689   0.281874   7.265624
     7  C   -0.000002   0.000572  -0.000381  -0.004740  -0.041808   0.258031
     8  C   -0.000005   0.000696  -0.000051  -0.000240   0.004124  -0.072272
     9  C    0.000156  -0.008521   0.000233  -0.000125  -0.000073  -0.006376
    10  C   -0.000012   0.000126  -0.000002   0.000008  -0.000030  -0.013246
    11  C    0.000042  -0.000010   0.000005  -0.000083   0.004468  -0.069865
    12  C    0.000286  -0.000764   0.000436   0.002247  -0.036095   0.254776
    13  C   -0.000003   0.000002  -0.000036   0.000501  -0.011751  -0.078918
    14  C   -0.000002   0.000005  -0.000001  -0.000006   0.000125   0.006121
    15  C   -0.000001  -0.000000  -0.000000   0.000000  -0.000005   0.000010
    16  C   -0.000000  -0.000019  -0.000000   0.000002  -0.000094   0.006111
    17  C    0.000000  -0.000011  -0.000002  -0.000009  -0.000162   0.006840
    18  C   -0.000000   0.000000  -0.000001   0.000023  -0.000015  -0.000022
    19  C   -0.000000  -0.000000   0.000007  -0.000046   0.000295   0.006314
    20  C   -0.000000   0.000014   0.000144  -0.002880  -0.004064  -0.080964
    21  H    0.389365  -0.039961  -0.002543  -0.000026   0.000037  -0.000023
    22  H    0.386119  -0.034818   0.005739  -0.000341   0.000022   0.000009
    23  H    0.372524  -0.051650  -0.010838   0.000702  -0.000530   0.000096
    24  H   -0.032820   0.323609  -0.043028  -0.015216   0.006016   0.012415
    25  H   -0.008098  -0.058103   0.352551  -0.032295  -0.014740   0.000453
    26  H   -0.001673  -0.052769   0.386211  -0.027265   0.005429  -0.000306
    27  H   -0.000237   0.004230  -0.033802   0.363188  -0.030070   0.003872
    28  H    0.000048   0.002417  -0.036873   0.379626  -0.040745  -0.008248
    29  H   -0.000177  -0.000974  -0.007218  -0.042561   0.380109  -0.035971
    30  H    0.000008   0.000065   0.003855  -0.045665   0.379473  -0.039972
    31  H   -0.000001   0.000123  -0.000003   0.000000   0.000002   0.000171
    32  H   -0.000628   0.019190  -0.000292   0.000302  -0.000656   0.002080
    33  H    0.000000  -0.000004   0.000000  -0.000000   0.000003   0.000266
    34  H   -0.000003  -0.000001  -0.000000  -0.000000   0.000008   0.000111
    35  H    0.000001   0.000003  -0.000007   0.000034   0.004504  -0.012332
    36  H   -0.000000  -0.000000  -0.000000  -0.000000   0.000001  -0.000130
    37  H   -0.000000   0.000000   0.000000  -0.000000  -0.000000   0.000006
    38  H   -0.000000   0.000000  -0.000000  -0.000000   0.000002  -0.000089
    39  H    0.000000  -0.000000   0.000000  -0.000000   0.000003  -0.000112
    40  H    0.000000  -0.000000  -0.000000   0.000000  -0.000000   0.000006
    41  H    0.000000  -0.000000   0.000000  -0.000006   0.000003  -0.000143
    42  H    0.000000  -0.000000   0.000001  -0.000086   0.001729  -0.009385
               7          8          9         10         11         12
     1  C   -0.000002  -0.000005   0.000156  -0.000012   0.000042   0.000286
     2  N    0.000572   0.000696  -0.008521   0.000126  -0.000010  -0.000764
     3  C   -0.000381  -0.000051   0.000233  -0.000002   0.000005   0.000436
     4  C   -0.004740  -0.000240  -0.000125   0.000008  -0.000083   0.002247
     5  C   -0.041808   0.004124  -0.000073  -0.000030   0.004468  -0.036095
     6  N    0.258031  -0.072272  -0.006376  -0.013246  -0.069865   0.254776
     7  C    4.715782   0.529751  -0.067293  -0.001832  -0.004176  -0.016828
     8  C    0.529751   4.777925   0.361101  -0.041849  -0.002710  -0.008034
     9  C   -0.067293   0.361101   5.098690   0.332204  -0.030247  -0.003799
    10  C   -0.001832  -0.041849   0.332204   5.050123   0.352052  -0.051207
    11  C   -0.004176  -0.002710  -0.030247   0.352052   4.816087   0.522847
    12  C   -0.016828  -0.008034  -0.003799  -0.051207   0.522847   4.696533
    13  C    0.002621  -0.000126  -0.000095   0.008490  -0.041060   0.494505
    14  C   -0.000081   0.000001   0.000003  -0.000127  -0.036880  -0.019044
    15  C    0.000042  -0.000003  -0.000175   0.006562  -0.026844  -0.042183
    16  C   -0.000272   0.000135   0.003699  -0.063797   0.514918  -0.006059
    17  C   -0.008697   0.530958  -0.058911  -0.001275  -0.000167   0.000088
    18  C   -0.044984  -0.028168   0.007660  -0.000156   0.000004   0.000030
    19  C   -0.017946  -0.036531  -0.000166   0.000036  -0.000013  -0.000064
    20  C    0.501356  -0.047833   0.008987   0.000043  -0.000162   0.003384
    21  H   -0.000001   0.000000   0.000016  -0.000000   0.000003   0.000003
    22  H   -0.000005   0.000003   0.000321   0.000002   0.000015   0.000026
    23  H    0.000006  -0.000000  -0.000075   0.000002   0.000013  -0.000018
    24  H   -0.002314  -0.001534   0.004284  -0.000359  -0.000130   0.004012
    25  H    0.000040   0.000002  -0.000028   0.000001   0.000002  -0.000049
    26  H    0.000008   0.000002   0.000016  -0.000000   0.000000   0.000001
    27  H   -0.000002  -0.000002   0.000000  -0.000000   0.000001  -0.000129
    28  H    0.008997   0.001503  -0.000265   0.000011   0.000002   0.000210
    29  H    0.004637  -0.000035  -0.000039   0.000007   0.000420  -0.002329
    30  H   -0.007058  -0.000490   0.000026  -0.000008  -0.000286  -0.000583
    31  H    0.005526  -0.033120   0.359831  -0.026952   0.003887   0.000200
    32  H   -0.006400  -0.027190   0.352149  -0.036748  -0.003507  -0.000327
    33  H   -0.000215  -0.003003  -0.040204   0.373118  -0.036107  -0.000963
    34  H    0.000246   0.004778  -0.032514   0.364503  -0.034235   0.003191
    35  H    0.000005  -0.000001   0.000004  -0.000146   0.004373  -0.039623
    36  H   -0.000000   0.000000  -0.000000   0.000007   0.001069   0.003571
    37  H   -0.000000   0.000000   0.000002  -0.000171   0.003940   0.001093
    38  H   -0.000004  -0.000001   0.000219  -0.009218  -0.047453   0.004285
    39  H    0.004909  -0.036652  -0.011438   0.000334   0.000011  -0.000007
    40  H    0.001183   0.003742  -0.000183   0.000001   0.000000   0.000000
    41  H    0.003400   0.001072   0.000008  -0.000000   0.000000  -0.000001
    42  H   -0.039395   0.005054  -0.000173  -0.000002   0.000032   0.000034
              13         14         15         16         17         18
     1  C   -0.000003  -0.000002  -0.000001  -0.000000   0.000000  -0.000000
     2  N    0.000002   0.000005  -0.000000  -0.000019  -0.000011   0.000000
     3  C   -0.000036  -0.000001  -0.000000  -0.000000  -0.000002  -0.000001
     4  C    0.000501  -0.000006   0.000000   0.000002  -0.000009   0.000023
     5  C   -0.011751   0.000125  -0.000005  -0.000094  -0.000162  -0.000015
     6  N   -0.078918   0.006121   0.000010   0.006111   0.006840  -0.000022
     7  C    0.002621  -0.000081   0.000042  -0.000272  -0.008697  -0.044984
     8  C   -0.000126   0.000001  -0.000003   0.000135   0.530958  -0.028168
     9  C   -0.000095   0.000003  -0.000175   0.003699  -0.058911   0.007660
    10  C    0.008490  -0.000127   0.006562  -0.063797  -0.001275  -0.000156
    11  C   -0.041060  -0.036880  -0.026844   0.514918  -0.000167   0.000004
    12  C    0.494505  -0.019044  -0.042183  -0.006059   0.000088   0.000030
    13  C    4.969558   0.525992  -0.032005  -0.058515   0.000007  -0.000000
    14  C    0.525992   4.820476   0.545943  -0.030744  -0.000000   0.000000
    15  C   -0.032005   0.545943   4.830412   0.516205  -0.000000   0.000000
    16  C   -0.058515  -0.030744   0.516205   4.925935  -0.000003  -0.000000
    17  C    0.000007  -0.000000  -0.000000  -0.000003   4.924060   0.510427
    18  C   -0.000000   0.000000   0.000000  -0.000000   0.510427   4.837405
    19  C   -0.000006   0.000000   0.000000  -0.000000  -0.030637   0.545080
    20  C    0.000315  -0.000009   0.000000  -0.000009  -0.056543  -0.031263
    21  H    0.000000   0.000000  -0.000000  -0.000000  -0.000000  -0.000000
    22  H   -0.000002  -0.000001   0.000000   0.000002   0.000000  -0.000000
    23  H    0.000044   0.000002  -0.000001  -0.000000   0.000000   0.000000
    24  H   -0.000320  -0.000051   0.000003   0.000062   0.000035   0.000002
    25  H   -0.000011  -0.000001   0.000000   0.000000  -0.000000   0.000000
    26  H    0.000000   0.000000  -0.000000  -0.000000  -0.000000  -0.000000
    27  H   -0.000003   0.000000   0.000000   0.000000   0.000001   0.000000
    28  H   -0.000012   0.000000   0.000000  -0.000000  -0.000053  -0.000014
    29  H    0.003817   0.000363  -0.000027  -0.000038   0.000002   0.000000
    30  H    0.001201  -0.000052   0.000001   0.000004   0.000012   0.000002
    31  H    0.000004   0.000000   0.000002  -0.000154  -0.006760   0.000249
    32  H   -0.000025  -0.000005   0.000001   0.000150   0.001841  -0.000251
    33  H   -0.000267   0.000067  -0.000157  -0.004632   0.001724  -0.000074
    34  H   -0.000167   0.000016   0.000276  -0.006053  -0.000065   0.000004
    35  H    0.362180  -0.041382   0.005067   0.000879   0.000000  -0.000000
    36  H   -0.035924   0.363611  -0.040935   0.004635   0.000000  -0.000000
    37  H    0.004890  -0.042150   0.364508  -0.037983  -0.000000  -0.000000
    38  H    0.000561   0.005360  -0.043417   0.369101  -0.000000  -0.000000
    39  H   -0.000000   0.000000  -0.000000   0.000000   0.363615  -0.045965
    40  H    0.000000  -0.000000  -0.000000   0.000000  -0.037091   0.364471
    41  H    0.000000   0.000000  -0.000000   0.000000   0.004459  -0.041203
    42  H    0.000049   0.000002  -0.000000   0.000000   0.000771   0.005001
              19         20         21         22         23         24
     1  C   -0.000000  -0.000000   0.389365   0.386119   0.372524  -0.032820
     2  N   -0.000000   0.000014  -0.039961  -0.034818  -0.051650   0.323609
     3  C    0.000007   0.000144  -0.002543   0.005739  -0.010838  -0.043028
     4  C   -0.000046  -0.002880  -0.000026  -0.000341   0.000702  -0.015216
     5  C    0.000295  -0.004064   0.000037   0.000022  -0.000530   0.006016
     6  N    0.006314  -0.080964  -0.000023   0.000009   0.000096   0.012415
     7  C   -0.017946   0.501356  -0.000001  -0.000005   0.000006  -0.002314
     8  C   -0.036531  -0.047833   0.000000   0.000003  -0.000000  -0.001534
     9  C   -0.000166   0.008987   0.000016   0.000321  -0.000075   0.004284
    10  C    0.000036   0.000043  -0.000000   0.000002   0.000002  -0.000359
    11  C   -0.000013  -0.000162   0.000003   0.000015   0.000013  -0.000130
    12  C   -0.000064   0.003384   0.000003   0.000026  -0.000018   0.004012
    13  C   -0.000006   0.000315   0.000000  -0.000002   0.000044  -0.000320
    14  C    0.000000  -0.000009   0.000000  -0.000001   0.000002  -0.000051
    15  C    0.000000   0.000000  -0.000000   0.000000  -0.000001   0.000003
    16  C   -0.000000  -0.000009  -0.000000   0.000002  -0.000000   0.000062
    17  C   -0.030637  -0.056543  -0.000000   0.000000   0.000000   0.000035
    18  C    0.545080  -0.031263  -0.000000  -0.000000   0.000000   0.000002
    19  C    4.827710   0.518611   0.000000   0.000000  -0.000000  -0.000002
    20  C    0.518611   4.948176  -0.000000  -0.000000   0.000000   0.000023
    21  H    0.000000  -0.000000   0.615277  -0.028707  -0.048206   0.005530
    22  H    0.000000  -0.000000  -0.028707   0.613519  -0.041472  -0.002565
    23  H   -0.000000   0.000000  -0.048206  -0.041472   0.685688  -0.005989
    24  H   -0.000002   0.000023   0.005530  -0.002565  -0.005989   0.480184
    25  H   -0.000000  -0.000003  -0.003054  -0.000185   0.017777  -0.003958
    26  H    0.000000   0.000000   0.005691  -0.000051  -0.001877   0.007109
    27  H   -0.000014  -0.000016  -0.000002   0.000004   0.000016   0.000303
    28  H   -0.000242   0.002000  -0.000029   0.000001   0.000053  -0.002337
    29  H   -0.000005   0.000151  -0.000002   0.000007   0.000268  -0.001397
    30  H   -0.000073   0.001787  -0.000000  -0.000000  -0.000007   0.000543
    31  H    0.000006  -0.000196   0.000000  -0.000010   0.000000  -0.000096
    32  H    0.000028  -0.000056  -0.000163  -0.000019   0.000361  -0.004253
    33  H   -0.000006  -0.000139   0.000000   0.000001  -0.000000   0.000024
    34  H   -0.000000   0.000009  -0.000000   0.000037  -0.000001   0.000006
    35  H    0.000000   0.000012  -0.000000   0.000000  -0.000002   0.000018
    36  H    0.000000   0.000000  -0.000000   0.000000   0.000000  -0.000000
    37  H    0.000000  -0.000000  -0.000000  -0.000000  -0.000000   0.000000
    38  H    0.000000  -0.000000   0.000000   0.000000   0.000000  -0.000003
    39  H    0.004990   0.000503   0.000000   0.000000  -0.000000  -0.000002
    40  H   -0.041589   0.004625   0.000000   0.000000  -0.000000   0.000000
    41  H    0.363897  -0.035025  -0.000000   0.000000  -0.000000   0.000000
    42  H   -0.041102   0.360054  -0.000000  -0.000000   0.000000  -0.000010
              25         26         27         28         29         30
     1  C   -0.008098  -0.001673  -0.000237   0.000048  -0.000177   0.000008
     2  N   -0.058103  -0.052769   0.004230   0.002417  -0.000974   0.000065
     3  C    0.352551   0.386211  -0.033802  -0.036873  -0.007218   0.003855
     4  C   -0.032295  -0.027265   0.363188   0.379626  -0.042561  -0.045665
     5  C   -0.014740   0.005429  -0.030070  -0.040745   0.380109   0.379473
     6  N    0.000453  -0.000306   0.003872  -0.008248  -0.035971  -0.039972
     7  C    0.000040   0.000008  -0.000002   0.008997   0.004637  -0.007058
     8  C    0.000002   0.000002  -0.000002   0.001503  -0.000035  -0.000490
     9  C   -0.000028   0.000016   0.000000  -0.000265  -0.000039   0.000026
    10  C    0.000001  -0.000000  -0.000000   0.000011   0.000007  -0.000008
    11  C    0.000002   0.000000   0.000001   0.000002   0.000420  -0.000286
    12  C   -0.000049   0.000001  -0.000129   0.000210  -0.002329  -0.000583
    13  C   -0.000011   0.000000  -0.000003  -0.000012   0.003817   0.001201
    14  C   -0.000001   0.000000   0.000000   0.000000   0.000363  -0.000052
    15  C    0.000000  -0.000000   0.000000   0.000000  -0.000027   0.000001
    16  C    0.000000  -0.000000   0.000000  -0.000000  -0.000038   0.000004
    17  C   -0.000000  -0.000000   0.000001  -0.000053   0.000002   0.000012
    18  C    0.000000  -0.000000   0.000000  -0.000014   0.000000   0.000002
    19  C   -0.000000   0.000000  -0.000014  -0.000242  -0.000005  -0.000073
    20  C   -0.000003   0.000000  -0.000016   0.002000   0.000151   0.001787
    21  H   -0.003054   0.005691  -0.000002  -0.000029  -0.000002  -0.000000
    22  H   -0.000185  -0.000051   0.000004   0.000001   0.000007  -0.000000
    23  H    0.017777  -0.001877   0.000016   0.000053   0.000268  -0.000007
    24  H   -0.003958   0.007109   0.000303  -0.002337  -0.001397   0.000543
    25  H    0.733880  -0.061258  -0.001063   0.007128   0.007496  -0.000159
    26  H   -0.061258   0.656886  -0.003249  -0.006911   0.000067  -0.000163
    27  H   -0.001063  -0.003249   0.636854  -0.030031   0.000694  -0.003983
    28  H    0.007128  -0.006911  -0.030031   0.591819   0.005494  -0.001035
    29  H    0.007496   0.000067   0.000694   0.005494   0.612360  -0.042938
    30  H   -0.000159  -0.000163  -0.003983  -0.001035  -0.042938   0.648960
    31  H    0.000000  -0.000000   0.000000   0.000000  -0.000000   0.000000
    32  H    0.000140  -0.000141   0.000001   0.000559   0.000025  -0.000010
    33  H   -0.000000   0.000000  -0.000000  -0.000000   0.000000  -0.000000
    34  H    0.000000  -0.000000   0.000000  -0.000000  -0.000000   0.000000
    35  H   -0.000010  -0.000000   0.000008  -0.000002  -0.000041   0.001388
    36  H    0.000000  -0.000000   0.000000  -0.000000   0.000001   0.000002
    37  H    0.000000   0.000000  -0.000000   0.000000   0.000000   0.000000
    38  H   -0.000000  -0.000000   0.000000  -0.000000   0.000000  -0.000000
    39  H   -0.000000   0.000000  -0.000000  -0.000003  -0.000000  -0.000000
    40  H   -0.000000  -0.000000  -0.000000  -0.000000  -0.000000   0.000000
    41  H   -0.000000  -0.000000   0.000000  -0.000004  -0.000000   0.000018
    42  H    0.000001  -0.000000   0.000030   0.000032  -0.000096   0.001993
              31         32         33         34         35         36
     1  C   -0.000001  -0.000628   0.000000  -0.000003   0.000001  -0.000000
     2  N    0.000123   0.019190  -0.000004  -0.000001   0.000003  -0.000000
     3  C   -0.000003  -0.000292   0.000000  -0.000000  -0.000007  -0.000000
     4  C    0.000000   0.000302  -0.000000  -0.000000   0.000034  -0.000000
     5  C    0.000002  -0.000656   0.000003   0.000008   0.004504   0.000001
     6  N    0.000171   0.002080   0.000266   0.000111  -0.012332  -0.000130
     7  C    0.005526  -0.006400  -0.000215   0.000246   0.000005  -0.000000
     8  C   -0.033120  -0.027190  -0.003003   0.004778  -0.000001   0.000000
     9  C    0.359831   0.352149  -0.040204  -0.032514   0.000004  -0.000000
    10  C   -0.026952  -0.036748   0.373118   0.364503  -0.000146   0.000007
    11  C    0.003887  -0.003507  -0.036107  -0.034235   0.004373   0.001069
    12  C    0.000200  -0.000327  -0.000963   0.003191  -0.039623   0.003571
    13  C    0.000004  -0.000025  -0.000267  -0.000167   0.362180  -0.035924
    14  C    0.000000  -0.000005   0.000067   0.000016  -0.041382   0.363611
    15  C    0.000002   0.000001  -0.000157   0.000276   0.005067  -0.040935
    16  C   -0.000154   0.000150  -0.004632  -0.006053   0.000879   0.004635
    17  C   -0.006760   0.001841   0.001724  -0.000065   0.000000   0.000000
    18  C    0.000249  -0.000251  -0.000074   0.000004  -0.000000  -0.000000
    19  C    0.000006   0.000028  -0.000006  -0.000000   0.000000   0.000000
    20  C   -0.000196  -0.000056  -0.000139   0.000009   0.000012   0.000000
    21  H    0.000000  -0.000163   0.000000  -0.000000  -0.000000  -0.000000
    22  H   -0.000010  -0.000019   0.000001   0.000037   0.000000   0.000000
    23  H    0.000000   0.000361  -0.000000  -0.000001  -0.000002   0.000000
    24  H   -0.000096  -0.004253   0.000024   0.000006   0.000018  -0.000000
    25  H    0.000000   0.000140  -0.000000   0.000000  -0.000010   0.000000
    26  H   -0.000000  -0.000141   0.000000  -0.000000  -0.000000  -0.000000
    27  H    0.000000   0.000001  -0.000000   0.000000   0.000008   0.000000
    28  H    0.000000   0.000559  -0.000000  -0.000000  -0.000002  -0.000000
    29  H   -0.000000   0.000025   0.000000  -0.000000  -0.000041   0.000001
    30  H    0.000000  -0.000010  -0.000000   0.000000   0.001388   0.000002
    31  H    0.639953  -0.032693  -0.004610  -0.004578  -0.000000   0.000000
    32  H   -0.032693   0.598081   0.005682  -0.003382   0.000002   0.000000
    33  H   -0.004610   0.005682   0.623831  -0.036326   0.000003  -0.000000
    34  H   -0.004578  -0.003382  -0.036326   0.635147   0.000003   0.000000
    35  H   -0.000000   0.000002   0.000003   0.000003   0.640591  -0.006896
    36  H    0.000000   0.000000  -0.000000   0.000000  -0.006896   0.636126
    37  H   -0.000000   0.000000   0.000000  -0.000010  -0.000235  -0.005987
    38  H   -0.000013   0.000008   0.001733   0.004292   0.000018  -0.000240
    39  H    0.006623   0.000186   0.000126  -0.000030  -0.000000  -0.000000
    40  H   -0.000012   0.000003   0.000001  -0.000000   0.000000   0.000000
    41  H   -0.000000  -0.000000  -0.000000   0.000000  -0.000000  -0.000000
    42  H    0.000003   0.000000  -0.000000  -0.000000  -0.000016  -0.000000
              37         38         39         40         41         42
     1  C   -0.000000  -0.000000   0.000000   0.000000   0.000000   0.000000
     2  N    0.000000   0.000000  -0.000000  -0.000000  -0.000000  -0.000000
     3  C    0.000000  -0.000000   0.000000  -0.000000   0.000000   0.000001
     4  C   -0.000000  -0.000000  -0.000000   0.000000  -0.000006  -0.000086
     5  C   -0.000000   0.000002   0.000003  -0.000000   0.000003   0.001729
     6  N    0.000006  -0.000089  -0.000112   0.000006  -0.000143  -0.009385
     7  C   -0.000000  -0.000004   0.004909   0.001183   0.003400  -0.039395
     8  C    0.000000  -0.000001  -0.036652   0.003742   0.001072   0.005054
     9  C    0.000002   0.000219  -0.011438  -0.000183   0.000008  -0.000173
    10  C   -0.000171  -0.009218   0.000334   0.000001  -0.000000  -0.000002
    11  C    0.003940  -0.047453   0.000011   0.000000   0.000000   0.000032
    12  C    0.001093   0.004285  -0.000007   0.000000  -0.000001   0.000034
    13  C    0.004890   0.000561  -0.000000   0.000000   0.000000   0.000049
    14  C   -0.042150   0.005360   0.000000  -0.000000   0.000000   0.000002
    15  C    0.364508  -0.043417  -0.000000  -0.000000  -0.000000  -0.000000
    16  C   -0.037983   0.369101   0.000000   0.000000   0.000000   0.000000
    17  C   -0.000000  -0.000000   0.363615  -0.037091   0.004459   0.000771
    18  C   -0.000000  -0.000000  -0.045965   0.364471  -0.041203   0.005001
    19  C    0.000000   0.000000   0.004990  -0.041589   0.363897  -0.041102
    20  C   -0.000000  -0.000000   0.000503   0.004625  -0.035025   0.360054
    21  H   -0.000000   0.000000   0.000000   0.000000  -0.000000  -0.000000
    22  H   -0.000000   0.000000   0.000000   0.000000   0.000000  -0.000000
    23  H   -0.000000   0.000000  -0.000000  -0.000000  -0.000000   0.000000
    24  H    0.000000  -0.000003  -0.000002   0.000000   0.000000  -0.000010
    25  H    0.000000  -0.000000  -0.000000  -0.000000  -0.000000   0.000001
    26  H    0.000000  -0.000000   0.000000  -0.000000  -0.000000  -0.000000
    27  H   -0.000000   0.000000  -0.000000  -0.000000   0.000000   0.000030
    28  H    0.000000  -0.000000  -0.000003  -0.000000  -0.000004   0.000032
[...]
    31  H    0.000046   0.000001  -0.000014  -0.000320  -0.001572   0.000472
    32  H    0.001103  -0.000162   0.000156  -0.001150  -0.013510   0.001409
    33  H   -0.000488   0.000440  -0.000449  -0.013192  -0.001449  -0.000178
    34  H   -0.000492   0.000159   0.000446  -0.006342   0.000345   0.000035
    35  H    0.409866  -0.018929   0.002579   0.000538  -0.000053   0.000017
    36  H   -0.030501   0.402114  -0.033370   0.004358   0.000000  -0.000000
    37  H    0.006999  -0.037648   0.415445  -0.039647  -0.000000   0.000000
    38  H   -0.001061   0.005553  -0.035523   0.406069   0.000018  -0.000001
    39  H   -0.000012   0.000001  -0.000001   0.000018   0.404506  -0.039054
    40  H    0.000001  -0.000000   0.000000  -0.000000  -0.038490   0.412763
    41  H   -0.000004  -0.000001   0.000000   0.000000   0.003381  -0.033387
    42  H    0.001336  -0.000103   0.000014  -0.000049  -0.001533   0.005237
              19         20         21         22         23         24
     1  C    0.000002   0.000010   0.412827   0.405773   0.422493  -0.047057
     2  N   -0.000232   0.001557  -0.044320  -0.036020  -0.042318   0.343356
     3  C    0.000089   0.001834  -0.008100   0.012398  -0.012786  -0.051267
     4  C    0.001799  -0.016432   0.000113  -0.000863   0.000315  -0.015409
     5  C   -0.004103   0.019127   0.000528   0.000538  -0.001788   0.026323
     6  N    0.014791  -0.085405  -0.000177  -0.000008   0.000085  -0.004246
     7  C    0.029923   0.318196   0.000031  -0.000072   0.000049   0.001409
     8  C   -0.123817   0.082856  -0.000041   0.000041  -0.000016  -0.004870
     9  C   -0.010800   0.031544   0.000553   0.001728  -0.000626   0.017061
    10  C    0.000778   0.000683  -0.000067  -0.000387   0.000138  -0.003544
    11  C   -0.000142   0.001797   0.000015  -0.000018   0.000112  -0.002994
    12  C   -0.000171  -0.002105  -0.000056   0.000022   0.000188  -0.002757
    13  C   -0.001258   0.011227  -0.000003  -0.000050   0.000156   0.000564
    14  C    0.000031  -0.001340   0.000001   0.000012  -0.000039   0.000004
    15  C    0.000005   0.000431  -0.000001  -0.000015   0.000024  -0.000172
    16  C    0.000073  -0.002020   0.000003   0.000064  -0.000064   0.000192
    17  C    0.039963  -0.170055   0.000005   0.000011  -0.000005   0.000247
    18  C    0.458704   0.033534  -0.000001  -0.000000   0.000000  -0.000033
    19  C    5.024396   0.366074   0.000001   0.000000  -0.000000   0.000035
    20  C    0.366074   5.224502  -0.000004  -0.000006   0.000009  -0.000443
    21  H    0.000001  -0.000004   0.552398  -0.017878  -0.050171   0.012772
    22  H    0.000000  -0.000006  -0.017878   0.542031  -0.035772  -0.005621
    23  H   -0.000000   0.000009  -0.050171  -0.035772   0.592589  -0.016871
    24  H    0.000035  -0.000443   0.012772  -0.005621  -0.016871   0.545668
    25  H   -0.000012   0.000079  -0.003637  -0.000495   0.016385  -0.013811
    26  H    0.000013  -0.000087   0.005905   0.000166  -0.003415   0.010797
    27  H   -0.000201  -0.001006  -0.000088   0.000012   0.000098  -0.000622
    28  H   -0.000700   0.002168  -0.000120  -0.000006   0.000193  -0.001756
    29  H    0.000101  -0.000152  -0.000015   0.000003   0.000250  -0.002922
    30  H   -0.002575  -0.004539   0.000003   0.000001  -0.000031   0.001007
    31  H    0.000023  -0.000283  -0.000014  -0.000076   0.000014  -0.000025
    32  H   -0.000849   0.005028  -0.001264  -0.002344   0.001478  -0.016742
    33  H    0.000032  -0.000323   0.000000   0.000009  -0.000001   0.000064
    34  H   -0.000025   0.000124  -0.000000   0.000092  -0.000006  -0.000013
    35  H   -0.000127   0.000581  -0.000000  -0.000001   0.000008   0.000141
    36  H   -0.000000  -0.000010   0.000000   0.000000  -0.000000   0.000003
    37  H    0.000000   0.000001  -0.000000  -0.000000   0.000000  -0.000002
    38  H    0.000001  -0.000004   0.000000   0.000002  -0.000001   0.000003
    39  H    0.006216  -0.002791   0.000000   0.000000  -0.000000  -0.000001
    40  H   -0.036313   0.006193  -0.000000  -0.000000   0.000000  -0.000000
    41  H    0.401917  -0.028595   0.000000   0.000000  -0.000000   0.000000
    42  H   -0.027453   0.418605  -0.000000  -0.000000   0.000000  -0.000053
              25         26         27         28         29         30
     1  C   -0.010820  -0.005462  -0.000553  -0.000592  -0.000277   0.000041
     2  N   -0.061168  -0.040547   0.006475   0.007281  -0.002336  -0.000085
     3  C    0.437875   0.417248  -0.049345  -0.032480  -0.006327   0.005404
     4  C   -0.041781  -0.030147   0.432340   0.431398  -0.032171  -0.060589
     5  C   -0.027120   0.014727  -0.048355  -0.055166   0.432077   0.442358
     6  N    0.001618  -0.001523   0.006321  -0.011142  -0.042522  -0.040587
     7  C    0.000772   0.000144  -0.000590   0.009430   0.015228  -0.018232
     8  C   -0.000026   0.000011   0.000362  -0.003474  -0.001573   0.000323
     9  C   -0.000427   0.000346  -0.000122  -0.000298   0.000026   0.000554
    10  C    0.000045  -0.000009   0.000002  -0.000006  -0.000446  -0.000130
    11  C    0.000049   0.000019  -0.000020  -0.000063  -0.000127  -0.002114
    12  C   -0.000078  -0.000033  -0.000348  -0.000467   0.002385  -0.001056
    13  C    0.000541  -0.000008  -0.000161   0.000113  -0.015984  -0.000673
    14  C   -0.000074   0.000003  -0.000015  -0.000013   0.002690  -0.001374
    15  C    0.000023  -0.000001   0.000001   0.000004  -0.000710   0.000113
    16  C   -0.000036   0.000002  -0.000002  -0.000007   0.000606  -0.000078
    17  C   -0.000029   0.000029   0.000003  -0.000809   0.000059  -0.000240
    18  C    0.000006  -0.000010   0.000024   0.000604  -0.000027   0.000308
    19  C   -0.000012   0.000013  -0.000201  -0.000700   0.000101  -0.002575
    20  C    0.000079  -0.000087  -0.001006   0.002168  -0.000152  -0.004539
    21  H   -0.003637   0.005905  -0.000088  -0.000120  -0.000015   0.000003
    22  H   -0.000495   0.000166   0.000012  -0.000006   0.000003   0.000001
    23  H    0.016385  -0.003415   0.000098   0.000193   0.000250  -0.000031
    24  H   -0.013811   0.010797  -0.000622  -0.001756  -0.002922   0.001007
    25  H    0.604211  -0.048259  -0.000188   0.009035   0.004430  -0.000941
    26  H   -0.048259   0.559260  -0.005807  -0.008261   0.000034  -0.000217
    27  H   -0.000188  -0.005807   0.540441  -0.017780   0.002554  -0.003664
    28  H    0.009035  -0.008261  -0.017780   0.494384   0.003923  -0.000576
    29  H    0.004430   0.000034   0.002554   0.003923   0.484954  -0.026341
    30  H   -0.000941  -0.000217  -0.003664  -0.000576  -0.026341   0.537939
    31  H    0.000009  -0.000010   0.000002   0.000089   0.000002   0.000008
    32  H    0.000970  -0.000855   0.000102   0.001486   0.000240  -0.000238
    33  H   -0.000001   0.000000  -0.000000  -0.000002  -0.000001  -0.000010
    34  H    0.000000  -0.000001   0.000000  -0.000001  -0.000000   0.000006
    35  H    0.000061  -0.000000   0.000042  -0.000044  -0.010089   0.000064
    36  H   -0.000001   0.000000   0.000000  -0.000000   0.000081   0.000012
    37  H    0.000000  -0.000000  -0.000000   0.000000  -0.000000   0.000001
    38  H   -0.000000   0.000000   0.000000  -0.000000   0.000003  -0.000001
    39  H   -0.000000   0.000000  -0.000001  -0.000004   0.000000  -0.000005
    40  H    0.000000  -0.000000   0.000000   0.000000  -0.000000   0.000001
    41  H   -0.000000  -0.000000   0.000005  -0.000012  -0.000001   0.000049
    42  H    0.000038  -0.000013   0.000083   0.001228   0.000120   0.001317
              31         32         33         34         35         36
     1  C   -0.000095  -0.003515   0.000003   0.000021  -0.000003   0.000000
     2  N    0.001355   0.032103  -0.000094   0.000121   0.000042   0.000000
     3  C   -0.000057  -0.000192   0.000013  -0.000021  -0.000159  -0.000001
     4  C    0.000019   0.000878  -0.000000  -0.000025   0.001211  -0.000006
     5  C   -0.000125  -0.004625  -0.000045   0.000144  -0.001415   0.000126
     6  N    0.001274  -0.012083  -0.002575   0.001511  -0.002927  -0.000236
     7  C    0.010387  -0.001384   0.006165  -0.001350  -0.000154   0.000059
     8  C   -0.051373  -0.079098  -0.014436   0.014613   0.000053   0.000001
     9  C    0.443652   0.469170  -0.020504  -0.049701   0.000101  -0.000005
    10  C   -0.068747  -0.051061   0.430745   0.439709  -0.000021   0.000047
    11  C    0.014401  -0.003664  -0.058110  -0.065381   0.001752   0.000415
    12  C   -0.001311   0.003794   0.001207   0.007069  -0.041194   0.007546
    13  C    0.000046   0.001103  -0.000488  -0.000492   0.409866  -0.030501
    14  C    0.000001  -0.000162   0.000440   0.000159  -0.018929   0.402114
    15  C   -0.000014   0.000156  -0.000449   0.000446   0.002579  -0.033370
    16  C   -0.000320  -0.001150  -0.013192  -0.006342   0.000538   0.004358
    17  C   -0.001572  -0.013510  -0.001449   0.000345  -0.000053   0.000000
    18  C    0.000472   0.001409  -0.000178   0.000035   0.000017  -0.000000
    19  C    0.000023  -0.000849   0.000032  -0.000025  -0.000127  -0.000000
    20  C   -0.000283   0.005028  -0.000323   0.000124   0.000581  -0.000010
    21  H   -0.000014  -0.001264   0.000000  -0.000000  -0.000000   0.000000
    22  H   -0.000076  -0.002344   0.000009   0.000092  -0.000001   0.000000
    23  H    0.000014   0.001478  -0.000001  -0.000006   0.000008  -0.000000
    24  H   -0.000025  -0.016742   0.000064  -0.000013   0.000141   0.000003
    25  H    0.000009   0.000970  -0.000001   0.000000   0.000061  -0.000001
    26  H   -0.000010  -0.000855   0.000000  -0.000001  -0.000000   0.000000
    27  H    0.000002   0.000102  -0.000000   0.000000   0.000042   0.000000
    28  H    0.000089   0.001486  -0.000002  -0.000001  -0.000044  -0.000000
    29  H    0.000002   0.000240  -0.000001  -0.000000  -0.010089   0.000081
    30  H    0.000008  -0.000238  -0.000010   0.000006   0.000064   0.000012
    31  H    0.521513  -0.008167  -0.002044  -0.006191  -0.000000   0.000000
    32  H   -0.008167   0.463217   0.005064  -0.001012   0.000031  -0.000000
    33  H   -0.002044   0.005064   0.530622  -0.030692   0.000013   0.000001
    34  H   -0.006191  -0.001012  -0.030692   0.540284   0.000011   0.000000
    35  H   -0.000000   0.000031   0.000013   0.000011   0.489397  -0.003507
    36  H    0.000000  -0.000000   0.000001   0.000000  -0.003507   0.517114
    37  H   -0.000000   0.000000  -0.000025  -0.000039  -0.000258  -0.003679
    38  H   -0.000027  -0.000034  -0.000243   0.000214   0.000048  -0.000338
    39  H    0.003561  -0.000173   0.000475  -0.000085  -0.000000  -0.000000
    40  H   -0.000038   0.000018   0.000002  -0.000001   0.000000   0.000000
    41  H   -0.000001  -0.000008  -0.000002   0.000000  -0.000000  -0.000000
    42  H    0.000018   0.000077  -0.000003  -0.000000   0.000238  -0.000001
              37         38         39         40         41         42
     1  C   -0.000000   0.000001   0.000001  -0.000000   0.000000   0.000000
     2  N    0.000000  -0.000004  -0.000028   0.000000  -0.000000   0.000034
     3  C    0.000000   0.000001   0.000002   0.000000  -0.000001  -0.000132
     4  C    0.000000  -0.000001  -0.000007   0.000005  -0.000026  -0.002740
     5  C   -0.000009   0.000050   0.000051  -0.000009   0.000005   0.009854
     6  N    0.000023  -0.000351  -0.000349   0.000025  -0.000296  -0.007658
     7  C   -0.000008   0.000001   0.019988  -0.000342   0.005229  -0.051892
     8  C   -0.000007   0.000027  -0.042220   0.007227   0.001501   0.008340
     9  C    0.000022   0.000873  -0.007358  -0.000157   0.000092   0.000232
    10  C   -0.000149  -0.002027  -0.001165   0.000033  -0.000010  -0.000032
    11  C    0.007815  -0.049187   0.000312   0.000005   0.000005  -0.000082
    12  C   -0.001285   0.015673  -0.000076  -0.000007   0.000019  -0.001053
    13  C    0.006999  -0.001061  -0.000012   0.000001  -0.000004   0.001336
    14  C   -0.037648   0.005553   0.000001  -0.000000  -0.000001  -0.000103
    15  C    0.415445  -0.035523  -0.000001   0.000000   0.000000   0.000014
    16  C   -0.039647   0.406069   0.000018  -0.000000   0.000000  -0.000049
    17  C   -0.000000   0.000018   0.404506  -0.038490   0.003381  -0.001533
    18  C    0.000000  -0.000001  -0.039054   0.412763  -0.033387   0.005237
    19  C    0.000000   0.000001   0.006216  -0.036313   0.401917  -0.027453
    20  C    0.000001  -0.000004  -0.002791   0.006193  -0.028595   0.418605
    21  H   -0.000000   0.000000   0.000000  -0.000000   0.000000  -0.000000
    22  H   -0.000000   0.000002   0.000000  -0.000000   0.000000  -0.000000
    23  H    0.000000  -0.000001  -0.000000   0.000000  -0.000000   0.000000
    24  H   -0.000002   0.000003  -0.000001  -0.000000   0.000000  -0.000053
    25  H    0.000000  -0.000000  -0.000000   0.000000  -0.000000   0.000038
    26  H   -0.000000   0.000000   0.000000  -0.000000  -0.000000  -0.000013
    27  H   -0.000000   0.000000  -0.000001   0.000000   0.000005   0.000083
    28  H    0.000000  -0.000000  -0.000004   0.000000  -0.000012   0.001228
    29  H   -0.000000   0.000003   0.000000  -0.000000  -0.000001   0.000120
    30  H    0.000001  -0.000001  -0.000005   0.000001   0.000049   0.001317
    31  H   -0.000000  -0.000027   0.003561  -0.000038  -0.000001   0.000018
    32  H    0.000000  -0.000034  -0.000173   0.000018  -0.000008   0.000077
    33  H   -0.000025  -0.000243   0.000475   0.000002  -0.000002  -0.000003
    34  H   -0.000039   0.000214  -0.000085  -0.000001   0.000000  -0.000000
    35  H   -0.000258   0.000048  -0.000000   0.000000  -0.000000   0.000238
    36  H   -0.003679  -0.000338  -0.000000   0.000000  -0.000000  -0.000001
    37  H    0.517218  -0.004309  -0.000000  -0.000000   0.000000   0.000000
    38  H   -0.004309   0.523342   0.000000  -0.000000  -0.000000  -0.000000
    39  H   -0.000000   0.000000   0.528030  -0.003883  -0.000351   0.000042
    40  H   -0.000000  -0.000000  -0.003883   0.516951  -0.003792  -0.000255
    41  H    0.000000  -0.000000  -0.000351  -0.003792   0.517203  -0.003572
    42  H    0.000000  -0.000000   0.000042  -0.000255  -0.003572   0.512507
 Mulliken charges:
               1
     1  C   -0.324303
     2  N   -0.372227
     3  C   -0.200105
     4  C   -0.211056
     5  C   -0.401142
     6  N   -0.138382
     7  C    0.052861
     8  C    0.141723
     9  C   -0.492576
    10  C   -0.317628
    11  C    0.040162
    12  C    0.135969
    13  C   -0.223666
    14  C   -0.151408
    15  C   -0.168064
    16  C   -0.160778
    17  C   -0.124476
    18  C   -0.155763
    19  C   -0.136188
    20  C   -0.210558
    21  H    0.140802
    22  H    0.136729
    23  H    0.129325
    24  H    0.231582
    25  H    0.132760
    26  H    0.135961
    27  H    0.140000
    28  H    0.172442
    29  H    0.192255
    30  H    0.174786
    31  H    0.143647
    32  H    0.215807
    33  H    0.170014
    34  H    0.156474
    35  H    0.172088
    36  H    0.139776
    37  H    0.139540
    38  H    0.141236
    39  H    0.134360
    40  H    0.140061
    41  H    0.140652
    42  H    0.137308
 Sum of Mulliken charges =  -0.00000
 Mulliken charges with hydrogens summed into heavy atoms:
               1
     1  C    0.082553
     2  N   -0.140645
     3  C    0.068616
     4  C    0.101386
     5  C   -0.034101
     6  N   -0.138382
     7  C    0.052861
     8  C    0.141723
     9  C   -0.133121
    10  C    0.008860
    11  C    0.040162
    12  C    0.135969
    13  C   -0.051578
    14  C   -0.011631
    15  C   -0.028524
    16  C   -0.019541
    17  C    0.009884
    18  C   -0.015702
    19  C    0.004464
    20  C   -0.073250
 Electronic spatial extent (au):  <R**2>=           5225.2815
 Charge=              0.0000 electrons
 Dipole moment (field-independent basis, Debye):
    X=             -0.3293    Y=              0.5976    Z=             -0.5282  Tot=              0.8629
 Quadrupole moment (field-independent basis, Debye-Ang):
   XX=           -117.6084   YY=           -122.3401   ZZ=           -111.8255
   XY=             -1.1963   XZ=             -0.8273   YZ=             -4.4075
 Traceless Quadrupole moment (field-independent basis, Debye-Ang):
   XX=             -0.3504   YY=             -5.0821   ZZ=              5.4325
   XY=             -1.1963   XZ=             -0.8273   YZ=             -4.4075
 Octapole moment (field-independent basis, Debye-Ang**2):
  XXX=              7.4788  YYY=             37.4931  ZZZ=             -2.6797  XYY=             -6.0461
  XXY=            -24.9530  XXZ=             -4.4695  XZZ=             -0.2727  YZZ=             -1.6433
  YYZ=              6.5939  XYZ=             -2.3741
 Hexadecapole moment (field-independent basis, Debye-Ang**3):
 XXXX=          -3148.0864 YYYY=          -2686.0728 ZZZZ=          -1331.7212 XXXY=            -12.2399
 XXXZ=             17.9292 YYYX=             23.0520 YYYZ=            -13.4456 ZZZX=              0.4373
 ZZZY=             -8.5597 XXYY=           -944.6617 XXZZ=           -720.6745 YYZZ=           -669.1070
 XXYZ=              3.5077 YYXZ=            -18.1647 ZZXY=             -8.1803
 N-N= 1.573938435836D+03 E-N=-5.023641707543D+03  KE= 8.041057054669D+02
 Unable to Open any file for archive entry.
 1\1\GINC-NOTCH163\SP\RM062X\def2TZVP\C18H22N2\U6032257\23-Sep-2022\0\\
 # M062X/def2tzvp int=(grid=ultrafine) nmr=giao guess=read geom=check\\
 SecN5.xyz\\0,1\C,0,-0.9002016413,-4.5899245357,2.0309013451\N,0,-0.009
 8767843,-3.4841655724,1.7094573223\C,0,0.3282057802,-2.6730958162,2.87
 2575226\C,0,1.1656204701,-1.4428399474,2.5162480777\C,0,0.4496782814,-
 0.4777524649,1.5583808973\N,0,0.6016773918,-0.8922318108,0.160316317\C
 ,0,1.9321356247,-0.8824429362,-0.3662433258\C,0,2.348218771,-1.9564588
 014,-1.1695309166\C,0,1.377716223,-3.0684374696,-1.4439597412\C,0,0.22
 74874217,-2.6182773106,-2.3547387137\C,0,-0.6719448472,-1.4822361323,-
 1.8869134689\C,0,-0.4780743323,-0.6757637479,-0.7410109129\C,0,-1.4007
 27029,0.3521435698,-0.4699659904\C,0,-2.510208531,0.5732875518,-1.2776
 589535\C,0,-2.712862489,-0.2224238527,-2.4027390849\C,0,-1.7911272304,
 -1.2232900112,-2.6900478728\C,0,3.6433784474,-1.9469088413,-1.69237757
 04\C,0,4.5308221446,-0.9098874612,-1.4065617524\C,0,4.1172172011,0.142
 9461087,-0.5918759612\C,0,2.8212109824,0.1588579821,-0.0786276398\H,0,
 -0.3798303205,-5.3028875679,2.680827969\H,0,-1.1774706519,-5.117099606
 3,1.1135447284\H,0,-1.8283409959,-4.2876447908,2.549924208\H,0,-0.4350
 704697,-2.8908669309,1.0031942408\H,0,-0.5757844572,-2.3370788037,3.42
 12975846\H,0,0.8913607484,-3.3036764955,3.5732877695\H,0,1.3945639676,
 -0.9085433281,3.4456586449\H,0,2.1207200545,-1.7509586203,2.0804441401
 \H,0,-0.6193084563,-0.4838395491,1.7873175337\H,0,0.7918126911,0.55419
 87031,1.7275549948\H,0,1.8977627129,-3.8960493783,-1.9375942122\H,0,0.
 9942121553,-3.4473376225,-0.490898927\H,0,0.6595468919,-2.3246487947,-
 3.3209618322\H,0,-0.412547623,-3.4838452811,-2.5674827269\H,0,-1.23131
 96682,1.0030838177,0.3794872751\H,0,-3.2010297197,1.37473618,-1.033824
 8656\H,0,-3.5716318914,-0.066386491,-3.0476793946\H,0,-1.9418982617,-1
 .8484865566,-3.5670722584\H,0,3.9624784285,-2.7773089617,-2.3166529737
 \H,0,5.537881758,-0.9271621827,-1.8114923936\H,0,4.7968136807,0.957864
 8787,-0.3616839174\H,0,2.4996335716,0.9883388809,0.5413771317\\Version
 =ES64L-G16RevC.01\State=1-A\HF=-808.595101\RMSD=3.709e-09\Dipole=-0.15
 65421,0.0690446,0.2932085\Quadrupole=-0.1607407,-0.5588295,0.7195702,0
 .5038216,-0.5518772,5.1234359\PG=C01 [X(C18H22N2)]\\@
 The archive entry for this job was punched.


 GROWING OLD ISN'T SO BAD -- WHEN YOU CONSIDER THE ALTERNATIVE.

                     -- MAURICE CHEVALIER
 Job cpu time:       0 days  3 hours 12 minutes  5.0 seconds.
 Elapsed time:       0 days  0 hours  5 minutes 39.6 seconds.
 File lengths (MBytes):  RWF=    318 Int=      0 D2E=      0 Chk=     53 Scr=      1
 Normal termination of Gaussian 16 at Fri Sep 23 16:43:34 2022.
