 Entering Gaussian System, Link 0=/uufs/chpc.utah.edu/sys/installdir/gaussian16/C01/AVX2/g16/g16
 Input=SecN3_conf-1.com
 Output=SecN3_conf-1.log
 Initial command:
 /uufs/chpc.utah.edu/sys/installdir/gaussian16/C01/AVX2/g16/l1.exe "/scratch/local/u6032257/5771626/notchpeak.peaks/Gau-2988637.inp" -scrdir="/scratch/local/u6032257/5771626/notchpeak.peaks/"
 Entering Link 1 = /uufs/chpc.utah.edu/sys/installdir/gaussian16/C01/AVX2/g16/l1.exe PID=   2988639.
  
 Copyright (c) 1988-2019, Gaussian, Inc.  All Rights Reserved.
  
 This is part of the Gaussian(R) 16 program.  It is based on
 the Gaussian(R) 09 system (copyright 2009, Gaussian, Inc.),
 the Gaussian(R) 03 system (copyright 2003, Gaussian, Inc.),
 the Gaussian(R) 98 system (copyright 1998, Gaussian, Inc.),
 the Gaussian(R) 94 system (copyright 1995, Gaussian, Inc.),
 the Gaussian 92(TM) system (copyright 1992, Gaussian, Inc.),
 the Gaussian 90(TM) system (copyright 1990, Gaussian, Inc.),
 the Gaussian 88(TM) system (copyright 1988, Gaussian, Inc.),
 the Gaussian 86(TM) system (copyright 1986, Carnegie Mellon
 University), and the Gaussian 82(TM) system (copyright 1983,
 Carnegie Mellon University). Gaussian is a federally registered
 trademark of Gaussian, Inc.
  
 This software contains proprietary and confidential information,
 including trade secrets, belonging to Gaussian, Inc.
  
 This software is provided under written license and may be
 used, copied, transmitted, or stored only in accord with that
 written license.
  
 The following legend is applicable only to US Government
 contracts under FAR:
  
                    RESTRICTED RIGHTS LEGEND
  
 Use, reproduction and disclosure by the US Government is
 subject to restrictions as set forth in subparagraphs (a)
 and (c) of the Commercial Computer Software - Restricted
 Rights clause in FAR 52.227-19.
  
 Gaussian, Inc.
 340 Quinnipiac St., Bldg. 40, Wallingford CT 06492
  
  
 ---------------------------------------------------------------
 Warning -- This program may not be used in any manner that
 competes with the business of Gaussian, Inc. or will provide
 assistance to any competitor of Gaussian, Inc.  The licensee
 of this program is prohibited from giving any competitor of
 Gaussian, Inc. access to this program.  By using this program,
 the user acknowledges that Gaussian, Inc. is engaged in the
 business of creating and licensing software in the field of
 computational chemistry and represents and warrants to the
 licensee that it is not a competitor of Gaussian, Inc. and that
 it will not use this program in any manner prohibited above.
 ---------------------------------------------------------------
  

 Cite this work as:
 Gaussian 16, Revision C.01,
 M. J. Frisch, G. W. Trucks, H. B. Schlegel, G. E. Scuseria, 
 M. A. Robb, J. R. Cheeseman, G. Scalmani, V. Barone, 
 G. A. Petersson, H. Nakatsuji, X. Li, M. Caricato, A. V. Marenich, 
 J. Bloino, B. G. Janesko, R. Gomperts, B. Mennucci, H. P. Hratchian, 
 J. V. Ortiz, A. F. Izmaylov, J. L. Sonnenberg, D. Williams-Young, 
 F. Ding, F. Lipparini, F. Egidi, J. Goings, B. Peng, A. Petrone, 
 T. Henderson, D. Ranasinghe, V. G. Zakrzewski, J. Gao, N. Rega, 
 G. Zheng, W. Liang, M. Hada, M. Ehara, K. Toyota, R. Fukuda, 
 J. Hasegawa, M. Ishida, T. Nakajima, Y. Honda, O. Kitao, H. Nakai, 
 T. Vreven, K. Throssell, J. A. Montgomery, Jr., J. E. Peralta, 
 F. Ogliaro, M. J. Bearpark, J. J. Heyd, E. N. Brothers, K. N. Kudin, 
 V. N. Staroverov, T. A. Keith, R. Kobayashi, J. Normand, 
 K. Raghavachari, A. P. Rendell, J. C. Burant, S. S. Iyengar, 
 J. Tomasi, M. Cossi, J. M. Millam, M. Klene, C. Adamo, R. Cammi, 
 J. W. Ochterski, R. L. Martin, K. Morokuma, O. Farkas, 
 J. B. Foresman, and D. J. Fox, Gaussian, Inc., Wallingford CT, 2019.
 
 ******************************************
 Gaussian 16:  ES64L-G16RevC.01  3-Jul-2019
                23-Sep-2022 
 ******************************************
 %NProcShared=64
 Will use up to   64 processors via shared memory.
 %mem=16GB
 %chk=SecN3_conf-1.chk
 ----------------------------------------------------------------------
 # B3LYP/6-31G(d,p) empiricaldispersion=GD3BJ int=(grid=ultrafine) opt 
 freq=noraman
 ----------------------------------------------------------------------
 1/18=20,19=15,26=4,38=1/1,3;
 2/9=110,12=2,17=6,18=5,40=1/2;
 3/5=1,6=6,7=101,11=2,25=1,30=1,71=1,74=-5,75=-5,124=41/1,2,3;
 4//1;
 5/5=2,38=5/2;
 6/7=2,8=2,9=2,10=2,28=1/1;
 7//1,2,3,16;
 1/18=20,19=15,26=4/3(2);
 2/9=110/2;
 99//99;
 2/9=110/2;
 3/5=1,6=6,7=101,11=2,25=1,30=1,71=1,74=-5,75=-5,124=41/1,2,3;
 4/5=5,16=3,69=1/1;
 5/5=2,38=5/2;
 7//1,2,3,16;
 1/18=20,19=15,26=4/3(-5);
 2/9=110/2;
 6/7=2,8=2,9=2,10=2,19=2,28=1/1;
 99/9=1/99;
 ---------
 SecN3.xyz
 ---------
 Symbolic Z-matrix:
 Charge =  0 Multiplicity = 1
 C                    -1.0867    0.3779    0.1207 
 C                     0.1472    1.0303   -0.505 
 C                     1.2864    0.0647   -0.1872 
 N                     0.6357   -1.2236   -0.0222 
 C                    -0.5559   -0.9094    0.7471 
 H                    -1.543     1.017     0.8776 
 H                    -1.8522    0.1626   -0.626 
 H                     0.3446    2.015    -0.0796 
 H                     0.0333    1.1595   -1.5822 
 H                     1.824     0.3623    0.7165 
 H                     2.0117    0.0141   -1.0017 
 H                     0.3584   -1.5709   -0.9311 
 H                    -0.3263   -0.7746    1.807 
 H                    -1.2773   -1.7249    0.6662 
 

 GradGradGradGradGradGradGradGradGradGradGradGradGradGradGradGradGradGrad
 Berny optimization.
 Initialization pass.
                           ----------------------------
                           !    Initial Parameters    !
                           ! (Angstroms and Degrees)  !
 --------------------------                            --------------------------
 ! Name  Definition              Value          Derivative Info.                !
 --------------------------------------------------------------------------------
 ! R1    R(1,2)                  1.5296         estimate D2E/DX2                !
 ! R2    R(1,5)                  1.5268         estimate D2E/DX2                !
 ! R3    R(1,6)                  1.0907         estimate D2E/DX2                !
 ! R4    R(1,7)                  1.0908         estimate D2E/DX2                !
 ! R5    R(2,3)                  1.5268         estimate D2E/DX2                !
 ! R6    R(2,8)                  1.0907         estimate D2E/DX2                !
 ! R7    R(2,9)                  1.0909         estimate D2E/DX2                !
 ! R8    R(3,4)                  1.4527         estimate D2E/DX2                !
 ! R9    R(3,10)                 1.0928         estimate D2E/DX2                !
 ! R10   R(3,11)                 1.0918         estimate D2E/DX2                !
 ! R11   R(4,5)                  1.4527         estimate D2E/DX2                !
 ! R12   R(4,12)                 1.0117         estimate D2E/DX2                !
 ! R13   R(5,13)                 1.0928         estimate D2E/DX2                !
 ! R14   R(5,14)                 1.0918         estimate D2E/DX2                !
 ! A1    A(2,1,5)              104.2991         estimate D2E/DX2                !
 ! A2    A(2,1,6)              111.8048         estimate D2E/DX2                !
 ! A3    A(2,1,7)              111.7323         estimate D2E/DX2                !
 ! A4    A(5,1,6)              110.7794         estimate D2E/DX2                !
 ! A5    A(5,1,7)              111.0012         estimate D2E/DX2                !
 ! A6    A(6,1,7)              107.284          estimate D2E/DX2                !
 ! A7    A(1,2,3)              104.3004         estimate D2E/DX2                !
 ! A8    A(1,2,8)              111.8101         estimate D2E/DX2                !
 ! A9    A(1,2,9)              111.7293         estimate D2E/DX2                !
 ! A10   A(3,2,8)              110.7784         estimate D2E/DX2                !
 ! A11   A(3,2,9)              110.9984         estimate D2E/DX2                !
 ! A12   A(8,2,9)              107.2842         estimate D2E/DX2                !
 ! A13   A(2,3,4)              104.4946         estimate D2E/DX2                !
 ! A14   A(2,3,10)             111.5276         estimate D2E/DX2                !
 ! A15   A(2,3,11)             111.6968         estimate D2E/DX2                !
 ! A16   A(4,3,10)             111.588          estimate D2E/DX2                !
 ! A17   A(4,3,11)             109.9497         estimate D2E/DX2                !
 ! A18   A(10,3,11)            107.6217         estimate D2E/DX2                !
 ! A19   A(3,4,5)              103.6358         estimate D2E/DX2                !
 ! A20   A(3,4,12)             108.9749         estimate D2E/DX2                !
 ! A21   A(5,4,12)             108.9749         estimate D2E/DX2                !
 ! A22   A(1,5,4)              104.4923         estimate D2E/DX2                !
 ! A23   A(1,5,13)             111.5268         estimate D2E/DX2                !
 ! A24   A(1,5,14)             111.6938         estimate D2E/DX2                !
 ! A25   A(4,5,13)             111.5888         estimate D2E/DX2                !
 ! A26   A(4,5,14)             109.9493         estimate D2E/DX2                !
 ! A27   A(13,5,14)            107.6272         estimate D2E/DX2                !
 ! D1    D(5,1,2,3)              0.0024         estimate D2E/DX2                !
 ! D2    D(5,1,2,8)           -119.7551         estimate D2E/DX2                !
 ! D3    D(5,1,2,9)            119.9811         estimate D2E/DX2                !
 ! D4    D(6,1,2,3)            119.7577         estimate D2E/DX2                !
 ! D5    D(6,1,2,8)              0.0002         estimate D2E/DX2                !
 ! D6    D(6,1,2,9)           -120.2637         estimate D2E/DX2                !
 ! D7    D(7,1,2,3)           -119.9803         estimate D2E/DX2                !
 ! D8    D(7,1,2,8)            120.2622         estimate D2E/DX2                !
 ! D9    D(7,1,2,9)             -0.0017         estimate D2E/DX2                !
 ! D10   D(2,1,5,4)            -25.3482         estimate D2E/DX2                !
 ! D11   D(2,1,5,13)            95.348          estimate D2E/DX2                !
 ! D12   D(2,1,5,14)          -144.1702         estimate D2E/DX2                !
 ! D13   D(6,1,5,4)           -145.7928         estimate D2E/DX2                !
 ! D14   D(6,1,5,13)           -25.0966         estimate D2E/DX2                !
 ! D15   D(6,1,5,14)            95.3852         estimate D2E/DX2                !
 ! D16   D(7,1,5,4)             95.1255         estimate D2E/DX2                !
 ! D17   D(7,1,5,13)          -144.1783         estimate D2E/DX2                !
 ! D18   D(7,1,5,14)           -23.6965         estimate D2E/DX2                !
 ! D19   D(1,2,3,4)             25.345          estimate D2E/DX2                !
 ! D20   D(1,2,3,10)           -95.3521         estimate D2E/DX2                !
 ! D21   D(1,2,3,11)           144.1704         estimate D2E/DX2                !
 ! D22   D(8,2,3,4)            145.7961         estimate D2E/DX2                !
 ! D23   D(8,2,3,10)            25.099          estimate D2E/DX2                !
 ! D24   D(8,2,3,11)           -95.3785         estimate D2E/DX2                !
 ! D25   D(9,2,3,4)            -95.1244         estimate D2E/DX2                !
 ! D26   D(9,2,3,10)           144.1785         estimate D2E/DX2                !
 ! D27   D(9,2,3,11)            23.701          estimate D2E/DX2                !
 ! D28   D(2,3,4,5)            -42.1491         estimate D2E/DX2                !
 ! D29   D(2,3,4,12)            73.7775         estimate D2E/DX2                !
 ! D30   D(10,3,4,5)            78.5078         estimate D2E/DX2                !
 ! D31   D(10,3,4,12)         -165.5655         estimate D2E/DX2                !
 ! D32   D(11,3,4,5)          -162.1531         estimate D2E/DX2                !
 ! D33   D(11,3,4,12)          -46.2265         estimate D2E/DX2                !
 ! D34   D(3,4,5,1)             42.15           estimate D2E/DX2                !
 ! D35   D(3,4,5,13)           -78.505          estimate D2E/DX2                !
 ! D36   D(3,4,5,14)           162.1489         estimate D2E/DX2                !
 ! D37   D(12,4,5,1)           -73.7767         estimate D2E/DX2                !
 ! D38   D(12,4,5,13)          165.5684         estimate D2E/DX2                !
 ! D39   D(12,4,5,14)           46.2222         estimate D2E/DX2                !
 --------------------------------------------------------------------------------
 Trust Radius=3.00D-01 FncErr=1.00D-07 GrdErr=1.00D-06 EigMax=2.50D+02 EigMin=1.00D-04
 Number of steps in this run=     90 maximum allowed number of steps=    100.
 GradGradGradGradGradGradGradGradGradGradGradGradGradGradGradGradGradGrad

                          Input orientation:                          
 ---------------------------------------------------------------------
 Center     Atomic      Atomic             Coordinates (Angstroms)
 Number     Number       Type             X           Y           Z
 ---------------------------------------------------------------------
      1          6           0       -1.086700    0.377900    0.120700
      2          6           0        0.147200    1.030300   -0.505000
      3          6           0        1.286400    0.064700   -0.187200
      4          7           0        0.635700   -1.223600   -0.022200
      5          6           0       -0.555900   -0.909400    0.747100
      6          1           0       -1.543000    1.017000    0.877600
      7          1           0       -1.852200    0.162600   -0.626000
      8          1           0        0.344600    2.015000   -0.079600
      9          1           0        0.033300    1.159500   -1.582200
     10          1           0        1.824000    0.362300    0.716500
     11          1           0        2.011700    0.014100   -1.001700
     12          1           0        0.358400   -1.570900   -0.931100
     13          1           0       -0.326300   -0.774600    1.807000
     14          1           0       -1.277300   -1.724900    0.666200
 ---------------------------------------------------------------------
                    Distance matrix (angstroms):
                    1          2          3          4          5
     1  C    0.000000
     2  C    1.529587   0.000000
     3  C    2.413400   1.526813   0.000000
     4  N    2.356244   2.356224   1.452705   0.000000
     5  C    1.526849   2.413408   2.283825   1.452740   0.000000
     6  H    1.090668   2.183698   3.169571   3.252178   2.168505
     7  H    1.090828   2.182921   3.170637   2.911318   2.171401
     8  H    2.183767   1.090672   2.168464   3.252163   3.169613
     9  H    2.182926   1.090883   2.171376   2.911297   3.170669
    10  H    2.971093   2.179437   1.092819   2.114903   2.698533
    11  H    3.315451   2.180764   1.091802   2.093967   3.240945
    12  H    2.644318   2.644316   2.022315   1.011737   2.022346
    13  H    2.179466   2.971062   2.698529   2.114951   1.092829
    14  H    2.180749   3.315424   3.240913   2.093983   1.091789
                    6          7          8          9         10
     6  H    0.000000
     7  H    1.756820   0.000000
     8  H    2.339929   2.925042   0.000000
     9  H    2.925003   2.337357   1.756871   0.000000
    10  H    3.433842   3.918754   2.356654   3.020953   0.000000
    11  H    4.144088   3.884962   2.762805   2.358599   1.763147
    12  H    3.685640   2.825750   3.685637   2.825722   2.932547
    13  H    2.356687   3.020961   3.433837   3.918767   2.665618
    14  H    2.762843   2.358590   4.144108   3.884937   3.738582
                   11         12         13         14
    11  H    0.000000
    12  H    2.291421   0.000000
    13  H    3.738594   2.932593   0.000000
    14  H    4.077197   2.291418   1.763206   0.000000
 Stoichiometry    C4H9N
 Framework group  C1[X(C4H9N)]
 Deg. of freedom    36
 Full point group                 C1      NOp   1
 Largest Abelian subgroup         C1      NOp   1
 Largest concise Abelian subgroup C1      NOp   1
                         Standard orientation:                         
 ---------------------------------------------------------------------
 Center     Atomic      Atomic             Coordinates (Angstroms)
 Number     Number       Type             X           Y           Z
 ---------------------------------------------------------------------
      1          6           0       -0.764845    0.998490   -0.075502
      2          6           0        0.764741    0.998551   -0.075468
      3          6           0        1.141923   -0.451474    0.218329
      4          7           0        0.000070   -1.224100   -0.239463
      5          6           0       -1.141902   -0.451595    0.218349
      6          1           0       -1.170013    1.665635    0.686281
      7          1           0       -1.168738    1.320447   -1.036293
      8          1           0        1.169917    1.665705    0.686309
      9          1           0        1.168619    1.320535   -1.036320
     10          1           0        1.332843   -0.608371    1.282841
     11          1           0        2.038640   -0.753585   -0.326335
     12          1           0        0.000067   -1.243270   -1.251018
     13          1           0       -1.332776   -0.608468    1.282883
     14          1           0       -2.038557   -0.753765   -0.326358
 ---------------------------------------------------------------------
 Rotational constants (GHZ):           6.9600091           6.9126394           4.0395690
 Standard basis: 6-31G(d,p) (6D, 7F)
 There are   120 symmetry adapted cartesian basis functions of A   symmetry.
 There are   120 symmetry adapted basis functions of A   symmetry.
   120 basis functions,   203 primitive gaussians,   120 cartesian basis functions
    20 alpha electrons       20 beta electrons
       nuclear repulsion energy       192.0546063097 Hartrees.
 NAtoms=   14 NActive=   14 NUniq=   14 SFac= 1.00D+00 NAtFMM=   60 NAOKFM=F Big=F
 Integral buffers will be    131072 words long.
 Raffenetti 2 integral format.
 Two-electron integral symmetry is turned on.
 Nuclear repulsion after empirical dispersion term =      192.0365967120 Hartrees.
 One-electron integrals computed using PRISM.
 NBasis=   120 RedAO= T EigKep=  2.63D-03  NBF=   120
 NBsUse=   120 1.00D-06 EigRej= -1.00D+00 NBFU=   120
 ExpMin= 1.61D-01 ExpMax= 4.17D+03 ExpMxC= 6.27D+02 IAcc=3 IRadAn=         5 AccDes= 0.00D+00
 Harris functional with IExCor=  402 and IRadAn=       5 diagonalized for initial guess.
 HarFok:  IExCor=  402 AccDes= 0.00D+00 IRadAn=         5 IDoV= 1 UseB2=F ITyADJ=14
 ICtDFT=  3500011 ScaDFX=  1.000000  1.000000  1.000000  1.000000
 FoFCou: FMM=F IPFlag=           0 FMFlag=      100000 FMFlg1=           0
         NFxFlg=           0 DoJE=T BraDBF=F KetDBF=T FulRan=T
         wScrn=  0.000000 ICntrl=       500 IOpCl=  0 I1Cent=   200000004 NGrid=           0
         NMat0=    1 NMatS0=      1 NMatT0=    0 NMatD0=    1 NMtDS0=    0 NMtDT0=    0
 Petite list used in FoFCou.
 Requested convergence on RMS density matrix=1.00D-08 within 128 cycles.
 Requested convergence on MAX density matrix=1.00D-06.
 Requested convergence on             energy=1.00D-06.
 No special actions if energy rises.
 Integral accuracy reduced to 1.0D-05 until final iterations.
 Initial convergence to 1.0D-05 achieved.  Increase integral accuracy.
 SCF Done:  E(RB3LYP) =  -212.609975478     A.U. after   11 cycles
            NFock= 11  Conv=0.88D-08     -V/T= 2.0087

 **********************************************************************

            Population analysis using the SCF Density.

 **********************************************************************

 Orbital symmetries:
       Occupied  (A) (A) (A) (A) (A) (A) (A) (A) (A) (A) (A) (A)
                 (A) (A) (A) (A) (A) (A) (A) (A)
       Virtual   (A) (A) (A) (A) (A) (A) (A) (A) (A) (A) (A) (A)
                 (A) (A) (A) (A) (A) (A) (A) (A) (A) (A) (A) (A)
                 (A) (A) (A) (A) (A) (A) (A) (A) (A) (A) (A) (A)
                 (A) (A) (A) (A) (A) (A) (A) (A) (A) (A) (A) (A)
                 (A) (A) (A) (A) (A) (A) (A) (A) (A) (A) (A) (A)
                 (A) (A) (A) (A) (A) (A) (A) (A) (A) (A) (A) (A)
                 (A) (A) (A) (A) (A) (A) (A) (A) (A) (A) (A) (A)
                 (A) (A) (A) (A) (A) (A) (A) (A) (A) (A) (A) (A)
                 (A) (A) (A) (A)
 The electronic state is 1-A.
 Alpha  occ. eigenvalues --  -14.30594 -10.19553 -10.19552 -10.17110 -10.17089
 Alpha  occ. eigenvalues --   -0.91897  -0.75081  -0.71742  -0.59796  -0.56758
 Alpha  occ. eigenvalues --   -0.50274  -0.46275  -0.42947  -0.42744  -0.36250
 Alpha  occ. eigenvalues --   -0.35043  -0.33692  -0.33405  -0.31588  -0.21762
 Alpha virt. eigenvalues --    0.07250   0.10314   0.14173   0.14384   0.15797
 Alpha virt. eigenvalues --    0.17285   0.18589   0.18638   0.20676   0.21884
 Alpha virt. eigenvalues --    0.24664   0.25724   0.30728   0.33634   0.52320
 Alpha virt. eigenvalues --    0.53907   0.54753   0.57673   0.58537   0.60971
 Alpha virt. eigenvalues --    0.64930   0.66506   0.68022   0.70352   0.77089
 Alpha virt. eigenvalues --    0.77221   0.79684   0.81710   0.83788   0.84753
 Alpha virt. eigenvalues --    0.85212   0.87857   0.91189   0.92303   0.92403
 Alpha virt. eigenvalues --    0.94752   0.97470   0.98058   1.17958   1.23616
 Alpha virt. eigenvalues --    1.30511   1.30567   1.40133   1.54189   1.65340
 Alpha virt. eigenvalues --    1.66427   1.67371   1.69191   1.78830   1.81499
 Alpha virt. eigenvalues --    1.86367   1.88158   1.90458   1.93048   1.96960
 Alpha virt. eigenvalues --    2.00595   2.02532   2.04553   2.05912   2.12381
 Alpha virt. eigenvalues --    2.22875   2.24545   2.25360   2.27316   2.29828
 Alpha virt. eigenvalues --    2.33882   2.37013   2.40444   2.41331   2.45832
 Alpha virt. eigenvalues --    2.47377   2.51537   2.53857   2.59495   2.61199
 Alpha virt. eigenvalues --    2.66968   2.71857   2.73868   2.74468   2.80000
 Alpha virt. eigenvalues --    2.85125   2.85270   2.93007   2.96154   2.96419
 Alpha virt. eigenvalues --    3.08882   3.21099   3.27870   3.28814   3.36677
 Alpha virt. eigenvalues --    3.37150   3.44612   3.47100   3.55180   3.59823
 Alpha virt. eigenvalues --    4.10387   4.35177   4.41249   4.59755   4.80355
          Condensed to atoms (all electrons):
               1          2          3          4          5          6
     1  C    5.034041   0.393777  -0.073961  -0.099563   0.362157   0.362040
     2  C    0.393777   5.034055   0.362157  -0.099568  -0.073960  -0.034740
     3  C   -0.073961   0.362157   4.837898   0.350707  -0.090000   0.004896
     4  N   -0.099563  -0.099568   0.350707   6.749323   0.350698   0.006478
     5  C    0.362157  -0.073960  -0.090000   0.350698   4.837905  -0.028124
     6  H    0.362040  -0.034740   0.004896   0.006478  -0.028124   0.637203
     7  H    0.380728  -0.035017   0.002863   0.003201  -0.034179  -0.035183
     8  H   -0.034734   0.362041  -0.028128   0.006478   0.004895  -0.008243
     9  H   -0.035021   0.380717  -0.034183   0.003201   0.002863   0.004747
    10  H   -0.003558  -0.055312   0.391638  -0.042422  -0.001352   0.000699
    11  H    0.005838  -0.036015   0.381650  -0.030240   0.007637  -0.000175
    12  H   -0.001668  -0.001668  -0.046139   0.346943  -0.046135   0.000004
    13  H   -0.055307  -0.003558  -0.001351  -0.042418   0.391637  -0.005213
    14  H   -0.036016   0.005838   0.007636  -0.030239   0.381649   0.003465
               7          8          9         10         11         12
     1  C    0.380728  -0.034734  -0.035021  -0.003558   0.005838  -0.001668
     2  C   -0.035017   0.362041   0.380717  -0.055312  -0.036015  -0.001668
     3  C    0.002863  -0.028128  -0.034183   0.391638   0.381650  -0.046139
     4  N    0.003201   0.006478   0.003201  -0.042422  -0.030240   0.346943
     5  C   -0.034179   0.004895   0.002863  -0.001352   0.007637  -0.046135
     6  H   -0.035183  -0.008243   0.004747   0.000699  -0.000175   0.000004
     7  H    0.632383   0.004747  -0.011619  -0.000041  -0.000160   0.001829
     8  H    0.004747   0.637198  -0.035180  -0.005213   0.003465   0.000004
     9  H   -0.011619  -0.035180   0.632410   0.005629  -0.009919   0.001830
    10  H   -0.000041  -0.005213   0.005629   0.630263  -0.037407   0.007005
    11  H   -0.000160   0.003465  -0.009919  -0.037407   0.630524  -0.007949
    12  H    0.001829   0.000004   0.001830   0.007005  -0.007949   0.515922
    13  H    0.005628   0.000699  -0.000041   0.004976  -0.000072   0.007004
    14  H   -0.009918  -0.000175  -0.000160  -0.000072  -0.000372  -0.007947
              13         14
     1  C   -0.055307  -0.036016
     2  C   -0.003558   0.005838
     3  C   -0.001351   0.007636
     4  N   -0.042418  -0.030239
     5  C    0.391637   0.381649
     6  H   -0.005213   0.003465
     7  H    0.005628  -0.009918
     8  H    0.000699  -0.000175
     9  H   -0.000041  -0.000160
    10  H    0.004976  -0.000072
    11  H   -0.000072  -0.000372
    12  H    0.007004  -0.007947
    13  H    0.630246  -0.037400
    14  H   -0.037400   0.630512
 Mulliken charges:
               1
     1  C   -0.198752
     2  C   -0.198748
     3  C   -0.065683
     4  N   -0.472579
     5  C   -0.065689
     6  H    0.092146
     7  H    0.094737
     8  H    0.092146
     9  H    0.094725
    10  H    0.105166
    11  H    0.093195
    12  H    0.230966
    13  H    0.105171
    14  H    0.093199
 Sum of Mulliken charges =  -0.00000
 Mulliken charges with hydrogens summed into heavy atoms:
               1
     1  C   -0.011869
     2  C   -0.011878
     3  C    0.132679
     4  N   -0.241613
     5  C    0.132681
 Electronic spatial extent (au):  <R**2>=            381.6231
 Charge=             -0.0000 electrons
 Dipole moment (field-independent basis, Debye):
    X=             -0.0001    Y=              1.0877    Z=             -0.6141  Tot=              1.2491
 Quadrupole moment (field-independent basis, Debye-Ang):
   XX=            -31.1455   YY=            -36.5726   ZZ=            -29.8128
   XY=              0.0002   XZ=              0.0001   YZ=              1.1376
 Traceless Quadrupole moment (field-independent basis, Debye-Ang):
   XX=              1.3648   YY=             -4.0623   ZZ=              2.6975
   XY=              0.0002   XZ=              0.0001   YZ=              1.1376
 Octapole moment (field-independent basis, Debye-Ang**2):
  XXX=              0.0002  YYY=              5.5490  ZZZ=             -2.5253  XYY=             -0.0006
  XXY=             -2.2259  XXZ=             -0.8367  XZZ=             -0.0001  YZZ=             -2.4014
  YYZ=             -1.4064  XYZ=              0.0002
 Hexadecapole moment (field-independent basis, Debye-Ang**3):
 XXXX=           -224.5891 YYYY=           -234.1377 ZZZZ=            -67.2987 XXXY=             -0.0003
 XXXZ=              0.0008 YYYX=              0.0005 YYYZ=              4.1853 ZZZX=             -0.0001
 ZZZY=              3.0326 XXYY=            -73.0090 XXZZ=            -47.7516 YYZZ=            -43.7718
 XXYZ=              1.3600 YYXZ=              0.0004 ZZXY=             -0.0001
 N-N= 1.920365967120D+02 E-N=-8.767410172071D+02  KE= 2.107706323998D+02
 Calling FoFJK, ICntrl=      2127 FMM=F ISym2X=0 I1Cent= 0 IOpClX= 0 NMat=1 NMatS=1 NMatT=0.
 ***** Axes restored to original set *****
 -------------------------------------------------------------------
 Center     Atomic                   Forces (Hartrees/Bohr)
 Number     Number              X              Y              Z
 -------------------------------------------------------------------
      1        6          -0.012957693    0.009951578    0.008320223
      2        6           0.002539897    0.018157657    0.000400245
      3        6           0.004459039   -0.002045311   -0.016410714
      4        7           0.017360977   -0.016120504    0.017462971
      5        6          -0.010758045   -0.010074704   -0.008710866
      6        1          -0.003592953    0.003213936   -0.000024353
      7        1          -0.001468874   -0.000542383   -0.001811675
      8        1          -0.001152545    0.004505093   -0.001265277
      9        1          -0.000375641    0.000034817   -0.002330271
     10        1          -0.000779288   -0.002996578    0.003954321
     11        1           0.003674298   -0.000194615    0.000734214
     12        1          -0.001361532   -0.001489097   -0.004233458
     13        1           0.004903525    0.000003839    0.001062401
     14        1          -0.000491165   -0.002403728    0.002852240
 -------------------------------------------------------------------
 Cartesian Forces:  Max     0.018157657 RMS     0.007373679

 GradGradGradGradGradGradGradGradGradGradGradGradGradGradGradGradGradGrad
 Berny optimization.
 FormGI is forming the generalized inverse of G from B-inverse, IUseBI=4.
 Internal  Forces:  Max     0.017828082 RMS     0.004433030
 Search for a local minimum.
 Step number   1 out of a maximum of   90
 All quantities printed in internal units (Hartrees-Bohrs-Radians)
 Mixed Optimization -- RFO/linear search
 Second derivative matrix not updated -- first step.
 ITU=  0
     Eigenvalues ---    0.00455   0.00993   0.02465   0.02559   0.04408
     Eigenvalues ---    0.04607   0.05073   0.05208   0.05536   0.05662
     Eigenvalues ---    0.05992   0.06164   0.07028   0.07028   0.08414
     Eigenvalues ---    0.08454   0.08536   0.09171   0.11003   0.11485
     Eigenvalues ---    0.20344   0.20969   0.27774   0.28275   0.29694
     Eigenvalues ---    0.34488   0.34489   0.34605   0.34607   0.34711
     Eigenvalues ---    0.34717   0.34735   0.34736   0.35586   0.36163
     Eigenvalues ---    0.45683
 RFO step:  Lambda=-8.76533074D-03 EMin= 4.55066973D-03
 Linear search not attempted -- first point.
 Iteration  1 RMS(Cart)=  0.03784863 RMS(Int)=  0.00109927
 Iteration  2 RMS(Cart)=  0.00113036 RMS(Int)=  0.00071632
 Iteration  3 RMS(Cart)=  0.00000071 RMS(Int)=  0.00071632
 Variable       Old X    -DE/DX   Delta X   Delta X   Delta X     New X
                                 (Linear)    (Quad)   (Total)
    R1        2.89050   0.01443   0.00000   0.04178   0.04188   2.93238
    R2        2.88533   0.01781   0.00000   0.05681   0.05683   2.94215
    R3        2.06106   0.00337   0.00000   0.00946   0.00946   2.07053
    R4        2.06137   0.00238   0.00000   0.00668   0.00668   2.06805
    R5        2.88526   0.01783   0.00000   0.05685   0.05688   2.94213
    R6        2.06107   0.00337   0.00000   0.00945   0.00945   2.07052
    R7        2.06147   0.00234   0.00000   0.00659   0.00659   2.06806
    R8        2.74521   0.00958   0.00000   0.02828   0.02821   2.77342
    R9        2.06513   0.00207   0.00000   0.00585   0.00585   2.07098
   R10        2.06321   0.00190   0.00000   0.00536   0.00536   2.06857
   R11        2.74528   0.00957   0.00000   0.02823   0.02816   2.77344
   R12        1.91191   0.00469   0.00000   0.01007   0.01007   1.92197
   R13        2.06515   0.00206   0.00000   0.00583   0.00583   2.07098
   R14        2.06318   0.00191   0.00000   0.00538   0.00538   2.06856
    A1        1.82036  -0.00286   0.00000  -0.00586  -0.00643   1.81393
    A2        1.95136   0.00016   0.00000   0.00830   0.00863   1.95999
    A3        1.95010   0.00106   0.00000  -0.01065  -0.01103   1.93907
    A4        1.93347   0.00296   0.00000   0.03045   0.03052   1.96398
    A5        1.93734   0.00005   0.00000  -0.01053  -0.01050   1.92684
    A6        1.87246  -0.00125   0.00000  -0.01080  -0.01075   1.86171
    A7        1.82038  -0.00287   0.00000  -0.00588  -0.00646   1.81393
    A8        1.95145   0.00015   0.00000   0.00822   0.00855   1.96000
    A9        1.95004   0.00106   0.00000  -0.01060  -0.01098   1.93906
   A10        1.93345   0.00297   0.00000   0.03047   0.03054   1.96399
   A11        1.93729   0.00005   0.00000  -0.01048  -0.01045   1.92684
   A12        1.87246  -0.00125   0.00000  -0.01081  -0.01077   1.86170
   A13        1.82377   0.00775   0.00000   0.05484   0.05301   1.87678
   A14        1.94652  -0.00321   0.00000  -0.02686  -0.02553   1.92100
   A15        1.94948   0.00191   0.00000   0.03368   0.03221   1.98169
   A16        1.94758  -0.00549   0.00000  -0.06654  -0.06628   1.88130
   A17        1.91898  -0.00180   0.00000   0.01363   0.01165   1.93063
   A18        1.87835   0.00079   0.00000  -0.00801  -0.00796   1.87040
   A19        1.80879  -0.00463   0.00000  -0.00436  -0.00647   1.80232
   A20        1.90197  -0.00055   0.00000  -0.01859  -0.01822   1.88376
   A21        1.90197  -0.00055   0.00000  -0.01861  -0.01823   1.88374
   A22        1.82373   0.00776   0.00000   0.05487   0.05304   1.87677
   A23        1.94651  -0.00321   0.00000  -0.02685  -0.02552   1.92099
   A24        1.94942   0.00192   0.00000   0.03372   0.03226   1.98168
   A25        1.94759  -0.00549   0.00000  -0.06656  -0.06630   1.88129
   A26        1.91898  -0.00180   0.00000   0.01364   0.01164   1.93062
   A27        1.87845   0.00078   0.00000  -0.00807  -0.00801   1.87044
    D1        0.00004  -0.00000   0.00000  -0.00005  -0.00005  -0.00001
    D2       -2.09012  -0.00189   0.00000  -0.03725  -0.03738  -2.12750
    D3        2.09406  -0.00113   0.00000  -0.02173  -0.02188   2.07219
    D4        2.09017   0.00189   0.00000   0.03718   0.03731   2.12748
    D5        0.00000  -0.00000   0.00000  -0.00002  -0.00002  -0.00002
    D6       -2.09900   0.00076   0.00000   0.01550   0.01548  -2.08352
    D7       -2.09405   0.00113   0.00000   0.02170   0.02185  -2.07220
    D8        2.09897  -0.00076   0.00000  -0.01550  -0.01548   2.08349
    D9       -0.00003   0.00000   0.00000   0.00002   0.00002  -0.00001
   D10       -0.44241   0.00201   0.00000   0.05256   0.05400  -0.38841
   D11        1.66414  -0.00155   0.00000  -0.00813  -0.00770   1.65644
   D12       -2.51624  -0.00145   0.00000  -0.01375  -0.01389  -2.53014
   D13       -2.54456   0.00198   0.00000   0.03036   0.03133  -2.51324
   D14       -0.43802  -0.00158   0.00000  -0.03033  -0.03037  -0.46839
   D15        1.66479  -0.00148   0.00000  -0.03594  -0.03657   1.62822
   D16        1.66025   0.00159   0.00000   0.03089   0.03190   1.69216
   D17       -2.51639  -0.00197   0.00000  -0.02980  -0.02980  -2.54618
   D18       -0.41358  -0.00187   0.00000  -0.03541  -0.03599  -0.44957
   D19        0.44235  -0.00201   0.00000  -0.05249  -0.05393   0.38842
   D20       -1.66421   0.00155   0.00000   0.00820   0.00777  -1.65644
   D21        2.51625   0.00145   0.00000   0.01378   0.01393   2.53018
   D22        2.54462  -0.00198   0.00000  -0.03039  -0.03135   2.51327
   D23        0.43806   0.00158   0.00000   0.03030   0.03034   0.46840
   D24       -1.66467   0.00148   0.00000   0.03589   0.03651  -1.62816
   D25       -1.66023  -0.00159   0.00000  -0.03089  -0.03190  -1.69213
   D26        2.51639   0.00197   0.00000   0.02980   0.02980   2.54618
   D27        0.41366   0.00187   0.00000   0.03538   0.03596   0.44962
   D28       -0.73564   0.00584   0.00000   0.10151   0.10184  -0.63380
   D29        1.28766   0.00266   0.00000   0.06991   0.07040   1.35806
   D30        1.37022   0.00380   0.00000   0.06727   0.06656   1.43678
   D31       -2.88966   0.00062   0.00000   0.03567   0.03512  -2.85454
   D32       -2.83011   0.00009   0.00000   0.02372   0.02338  -2.80672
   D33       -0.80680  -0.00309   0.00000  -0.00788  -0.00806  -0.81487
   D34        0.73566  -0.00584   0.00000  -0.10154  -0.10187   0.63379
   D35       -1.37017  -0.00380   0.00000  -0.06732  -0.06661  -1.43678
   D36        2.83003  -0.00009   0.00000  -0.02367  -0.02334   2.80669
   D37       -1.28765  -0.00266   0.00000  -0.06995  -0.07044  -1.35808
   D38        2.88971  -0.00062   0.00000  -0.03573  -0.03518   2.85454
   D39        0.80673   0.00309   0.00000   0.00791   0.00809   0.81482
         Item               Value     Threshold  Converged?
 Maximum Force            0.017828     0.000450     NO 
 RMS     Force            0.004433     0.000300     NO 
 Maximum Displacement     0.142731     0.001800     NO 
 RMS     Displacement     0.037463     0.001200     NO 
 Predicted change in Energy=-4.891400D-03
 GradGradGradGradGradGradGradGradGradGradGradGradGradGradGradGradGradGrad

                          Input orientation:                          
 ---------------------------------------------------------------------
 Center     Atomic      Atomic             Coordinates (Angstroms)
 Number     Number       Type             X           Y           Z
 ---------------------------------------------------------------------
      1          6           0       -1.109820    0.406267    0.131740
      2          6           0        0.141946    1.068107   -0.503063
      3          6           0        1.288545    0.055232   -0.214328
      4          7           0        0.672109   -1.256765    0.015042
      5          6           0       -0.567937   -0.926350    0.727137
      6          1           0       -1.578584    1.044449    0.889029
      7          1           0       -1.874339    0.203180   -0.624500
      8          1           0        0.343935    2.060940   -0.085951
      9          1           0        0.013046    1.201077   -1.581648
     10          1           0        1.820197    0.339973    0.700715
     11          1           0        2.032387   -0.003121   -1.015282
     12          1           0        0.419281   -1.646430   -0.889756
     13          1           0       -0.320210   -0.791732    1.786162
     14          1           0       -1.280657   -1.754826    0.664803
 ---------------------------------------------------------------------
                    Distance matrix (angstroms):
                    1          2          3          4          5
     1  C    0.000000
     2  C    1.551749   0.000000
     3  C    2.448499   1.556911   0.000000
     4  N    2.440198   2.440192   1.467631   0.000000
     5  C    1.556921   2.448506   2.301388   1.467640   0.000000
     6  H    1.095675   2.213302   3.227441   3.335425   2.220736
     7  H    1.094363   2.197328   3.192799   3.004139   2.193044
     8  H    2.213309   1.095673   2.220728   3.335426   3.227464
     9  H    2.197328   1.094369   2.193040   3.004126   3.192801
    10  H    2.985487   2.189928   1.095917   2.082745   2.703231
    11  H    3.369974   2.232412   1.094639   2.117439   3.263443
    12  H    2.755933   2.755931   2.026692   1.017065   2.026686
    13  H    2.189931   2.985488   2.703220   2.082743   1.095913
    14  H    2.232412   3.369964   3.263431   2.117439   1.094635
                    6          7          8          9         10
     6  H    0.000000
     7  H    1.756695   0.000000
     8  H    2.383258   2.943135   0.000000
     9  H    2.943139   2.339691   1.756691   0.000000
    10  H    3.476128   3.927404   2.399983   3.035865   0.000000
    11  H    4.214608   3.931638   2.823982   2.418389   1.762777
    12  H    3.794255   2.958396   3.794255   2.958384   2.904817
    13  H    2.399982   3.035861   3.476151   3.927403   2.653355
    14  H    2.824001   2.418376   4.214617   3.931612   3.742295
                   11         12         13         14
    11  H    0.000000
    12  H    2.306151   0.000000
    13  H    3.742286   2.904805   0.000000
    14  H    4.106996   2.306121   1.762797   0.000000
 Stoichiometry    C4H9N
 Framework group  C1[X(C4H9N)]
 Deg. of freedom    36
 Full point group                 C1      NOp   1
 Largest Abelian subgroup         C1      NOp   1
 Largest concise Abelian subgroup C1      NOp   1
                         Standard orientation:                         
 ---------------------------------------------------------------------
 Center     Atomic      Atomic             Coordinates (Angstroms)
 Number     Number       Type             X           Y           Z
 ---------------------------------------------------------------------
      1          6           0       -0.775833    1.033041   -0.070082
      2          6           0        0.775916    1.032974   -0.070088
      3          6           0        1.150672   -0.455154    0.192596
      4          7           0       -0.000048   -1.276873   -0.200551
      5          6           0       -1.150716   -0.455067    0.192596
      6          1           0       -1.191549    1.710146    0.684380
      7          1           0       -1.169795    1.360697   -1.037070
      8          1           0        1.191708    1.710053    0.684353
      9          1           0        1.169896    1.360590   -1.037089
     10          1           0        1.326655   -0.615376    1.262359
     11          1           0        2.053472   -0.778428   -0.335306
     12          1           0       -0.000061   -1.350796   -1.214926
     13          1           0       -1.326700   -0.615277    1.262357
     14          1           0       -2.053525   -0.778259   -0.335335
 ---------------------------------------------------------------------
 Rotational constants (GHZ):           6.8756085           6.6135711           3.8667051
 Standard basis: 6-31G(d,p) (6D, 7F)
 There are   120 symmetry adapted cartesian basis functions of A   symmetry.
 There are   120 symmetry adapted basis functions of A   symmetry.
   120 basis functions,   203 primitive gaussians,   120 cartesian basis functions
    20 alpha electrons       20 beta electrons
       nuclear repulsion energy       189.4060296922 Hartrees.
 NAtoms=   14 NActive=   14 NUniq=   14 SFac= 1.00D+00 NAtFMM=   60 NAOKFM=F Big=F
 Integral buffers will be    131072 words long.
 Raffenetti 2 integral format.
 Two-electron integral symmetry is turned on.
 Nuclear repulsion after empirical dispersion term =      189.3882507914 Hartrees.
 One-electron integrals computed using PRISM.
 NBasis=   120 RedAO= T EigKep=  2.97D-03  NBF=   120
 NBsUse=   120 1.00D-06 EigRej= -1.00D+00 NBFU=   120
 Initial guess from the checkpoint file:  "SecN3_conf-1.chk"
 B after Tr=    -0.000000    0.000000   -0.000000
         Rot=    0.999995    0.003175   -0.000001    0.000043 Ang=   0.36 deg.
 ExpMin= 1.61D-01 ExpMax= 4.17D+03 ExpMxC= 6.27D+02 IAcc=3 IRadAn=         5 AccDes= 0.00D+00
 Harris functional with IExCor=  402 and IRadAn=       5 diagonalized for initial guess.
 HarFok:  IExCor=  402 AccDes= 0.00D+00 IRadAn=         5 IDoV= 1 UseB2=F ITyADJ=14
 ICtDFT=  3500011 ScaDFX=  1.000000  1.000000  1.000000  1.000000
 FoFCou: FMM=F IPFlag=           0 FMFlag=      100000 FMFlg1=           0
         NFxFlg=           0 DoJE=T BraDBF=F KetDBF=T FulRan=T
         wScrn=  0.000000 ICntrl=       500 IOpCl=  0 I1Cent=   200000004 NGrid=           0
         NMat0=    1 NMatS0=      1 NMatT0=    0 NMatD0=    1 NMtDS0=    0 NMtDT0=    0
 Petite list used in FoFCou.
 Requested convergence on RMS density matrix=1.00D-08 within 128 cycles.
 Requested convergence on MAX density matrix=1.00D-06.
 Requested convergence on             energy=1.00D-06.
 No special actions if energy rises.
 Integral accuracy reduced to 1.0D-05 until final iterations.
 Initial convergence to 1.0D-05 achieved.  Increase integral accuracy.
 SCF Done:  E(RB3LYP) =  -212.613821061     A.U. after   10 cycles
            NFock= 10  Conv=0.38D-08     -V/T= 2.0099
 Calling FoFJK, ICntrl=      2127 FMM=F ISym2X=0 I1Cent= 0 IOpClX= 0 NMat=1 NMatS=1 NMatT=0.
 ***** Axes restored to original set *****
 -------------------------------------------------------------------
 Center     Atomic                   Forces (Hartrees/Bohr)
 Number     Number              X              Y              Z
 -------------------------------------------------------------------
      1        6          -0.000196198   -0.001267119    0.000704770
      2        6           0.001393120   -0.000424082   -0.000109343
      3        6           0.002384174    0.002396618   -0.001219459
      4        7          -0.001089011    0.001788539   -0.000273000
      5        6          -0.003168117   -0.000535452    0.001591075
      6        1           0.000866375   -0.001496475    0.000144989
      7        1           0.000296589   -0.000019725   -0.000734579
      8        1           0.000863811   -0.001496877    0.000147556
      9        1          -0.000560068   -0.000473905   -0.000296712
     10        1           0.000195451    0.000895959    0.000775367
     11        1          -0.000639452    0.000290275    0.000352749
     12        1          -0.000406216   -0.001108643   -0.001960163
     13        1          -0.000165602    0.000704434    0.000959971
     14        1           0.000225142    0.000746452   -0.000083220
 -------------------------------------------------------------------
 Cartesian Forces:  Max     0.003168117 RMS     0.001103383

 GradGradGradGradGradGradGradGradGradGradGradGradGradGradGradGradGradGrad
 Berny optimization.
 Using GEDIIS/GDIIS optimizer.
 FormGI is forming the generalized inverse of G from B-inverse, IUseBI=4.
 Internal  Forces:  Max     0.002485616 RMS     0.000860147
 Search for a local minimum.
 Step number   2 out of a maximum of   90
 All quantities printed in internal units (Hartrees-Bohrs-Radians)
 Mixed Optimization -- En-DIIS/RFO-DIIS
 Update second derivatives using D2CorX and points    1    2
 DE= -3.85D-03 DEPred=-4.89D-03 R= 7.86D-01
 TightC=F SS=  1.41D+00  RLast= 3.14D-01 DXNew= 5.0454D-01 9.4224D-01
 Trust test= 7.86D-01 RLast= 3.14D-01 DXMaxT set to 5.05D-01
 ITU=  1  0
 Use linear search instead of GDIIS.
     Eigenvalues ---    0.00449   0.00952   0.02443   0.02581   0.04421
     Eigenvalues ---    0.04432   0.05086   0.05177   0.05617   0.05708
     Eigenvalues ---    0.05957   0.06143   0.06992   0.07020   0.08364
     Eigenvalues ---    0.08962   0.08986   0.09607   0.11276   0.11700
     Eigenvalues ---    0.20612   0.22358   0.27866   0.28022   0.30705
     Eigenvalues ---    0.34300   0.34488   0.34606   0.34634   0.34661
     Eigenvalues ---    0.34714   0.34735   0.35020   0.35394   0.35961
     Eigenvalues ---    0.45557
 RFO step:  Lambda=-1.73615083D-04 EMin= 4.48993333D-03
 Quartic linear search produced a step of -0.09072.
 Iteration  1 RMS(Cart)=  0.00579828 RMS(Int)=  0.00006335
 Iteration  2 RMS(Cart)=  0.00001901 RMS(Int)=  0.00006120
 Iteration  3 RMS(Cart)=  0.00000000 RMS(Int)=  0.00006120
 Variable       Old X    -DE/DX   Delta X   Delta X   Delta X     New X
                                 (Linear)    (Quad)   (Total)
    R1        2.93238   0.00115  -0.00380   0.00854   0.00473   2.93711
    R2        2.94215  -0.00249  -0.00516  -0.00130  -0.00646   2.93570
    R3        2.07053  -0.00114  -0.00086  -0.00196  -0.00281   2.06771
    R4        2.06805   0.00030  -0.00061   0.00152   0.00092   2.06897
    R5        2.94213  -0.00248  -0.00516  -0.00128  -0.00644   2.93569
    R6        2.07052  -0.00114  -0.00086  -0.00195  -0.00281   2.06771
    R7        2.06806   0.00030  -0.00060   0.00151   0.00091   2.06897
    R8        2.77342   0.00174  -0.00256   0.00700   0.00446   2.77788
    R9        2.07098   0.00097  -0.00053   0.00321   0.00268   2.07366
   R10        2.06857  -0.00071  -0.00049  -0.00127  -0.00176   2.06681
   R11        2.77344   0.00174  -0.00255   0.00699   0.00445   2.77789
   R12        1.92197   0.00227  -0.00091   0.00562   0.00470   1.92668
   R13        2.07098   0.00098  -0.00053   0.00321   0.00268   2.07366
   R14        2.06856  -0.00071  -0.00049  -0.00127  -0.00176   2.06680
    A1        1.81393   0.00105   0.00058   0.00258   0.00322   1.81714
    A2        1.95999   0.00033  -0.00078   0.00434   0.00354   1.96354
    A3        1.93907  -0.00084   0.00100  -0.00517  -0.00415   1.93492
    A4        1.96398  -0.00126  -0.00277  -0.00720  -0.00997   1.95401
    A5        1.92684   0.00011   0.00095   0.00088   0.00184   1.92868
    A6        1.86171   0.00056   0.00098   0.00422   0.00519   1.86690
    A7        1.81393   0.00105   0.00059   0.00258   0.00321   1.81714
    A8        1.96000   0.00033  -0.00078   0.00432   0.00353   1.96354
    A9        1.93906  -0.00084   0.00100  -0.00517  -0.00415   1.93492
   A10        1.96399  -0.00126  -0.00277  -0.00720  -0.00997   1.95401
   A11        1.92684   0.00011   0.00095   0.00089   0.00184   1.92868
   A12        1.86170   0.00056   0.00098   0.00422   0.00520   1.86689
   A13        1.87678  -0.00210  -0.00481  -0.00483  -0.00948   1.86731
   A14        1.92100   0.00009   0.00232  -0.00502  -0.00281   1.91819
   A15        1.98169   0.00032  -0.00292   0.00323   0.00043   1.98212
   A16        1.88130   0.00101   0.00601  -0.00077   0.00518   1.88648
   A17        1.93063   0.00087  -0.00106   0.00506   0.00418   1.93481
   A18        1.87040  -0.00012   0.00072   0.00214   0.00284   1.87324
   A19        1.80232   0.00187   0.00059   0.00678   0.00753   1.80984
   A20        1.88376  -0.00022   0.00165   0.00112   0.00271   1.88647
   A21        1.88374  -0.00021   0.00165   0.00113   0.00273   1.88647
   A22        1.87677  -0.00210  -0.00481  -0.00482  -0.00947   1.86730
   A23        1.92099   0.00009   0.00231  -0.00502  -0.00281   1.91818
   A24        1.98168   0.00032  -0.00293   0.00324   0.00044   1.98212
   A25        1.88129   0.00101   0.00601  -0.00076   0.00519   1.88648
   A26        1.93062   0.00087  -0.00106   0.00507   0.00418   1.93480
   A27        1.87044  -0.00012   0.00073   0.00211   0.00282   1.87325
    D1       -0.00001  -0.00000   0.00000  -0.00001  -0.00001  -0.00001
    D2       -2.12750   0.00068   0.00339   0.00470   0.00810  -2.11940
    D3        2.07219   0.00032   0.00198  -0.00003   0.00196   2.07414
    D4        2.12748  -0.00068  -0.00338  -0.00472  -0.00810   2.11937
    D5       -0.00002   0.00000   0.00000  -0.00000   0.00000  -0.00002
    D6       -2.08352  -0.00036  -0.00140  -0.00474  -0.00614  -2.08966
    D7       -2.07220  -0.00032  -0.00198   0.00002  -0.00197  -2.07417
    D8        2.08349   0.00036   0.00140   0.00473   0.00614   2.08963
    D9       -0.00001  -0.00000  -0.00000  -0.00000  -0.00000  -0.00001
   D10       -0.38841   0.00017  -0.00490   0.00283  -0.00218  -0.39059
   D11        1.65644   0.00023   0.00070  -0.00356  -0.00288   1.65356
   D12       -2.53014   0.00036   0.00126  -0.00226  -0.00099  -2.53112
   D13       -2.51324  -0.00021  -0.00284  -0.00014  -0.00306  -2.51630
   D14       -0.46839  -0.00015   0.00276  -0.00653  -0.00376  -0.47215
   D15        1.62822  -0.00002   0.00332  -0.00524  -0.00187   1.62635
   D16        1.69216  -0.00017  -0.00289  -0.00136  -0.00433   1.68782
   D17       -2.54618  -0.00010   0.00270  -0.00775  -0.00504  -2.55122
   D18       -0.44957   0.00003   0.00327  -0.00645  -0.00314  -0.45271
   D19        0.38842  -0.00017   0.00489  -0.00282   0.00219   0.39062
   D20       -1.65644  -0.00023  -0.00070   0.00359   0.00291  -1.65353
   D21        2.53018  -0.00036  -0.00126   0.00226   0.00098   2.53116
   D22        2.51327   0.00021   0.00284   0.00013   0.00306   2.51633
   D23        0.46840   0.00015  -0.00275   0.00654   0.00377   0.47218
   D24       -1.62816   0.00002  -0.00331   0.00521   0.00184  -1.62632
   D25       -1.69213   0.00017   0.00289   0.00136   0.00434  -1.68779
   D26        2.54618   0.00011  -0.00270   0.00777   0.00505   2.55124
   D27        0.44962  -0.00003  -0.00326   0.00644   0.00312   0.45274
   D28       -0.63380  -0.00037  -0.00924   0.00240  -0.00689  -0.64068
   D29        1.35806   0.00016  -0.00639   0.00724   0.00081   1.35887
   D30        1.43678  -0.00085  -0.00604  -0.00653  -0.01254   1.42424
   D31       -2.85454  -0.00031  -0.00319  -0.00169  -0.00484  -2.85938
   D32       -2.80672   0.00008  -0.00212  -0.00162  -0.00372  -2.81044
   D33       -0.81487   0.00062   0.00073   0.00322   0.00398  -0.81088
   D34        0.63379   0.00037   0.00924  -0.00240   0.00688   0.64067
   D35       -1.43678   0.00084   0.00604   0.00652   0.01253  -1.42425
   D36        2.80669  -0.00008   0.00212   0.00164   0.00373   2.81042
   D37       -1.35808  -0.00016   0.00639  -0.00723  -0.00080  -1.35889
   D38        2.85454   0.00031   0.00319   0.00169   0.00484   2.85938
   D39        0.81482  -0.00061  -0.00073  -0.00319  -0.00396   0.81086
         Item               Value     Threshold  Converged?
 Maximum Force            0.002486     0.000450     NO 
 RMS     Force            0.000860     0.000300     NO 
 Maximum Displacement     0.019177     0.001800     NO 
 RMS     Displacement     0.005801     0.001200     NO 
 Predicted change in Energy=-1.215955D-04
 GradGradGradGradGradGradGradGradGradGradGradGradGradGradGradGradGradGrad

                          Input orientation:                          
 ---------------------------------------------------------------------
 Center     Atomic      Atomic             Coordinates (Angstroms)
 Number     Number       Type             X           Y           Z
 ---------------------------------------------------------------------
      1          6           0       -1.109165    0.402286    0.131934
      2          6           0        0.144617    1.065191   -0.503897
      3          6           0        1.292506    0.058916   -0.215577
      4          7           0        0.667549   -1.252211    0.010800
      5          6           0       -0.572489   -0.927163    0.730200
      6          1           0       -1.576406    1.034301    0.893173
      7          1           0       -1.871318    0.200866   -0.627835
      8          1           0        0.352990    2.054433   -0.085300
      9          1           0        0.011527    1.196357   -1.582682
     10          1           0        1.820661    0.347552    0.701965
     11          1           0        2.036150    0.002888   -1.015608
     12          1           0        0.414170   -1.642916   -0.896194
     13          1           0       -0.324751   -0.786798    1.789946
     14          1           0       -1.286143   -1.753702    0.669176
 ---------------------------------------------------------------------
                    Distance matrix (angstroms):
                    1          2          3          4          5
     1  C    0.000000
     2  C    1.554251   0.000000
     3  C    2.450856   1.553501   0.000000
     4  N    2.430791   2.430786   1.469990   0.000000
     5  C    1.553505   2.450859   2.311937   1.469996   0.000000
     6  H    1.094186   2.216908   3.226664   3.322959   2.209469
     7  H    1.094849   2.196910   3.193726   2.994182   2.191726
     8  H    2.216908   1.094185   2.209468   3.322962   3.226680
     9  H    2.196909   1.094850   2.191724   2.994167   3.193718
    10  H    2.985266   2.185916   1.097334   2.089645   2.711616
    11  H    3.371851   2.228953   1.093707   2.121757   3.273811
    12  H    2.749627   2.749618   2.032473   1.019554   2.032475
    13  H    2.185916   2.985277   2.711619   2.089648   1.097332
    14  H    2.228953   3.371844   3.273805   2.121760   1.093705
                    6          7          8          9         10
     6  H    0.000000
     7  H    1.759276   0.000000
     8  H    2.391788   2.945776   0.000000
     9  H    2.945786   2.334061   1.759273   0.000000
    10  H    3.471059   3.926906   2.384803   3.035300   0.000000
    11  H    4.214003   3.931649   2.811998   2.417652   1.765017
    12  H    3.785726   2.948729   3.785721   2.948705   2.914497
    13  H    2.384795   3.035294   3.471090   3.926908   2.659557
    14  H    2.812008   2.417643   4.214010   3.931623   3.750810
                   11         12         13         14
    11  H    0.000000
    12  H    2.313817   0.000000
    13  H    3.750812   2.914497   0.000000
    14  H    4.118463   2.313811   1.765022   0.000000
 Stoichiometry    C4H9N
 Framework group  C1[X(C4H9N)]
 Deg. of freedom    36
 Full point group                 C1      NOp   1
 Largest Abelian subgroup         C1      NOp   1
 Largest concise Abelian subgroup C1      NOp   1
                         Standard orientation:                         
 ---------------------------------------------------------------------
 Center     Atomic      Atomic             Coordinates (Angstroms)
 Number     Number       Type             X           Y           Z
 ---------------------------------------------------------------------
      1          6           0       -0.777141    1.028863   -0.070652
      2          6           0        0.777110    1.028883   -0.070661
      3          6           0        1.155973   -0.454224    0.194335
      4          7           0        0.000022   -1.270506   -0.203575
      5          6           0       -1.155964   -0.454261    0.194329
      6          1           0       -1.195913    1.699499    0.685733
      7          1           0       -1.167056    1.357048   -1.039650
      8          1           0        1.195874    1.699543    0.685707
      9          1           0        1.167005    1.357066   -1.039668
     10          1           0        1.329781   -0.609545    1.266626
     11          1           0        2.059246   -0.775573   -0.331999
     12          1           0        0.000025   -1.344849   -1.220414
     13          1           0       -1.329776   -0.609592    1.266616
     14          1           0       -2.059216   -0.775630   -0.332025
 ---------------------------------------------------------------------
 Rotational constants (GHZ):           6.8300302           6.6572393           3.8717915
 Standard basis: 6-31G(d,p) (6D, 7F)
 There are   120 symmetry adapted cartesian basis functions of A   symmetry.
 There are   120 symmetry adapted basis functions of A   symmetry.
   120 basis functions,   203 primitive gaussians,   120 cartesian basis functions
    20 alpha electrons       20 beta electrons
       nuclear repulsion energy       189.4051681694 Hartrees.
 NAtoms=   14 NActive=   14 NUniq=   14 SFac= 1.00D+00 NAtFMM=   60 NAOKFM=F Big=F
 Integral buffers will be    131072 words long.
 Raffenetti 2 integral format.
 Two-electron integral symmetry is turned on.
 Nuclear repulsion after empirical dispersion term =      189.3873833347 Hartrees.
 One-electron integrals computed using PRISM.
 NBasis=   120 RedAO= T EigKep=  2.96D-03  NBF=   120
 NBsUse=   120 1.00D-06 EigRej= -1.00D+00 NBFU=   120
 Initial guess from the checkpoint file:  "SecN3_conf-1.chk"
 B after Tr=     0.000000   -0.000000    0.000000
         Rot=    1.000000   -0.000104    0.000001   -0.000028 Ang=  -0.01 deg.
 Requested convergence on RMS density matrix=1.00D-08 within 128 cycles.
 Requested convergence on MAX density matrix=1.00D-06.
 Requested convergence on             energy=1.00D-06.
 No special actions if energy rises.
 SCF Done:  E(RB3LYP) =  -212.613933510     A.U. after    8 cycles
            NFock=  8  Conv=0.39D-08     -V/T= 2.0099
 Calling FoFJK, ICntrl=      2127 FMM=F ISym2X=0 I1Cent= 0 IOpClX= 0 NMat=1 NMatS=1 NMatT=0.
 ***** Axes restored to original set *****
 -------------------------------------------------------------------
 Center     Atomic                   Forces (Hartrees/Bohr)
 Number     Number              X              Y              Z
 -------------------------------------------------------------------
      1        6          -0.000215448   -0.000208286    0.000259557
      2        6           0.000378543    0.000107391   -0.000042516
      3        6          -0.000801116    0.000521505    0.000166835
      4        7           0.000481321   -0.000933776   -0.000019336
      5        6          -0.000005198    0.000942973   -0.000239055
      6        1           0.000134731   -0.000035439   -0.000043867
      7        1           0.000287218    0.000134488   -0.000200299
      8        1          -0.000045001   -0.000130388    0.000047669
      9        1          -0.000311177   -0.000182413    0.000103359
     10        1          -0.000070034   -0.000131276    0.000085330
     11        1          -0.000339357   -0.000241035    0.000099956
     12        1           0.000003850    0.000048008    0.000057433
     13        1           0.000167671   -0.000006260   -0.000034314
     14        1           0.000333999    0.000114507   -0.000240752
 -------------------------------------------------------------------
 Cartesian Forces:  Max     0.000942973 RMS     0.000310917

 GradGradGradGradGradGradGradGradGradGradGradGradGradGradGradGradGradGrad
 Berny optimization.
 Using GEDIIS/GDIIS optimizer.
 FormGI is forming the generalized inverse of G from B-inverse, IUseBI=4.
 Internal  Forces:  Max     0.000806651 RMS     0.000205627
 Search for a local minimum.
 Step number   3 out of a maximum of   90
 All quantities printed in internal units (Hartrees-Bohrs-Radians)
 Mixed Optimization -- En-DIIS/RFO-DIIS
 Swapping is turned off.
 Update second derivatives using D2CorX and points    1    2    3
 DE= -1.12D-04 DEPred=-1.22D-04 R= 9.25D-01
 TightC=F SS=  1.41D+00  RLast= 4.29D-02 DXNew= 8.4853D-01 1.2862D-01
 Trust test= 9.25D-01 RLast= 4.29D-02 DXMaxT set to 5.05D-01
 ITU=  1  1  0
     Eigenvalues ---    0.00449   0.00947   0.02462   0.02568   0.04439
     Eigenvalues ---    0.04518   0.05095   0.05130   0.05445   0.05714
     Eigenvalues ---    0.05988   0.06156   0.07010   0.07129   0.08413
     Eigenvalues ---    0.08873   0.09088   0.09346   0.11204   0.11239
     Eigenvalues ---    0.20615   0.25586   0.27883   0.28138   0.30366
     Eigenvalues ---    0.34046   0.34488   0.34568   0.34606   0.34691
     Eigenvalues ---    0.34714   0.34735   0.34844   0.35959   0.36801
     Eigenvalues ---    0.45616
 En-DIIS/RFO-DIIS/Sim-DIIS IScMMF=       -3 using points:     3    2
 RFO step:  Lambda=-1.74097600D-05.
 DidBck=F Rises=F RFO-DIIS coefs:    1.02293   -0.02293
 Iteration  1 RMS(Cart)=  0.00160666 RMS(Int)=  0.00000207
 Iteration  2 RMS(Cart)=  0.00000185 RMS(Int)=  0.00000094
 Iteration  3 RMS(Cart)=  0.00000000 RMS(Int)=  0.00000094
 Variable       Old X    -DE/DX   Delta X   Delta X   Delta X     New X
                                 (Linear)    (Quad)   (Total)
    R1        2.93711  -0.00054   0.00011  -0.00147  -0.00136   2.93575
    R2        2.93570  -0.00030  -0.00015  -0.00122  -0.00137   2.93433
    R3        2.06771  -0.00011  -0.00006  -0.00042  -0.00048   2.06723
    R4        2.06897  -0.00009   0.00002  -0.00018  -0.00015   2.06881
    R5        2.93569  -0.00030  -0.00015  -0.00122  -0.00136   2.93433
    R6        2.06771  -0.00011  -0.00006  -0.00041  -0.00048   2.06723
    R7        2.06897  -0.00009   0.00002  -0.00018  -0.00016   2.06881
    R8        2.77788  -0.00020   0.00010  -0.00021  -0.00010   2.77778
    R9        2.07366   0.00000   0.00006   0.00014   0.00021   2.07387
   R10        2.06681  -0.00029  -0.00004  -0.00085  -0.00089   2.06592
   R11        2.77789  -0.00021   0.00010  -0.00021  -0.00011   2.77778
   R12        1.92668  -0.00007   0.00011   0.00010   0.00021   1.92688
   R13        2.07366   0.00000   0.00006   0.00015   0.00021   2.07386
   R14        2.06680  -0.00029  -0.00004  -0.00085  -0.00089   2.06592
    A1        1.81714  -0.00018   0.00007  -0.00068  -0.00061   1.81653
    A2        1.96354   0.00001   0.00008   0.00039   0.00047   1.96401
    A3        1.93492  -0.00012  -0.00010  -0.00298  -0.00308   1.93184
    A4        1.95401   0.00004  -0.00023   0.00015  -0.00008   1.95393
    A5        1.92868   0.00019   0.00004   0.00127   0.00131   1.92999
    A6        1.86690   0.00005   0.00012   0.00174   0.00186   1.86876
    A7        1.81714  -0.00018   0.00007  -0.00068  -0.00061   1.81653
    A8        1.96354   0.00001   0.00008   0.00039   0.00047   1.96401
    A9        1.93492  -0.00012  -0.00010  -0.00298  -0.00307   1.93184
   A10        1.95401   0.00004  -0.00023   0.00015  -0.00008   1.95394
   A11        1.92868   0.00019   0.00004   0.00127   0.00131   1.92999
   A12        1.86689   0.00006   0.00012   0.00174   0.00186   1.86875
   A13        1.86731   0.00060  -0.00022   0.00221   0.00199   1.86930
   A14        1.91819  -0.00012  -0.00006   0.00052   0.00045   1.91864
   A15        1.98212  -0.00006   0.00001  -0.00038  -0.00037   1.98176
   A16        1.88648  -0.00015   0.00012  -0.00086  -0.00074   1.88573
   A17        1.93481  -0.00045   0.00010  -0.00283  -0.00273   1.93207
   A18        1.87324   0.00017   0.00007   0.00128   0.00134   1.87458
   A19        1.80984  -0.00081   0.00017  -0.00328  -0.00310   1.80674
   A20        1.88647   0.00013   0.00006   0.00009   0.00015   1.88662
   A21        1.88647   0.00013   0.00006   0.00009   0.00015   1.88662
   A22        1.86730   0.00060  -0.00022   0.00221   0.00199   1.86930
   A23        1.91818  -0.00012  -0.00006   0.00052   0.00046   1.91864
   A24        1.98212  -0.00006   0.00001  -0.00037  -0.00036   1.98176
   A25        1.88648  -0.00015   0.00012  -0.00086  -0.00074   1.88573
   A26        1.93480  -0.00045   0.00010  -0.00283  -0.00273   1.93207
   A27        1.87325   0.00017   0.00006   0.00127   0.00133   1.87459
    D1       -0.00001  -0.00000  -0.00000   0.00000  -0.00000  -0.00001
    D2       -2.11940   0.00006   0.00019   0.00004   0.00023  -2.11918
    D3        2.07414   0.00006   0.00004  -0.00038  -0.00033   2.07381
    D4        2.11937  -0.00006  -0.00019  -0.00004  -0.00023   2.11915
    D5       -0.00002   0.00000   0.00000   0.00000   0.00000  -0.00002
    D6       -2.08966   0.00000  -0.00014  -0.00042  -0.00056  -2.09021
    D7       -2.07417  -0.00006  -0.00005   0.00037   0.00033  -2.07384
    D8        2.08963  -0.00000   0.00014   0.00041   0.00055   2.09018
    D9       -0.00001  -0.00000  -0.00000  -0.00000  -0.00000  -0.00002
   D10       -0.39059  -0.00012  -0.00005  -0.00074  -0.00079  -0.39138
   D11        1.65356  -0.00003  -0.00007  -0.00024  -0.00031   1.65325
   D12       -2.53112   0.00006  -0.00002   0.00151   0.00149  -2.52964
   D13       -2.51630  -0.00005  -0.00007  -0.00086  -0.00093  -2.51723
   D14       -0.47215   0.00004  -0.00009  -0.00036  -0.00045  -0.47260
   D15        1.62635   0.00013  -0.00004   0.00139   0.00134   1.62769
   D16        1.68782  -0.00027  -0.00010  -0.00400  -0.00410   1.68372
   D17       -2.55122  -0.00018  -0.00012  -0.00351  -0.00362  -2.55484
   D18       -0.45271  -0.00009  -0.00007  -0.00176  -0.00183  -0.45454
   D19        0.39062   0.00012   0.00005   0.00074   0.00079   0.39140
   D20       -1.65353   0.00003   0.00007   0.00024   0.00031  -1.65323
   D21        2.53116  -0.00006   0.00002  -0.00151  -0.00149   2.52967
   D22        2.51633   0.00005   0.00007   0.00086   0.00093   2.51726
   D23        0.47218  -0.00004   0.00009   0.00036   0.00045   0.47263
   D24       -1.62632  -0.00013   0.00004  -0.00139  -0.00135  -1.62767
   D25       -1.68779   0.00027   0.00010   0.00400   0.00410  -1.68369
   D26        2.55124   0.00018   0.00012   0.00351   0.00363   2.55487
   D27        0.45274   0.00009   0.00007   0.00175   0.00183   0.45457
   D28       -0.64068   0.00012  -0.00016   0.00009  -0.00007  -0.64075
   D29        1.35887  -0.00006   0.00002  -0.00131  -0.00129   1.35759
   D30        1.42424   0.00022  -0.00029   0.00143   0.00114   1.42539
   D31       -2.85938   0.00004  -0.00011   0.00003  -0.00008  -2.85946
   D32       -2.81044   0.00008  -0.00009   0.00087   0.00078  -2.80966
   D33       -0.81088  -0.00010   0.00009  -0.00053  -0.00044  -0.81132
   D34        0.64067  -0.00012   0.00016  -0.00009   0.00007   0.64074
   D35       -1.42425  -0.00022   0.00029  -0.00144  -0.00115  -1.42540
   D36        2.81042  -0.00008   0.00009  -0.00086  -0.00077   2.80965
   D37       -1.35889   0.00006  -0.00002   0.00131   0.00129  -1.35760
   D38        2.85938  -0.00004   0.00011  -0.00003   0.00008   2.85945
   D39        0.81086   0.00010  -0.00009   0.00054   0.00045   0.81131
         Item               Value     Threshold  Converged?
 Maximum Force            0.000807     0.000450     NO 
 RMS     Force            0.000206     0.000300     YES
 Maximum Displacement     0.006008     0.001800     NO 
 RMS     Displacement     0.001607     0.001200     NO 
 Predicted change in Energy=-8.707202D-06
 GradGradGradGradGradGradGradGradGradGradGradGradGradGradGradGradGradGrad

                          Input orientation:                          
 ---------------------------------------------------------------------
 Center     Atomic      Atomic             Coordinates (Angstroms)
 Number     Number       Type             X           Y           Z
 ---------------------------------------------------------------------
      1          6           0       -1.108843    0.402736    0.132156
      2          6           0        0.144358    1.065334   -0.503379
      3          6           0        1.291100    0.058952   -0.214759
      4          7           0        0.668124   -1.253174    0.010932
      5          6           0       -0.571549   -0.925886    0.729827
      6          1           0       -1.576198    1.034147    0.893462
      7          1           0       -1.868792    0.202335   -0.629969
      8          1           0        0.353224    2.054293   -0.085023
      9          1           0        0.008348    1.194808   -1.581922
     10          1           0        1.819304    0.346871    0.703110
     11          1           0        2.033627    0.001652   -1.015093
     12          1           0        0.414506   -1.643596   -0.896241
     13          1           0       -0.323118   -0.785901    1.789574
     14          1           0       -1.284191   -1.752572    0.667425
 ---------------------------------------------------------------------
                    Distance matrix (angstroms):
                    1          2          3          4          5
     1  C    0.000000
     2  C    1.553530   0.000000
     3  C    2.449135   1.552779   0.000000
     4  N    2.431943   2.431940   1.469936   0.000000
     5  C    1.552781   2.449138   2.309027   1.469938   0.000000
     6  H    1.093931   2.216405   3.224989   3.323805   2.208580
     7  H    1.094767   2.193983   3.190277   2.994195   2.191977
     8  H    2.216405   1.093932   2.208580   3.323810   3.225004
     9  H    2.193983   1.094767   2.191975   2.994178   3.190267
    10  H    2.983815   2.185692   1.097442   2.089132   2.708653
    11  H    3.369298   2.227691   1.093236   2.119414   3.269864
    12  H    2.750576   2.750568   2.032610   1.019663   2.032611
    13  H    2.185693   2.983830   2.708658   2.089133   1.097442
    14  H    2.227692   3.369293   3.269861   2.119414   1.093236
                    6          7          8          9         10
     6  H    0.000000
     7  H    1.760216   0.000000
     8  H    2.391820   2.943479   0.000000
     9  H    2.943488   2.326987   1.760216   0.000000
    10  H    3.469584   3.924288   2.384498   3.036433   0.000000
    11  H    4.211824   3.926508   2.811070   2.417988   1.765597
    12  H    3.786324   2.948188   3.786319   2.948162   2.914333
    13  H    2.384492   3.036430   3.469619   3.924291   2.655852
    14  H    2.811079   2.417985   4.211833   3.926483   3.747081
                   11         12         13         14
    11  H    0.000000
    12  H    2.311389   0.000000
    13  H    3.747085   2.914333   0.000000
    14  H    4.112917   2.311385   1.765598   0.000000
 Stoichiometry    C4H9N
 Framework group  C1[X(C4H9N)]
 Deg. of freedom    36
 Full point group                 C1      NOp   1
 Largest Abelian subgroup         C1      NOp   1
 Largest concise Abelian subgroup C1      NOp   1
                         Standard orientation:                         
 ---------------------------------------------------------------------
 Center     Atomic      Atomic             Coordinates (Angstroms)
 Number     Number       Type             X           Y           Z
 ---------------------------------------------------------------------
      1          6           0       -0.776763    1.029007   -0.070614
      2          6           0        0.776767    1.029002   -0.070623
      3          6           0        1.154512   -0.453597    0.194581
      4          7           0       -0.000000   -1.271714   -0.203537
      5          6           0       -1.154516   -0.453595    0.194574
      6          1           0       -1.195901    1.699341    0.685469
      7          1           0       -1.163496    1.357050   -1.040841
      8          1           0        1.195919    1.699347    0.685444
      9          1           0        1.163491    1.357027   -1.040860
     10          1           0        1.327918   -0.609381    1.266980
     11          1           0        2.056460   -0.775524   -0.332693
     12          1           0        0.000002   -1.345876   -1.220499
     13          1           0       -1.327934   -0.609387    1.266970
     14          1           0       -2.056457   -0.775514   -0.332714
 ---------------------------------------------------------------------
 Rotational constants (GHZ):           6.8424609           6.6532606           3.8749785
 Standard basis: 6-31G(d,p) (6D, 7F)
 There are   120 symmetry adapted cartesian basis functions of A   symmetry.
 There are   120 symmetry adapted basis functions of A   symmetry.
   120 basis functions,   203 primitive gaussians,   120 cartesian basis functions
    20 alpha electrons       20 beta electrons
       nuclear repulsion energy       189.4627890510 Hartrees.
 NAtoms=   14 NActive=   14 NUniq=   14 SFac= 1.00D+00 NAtFMM=   60 NAOKFM=F Big=F
 Integral buffers will be    131072 words long.
 Raffenetti 2 integral format.
 Two-electron integral symmetry is turned on.
 Nuclear repulsion after empirical dispersion term =      189.4449969124 Hartrees.
 One-electron integrals computed using PRISM.
 NBasis=   120 RedAO= T EigKep=  2.94D-03  NBF=   120
 NBsUse=   120 1.00D-06 EigRej= -1.00D+00 NBFU=   120
 Initial guess from the checkpoint file:  "SecN3_conf-1.chk"
 B after Tr=    -0.000000   -0.000000   -0.000000
         Rot=    1.000000    0.000094   -0.000000    0.000008 Ang=   0.01 deg.
 Requested convergence on RMS density matrix=1.00D-08 within 128 cycles.
 Requested convergence on MAX density matrix=1.00D-06.
 Requested convergence on             energy=1.00D-06.
 No special actions if energy rises.
 SCF Done:  E(RB3LYP) =  -212.613942148     A.U. after    7 cycles
            NFock=  7  Conv=0.83D-08     -V/T= 2.0099
 Calling FoFJK, ICntrl=      2127 FMM=F ISym2X=0 I1Cent= 0 IOpClX= 0 NMat=1 NMatS=1 NMatT=0.
 ***** Axes restored to original set *****
 -------------------------------------------------------------------
 Center     Atomic                   Forces (Hartrees/Bohr)
 Number     Number              X              Y              Z
 -------------------------------------------------------------------
      1        6          -0.000134464   -0.000212339    0.000135769
      2        6           0.000275862    0.000005199   -0.000072209
      3        6          -0.000080746    0.000243149   -0.000103343
      4        7           0.000125878   -0.000209050    0.000031880
      5        6          -0.000210427    0.000174579   -0.000038243
      6        1          -0.000026892    0.000018431    0.000001823
      7        1           0.000040645    0.000002834    0.000033286
      8        1          -0.000003280    0.000030752   -0.000010114
      9        1           0.000007754   -0.000014641    0.000049748
     10        1          -0.000061721   -0.000070791   -0.000039977
     11        1           0.000068294    0.000000330   -0.000024067
     12        1          -0.000004999    0.000103422    0.000097860
     13        1           0.000040868   -0.000016576   -0.000091785
     14        1          -0.000036773   -0.000055298    0.000029372
 -------------------------------------------------------------------
 Cartesian Forces:  Max     0.000275862 RMS     0.000101804

 GradGradGradGradGradGradGradGradGradGradGradGradGradGradGradGradGradGrad
 Berny optimization.
 Using GEDIIS/GDIIS optimizer.
 FormGI is forming the generalized inverse of G from B-inverse, IUseBI=4.
 Internal  Forces:  Max     0.000235345 RMS     0.000047292
 Search for a local minimum.
 Step number   4 out of a maximum of   90
 All quantities printed in internal units (Hartrees-Bohrs-Radians)
 Mixed Optimization -- En-DIIS/RFO-DIIS
 Swapping is turned off.
 Update second derivatives using D2CorX and points    1    2    3    4
 DE= -8.64D-06 DEPred=-8.71D-06 R= 9.92D-01
 TightC=F SS=  1.41D+00  RLast= 1.28D-02 DXNew= 8.4853D-01 3.8296D-02
 Trust test= 9.92D-01 RLast= 1.28D-02 DXMaxT set to 5.05D-01
 ITU=  1  1  1  0
     Eigenvalues ---    0.00449   0.00934   0.02460   0.02584   0.04442
     Eigenvalues ---    0.04476   0.05101   0.05235   0.05410   0.05709
     Eigenvalues ---    0.05980   0.06059   0.07000   0.07110   0.08396
     Eigenvalues ---    0.08886   0.08891   0.09472   0.11240   0.11335
     Eigenvalues ---    0.20611   0.23790   0.27880   0.28121   0.31040
     Eigenvalues ---    0.34335   0.34487   0.34488   0.34606   0.34661
     Eigenvalues ---    0.34714   0.34735   0.34897   0.35952   0.38958
     Eigenvalues ---    0.45758
 En-DIIS/RFO-DIIS/Sim-DIIS IScMMF=       -3 using points:     4    3    2
 RFO step:  Lambda=-8.85052378D-07.
 DidBck=F Rises=F RFO-DIIS coefs:    1.09966   -0.09311   -0.00655
 Iteration  1 RMS(Cart)=  0.00029081 RMS(Int)=  0.00000015
 Iteration  2 RMS(Cart)=  0.00000009 RMS(Int)=  0.00000012
 Variable       Old X    -DE/DX   Delta X   Delta X   Delta X     New X
                                 (Linear)    (Quad)   (Total)
    R1        2.93575   0.00024  -0.00010   0.00081   0.00071   2.93645
    R2        2.93433  -0.00013  -0.00018  -0.00038  -0.00056   2.93377
    R3        2.06723   0.00002  -0.00007   0.00009   0.00002   2.06725
    R4        2.06881  -0.00005  -0.00001  -0.00014  -0.00015   2.06866
    R5        2.93433  -0.00013  -0.00018  -0.00038  -0.00056   2.93377
    R6        2.06723   0.00002  -0.00007   0.00009   0.00002   2.06725
    R7        2.06881  -0.00005  -0.00001  -0.00014  -0.00015   2.06866
    R8        2.77778   0.00011   0.00002   0.00032   0.00034   2.77811
    R9        2.07387  -0.00008   0.00004  -0.00024  -0.00021   2.07366
   R10        2.06592   0.00006  -0.00010   0.00022   0.00012   2.06604
   R11        2.77778   0.00011   0.00002   0.00032   0.00034   2.77812
   R12        1.92688  -0.00012   0.00005  -0.00028  -0.00023   1.92666
   R13        2.07386  -0.00008   0.00004  -0.00024  -0.00020   2.07366
   R14        2.06592   0.00006  -0.00010   0.00022   0.00012   2.06604
    A1        1.81653   0.00000  -0.00004   0.00003  -0.00001   1.81652
    A2        1.96401  -0.00000   0.00007   0.00007   0.00014   1.96415
    A3        1.93184   0.00000  -0.00033   0.00004  -0.00030   1.93154
    A4        1.95393   0.00001  -0.00007   0.00020   0.00013   1.95406
    A5        1.92999  -0.00001   0.00014  -0.00020  -0.00006   1.92993
    A6        1.86876  -0.00000   0.00022  -0.00014   0.00008   1.86884
    A7        1.81653   0.00000  -0.00004   0.00003  -0.00001   1.81652
    A8        1.96401  -0.00000   0.00007   0.00007   0.00014   1.96415
    A9        1.93184   0.00000  -0.00033   0.00004  -0.00030   1.93154
   A10        1.95394   0.00001  -0.00007   0.00020   0.00013   1.95407
   A11        1.92999  -0.00001   0.00014  -0.00020  -0.00006   1.92993
   A12        1.86875  -0.00000   0.00022  -0.00014   0.00008   1.86884
   A13        1.86930   0.00001   0.00014   0.00004   0.00018   1.86947
   A14        1.91864   0.00001   0.00003  -0.00002   0.00000   1.91864
   A15        1.98176   0.00002  -0.00003   0.00034   0.00030   1.98206
   A16        1.88573  -0.00005  -0.00004  -0.00070  -0.00074   1.88499
[...]
 ---------------------------------------------------------------------
 Center     Atomic      Atomic             Coordinates (Angstroms)
 Number     Number       Type             X           Y           Z
 ---------------------------------------------------------------------
      1          6           0       -0.776763    1.029007   -0.070614
      2          6           0        0.776767    1.029002   -0.070623
      3          6           0        1.154512   -0.453597    0.194581
      4          7           0       -0.000000   -1.271714   -0.203537
      5          6           0       -1.154516   -0.453595    0.194574
      6          1           0       -1.195901    1.699341    0.685469
      7          1           0       -1.163496    1.357050   -1.040841
      8          1           0        1.195919    1.699347    0.685444
      9          1           0        1.163491    1.357027   -1.040860
     10          1           0        1.327918   -0.609381    1.266980
     11          1           0        2.056460   -0.775524   -0.332693
     12          1           0        0.000002   -1.345876   -1.220499
     13          1           0       -1.327934   -0.609387    1.266970
     14          1           0       -2.056457   -0.775514   -0.332714
 ---------------------------------------------------------------------
 Rotational constants (GHZ):           6.8424609           6.6532606           3.8749785
 Standard basis: def2TZVP (5D, 7F)
 There are   234 symmetry adapted cartesian basis functions of A   symmetry.
 There are   209 symmetry adapted basis functions of A   symmetry.
   209 basis functions,   327 primitive gaussians,   234 cartesian basis functions
    20 alpha electrons       20 beta electrons
       nuclear repulsion energy       189.4627890510 Hartrees.
 NAtoms=   14 NActive=   14 NUniq=   14 SFac= 1.00D+00 NAtFMM=   60 NAOKFM=F Big=F
 Integral buffers will be    131072 words long.
 Raffenetti 2 integral format.
 Two-electron integral symmetry is turned on.
 One-electron integrals computed using PRISM.
   1 Symmetry operations used in ECPInt.
 ECPInt:  NShTT=    4186 NPrTT=   12072 LenC2=    4175 LenP2D=   10416.
 LDataN:  DoStor=T MaxTD1= 6 Len=  172
 NBasis=   209 RedAO= T EigKep=  8.68D-05  NBF=   209
 NBsUse=   209 1.00D-06 EigRej= -1.00D+00 NBFU=   209
 Initial guess from the checkpoint file:  "SecN3_conf-1.chk"
 B after Tr=     0.000000   -0.000000    0.000000
         Rot=    1.000000    0.000000   -0.000000    0.000000 Ang=   0.00 deg.
 Requested convergence on RMS density matrix=1.00D-08 within 128 cycles.
 Requested convergence on MAX density matrix=1.00D-06.
 Requested convergence on             energy=1.00D-06.
 No special actions if energy rises.
 SCF Done:  E(RM062X) =  -212.556203086     A.U. after    1 cycles
            NFock=  1  Conv=0.69D-09     -V/T= 2.0057
 DoSCS=F DFT=T ScalE2(SS,OS)=  1.000000  1.000000
 Range of M.O.s used for correlation:     1   209
 NBasis=   209 NAE=    20 NBE=    20 NFC=     0 NFV=     0
 NROrb=    209 NOA=    20 NOB=    20 NVA=   189 NVB=   189

 **** Warning!!: The largest alpha MO coefficient is  0.34597227D+02

          Differentiating once with respect to magnetic field using GIAOs.
          Electric field/nuclear overlap derivatives assumed to be zero.
 FoFCou: FMM=F IPFlag=           0 FMFlag=      100000 FMFlg1=           0
         NFxFlg=           0 DoJE=F BraDBF=F KetDBF=T FulRan=T
         wScrn=  0.000000 ICntrl=      6100 IOpCl=  0 I1Cent=           7 NGrid=          14
         NMat0=    1 NMatS0=      1 NMatT0=    0 NMatD0=    1 NMtDS0=    0 NMtDT0=    0
 Symmetry not used in FoFCou.
   1 Symmetry operations used in ECPInt.
 ECPInt:  NShTT=    4186 NPrTT=   12072 LenC2=    4187 LenP2D=   12072.
 LDataN:  DoStor=T MaxTD1= 7 Len=  274
 FoFJK:  IHMeth= 1 ICntrl=    6127 DoSepK=F KAlg= 0 I1Cent=           0 FoldK=F
 IRaf=         1 NMat=       1 IRICut=       1 DoRegI=T DoRafI=F ISym2E= 0 IDoP0=0 IntGTp=1.
          There are     3 degrees of freedom in the 1st order CPHF.  IDoFFX=0 NUNeed=     3.
      3 vectors produced by pass  0 Test12= 1.26D-13 3.33D-08 XBig12= 2.81D+00 4.59D-01.
 AX will form     3 AO Fock derivatives at one time.
      3 vectors produced by pass  1 Test12= 1.26D-13 3.33D-08 XBig12= 8.47D-03 2.91D-02.
      3 vectors produced by pass  2 Test12= 1.26D-13 3.33D-08 XBig12= 8.80D-05 4.35D-03.
      3 vectors produced by pass  3 Test12= 1.26D-13 3.33D-08 XBig12= 1.11D-06 2.80D-04.
      3 vectors produced by pass  4 Test12= 1.26D-13 3.33D-08 XBig12= 8.08D-09 1.86D-05.
      3 vectors produced by pass  5 Test12= 1.26D-13 3.33D-08 XBig12= 5.10D-11 1.56D-06.
      3 vectors produced by pass  6 Test12= 1.26D-13 3.33D-08 XBig12= 3.77D-13 1.15D-07.
 InvSVY:  IOpt=1 It=  1 EMax= 2.22D-16
 Solved reduced A of dimension    21 with     3 vectors.
 Calculating GIAO nuclear magnetic shielding tensors.
 SCF GIAO Magnetic shielding tensor (ppm):
      1  C    Isotropic =   157.9633   Anisotropy =    30.5801
   XX=   169.3115   YX=     5.4959   ZX=    -4.3368
   XY=    -3.2869   YY=   177.5488   ZY=    -2.2650
   XZ=    -2.2688   YZ=    -8.4850   ZZ=   127.0298
   Eigenvalues:   126.2309   169.3090   178.3501
      2  C    Isotropic =   157.9631   Anisotropy =    30.5804
   XX=   169.3108   YX=    -5.4963   ZX=     4.3368
   XY=     3.2872   YY=   177.5486   ZY=    -2.2652
   XZ=     2.2684   YZ=    -8.4857   ZZ=   127.0299
   Eigenvalues:   126.2309   169.3083   178.3500
      3  C    Isotropic =   132.5812   Anisotropy =    57.2504
   XX=   155.1455   YX=    12.5654   ZX=    13.4734
   XY=    20.0034   YY=   146.0843   ZY=     1.1454
   XZ=    26.3611   YZ=    -4.0285   ZZ=    96.5139
   Eigenvalues:    89.6737   137.3218   170.7482
      4  N    Isotropic =   195.2340   Anisotropy =    37.6151
   XX=   203.3776   YX=     0.0004   ZX=     0.0002
   XY=    -0.0001   YY=   211.1858   ZY=    17.6835
   XZ=     0.0001   YZ=    24.6812   ZZ=   171.1385
   Eigenvalues:   162.0136   203.3776   220.3107
      5  C    Isotropic =   132.5812   Anisotropy =    57.2509
   XX=   155.1459   YX=   -12.5654   ZX=   -13.4734
   XY=   -20.0037   YY=   146.0845   ZY=     1.1453
   XZ=   -26.3608   YZ=    -4.0283   ZZ=    96.5132
   Eigenvalues:    89.6732   137.3218   170.7485
      6  H    Isotropic =    30.2253   Anisotropy =    10.2088
   XX=    29.7196   YX=    -2.8083   ZX=    -2.7492
   XY=    -2.7449   YY=    32.3035   ZY=     4.0788
   XZ=    -3.0821   YZ=     4.0033   ZZ=    28.6529
   Eigenvalues:    25.6716    27.9732    37.0312
      7  H    Isotropic =    30.4652   Anisotropy =    10.5053
   XX=    30.8052   YX=    -1.5213   ZX=     3.5300
   XY=    -1.3038   YY=    28.8846   ZY=    -4.3510
   XZ=     4.4195   YZ=    -4.5662   ZZ=    31.7059
   Eigenvalues:    25.2424    28.6845    37.4688
      8  H    Isotropic =    30.2253   Anisotropy =    10.2088
   XX=    29.7197   YX=     2.8084   ZX=     2.7491
   XY=     2.7451   YY=    32.3035   ZY=     4.0787
   XZ=     3.0820   YZ=     4.0032   ZZ=    28.6528
   Eigenvalues:    25.6716    27.9732    37.0312
      9  H    Isotropic =    30.4653   Anisotropy =    10.5053
   XX=    30.8052   YX=     1.5212   ZX=    -3.5301
   XY=     1.3037   YY=    28.8845   ZY=    -4.3509
   XZ=    -4.4195   YZ=    -4.5662   ZZ=    31.7061
   Eigenvalues:    25.2424    28.6845    37.4688
     10  H    Isotropic =    29.4340   Anisotropy =    10.2888
   XX=    27.4612   YX=     0.1087   ZX=     5.4581
   XY=    -0.3644   YY=    28.6629   ZY=    -1.8663
   XZ=     5.4809   YZ=    -2.6890   ZZ=    32.1778
   Eigenvalues:    23.5876    28.4212    36.2931
     11  H    Isotropic =    28.8048   Anisotropy =     8.9539
   XX=    34.0310   YX=    -2.1626   ZX=    -1.9058
   XY=    -1.2900   YY=    27.8870   ZY=     0.5304
   XZ=    -1.3214   YZ=     0.8004   ZZ=    24.4964
   Eigenvalues:    24.1888    27.4516    34.7741
     12  H    Isotropic =    31.5362   Anisotropy =    14.3621
   XX=    30.0319   YX=    -0.0000   ZX=    -0.0000
   XY=    -0.0000   YY=    26.4539   ZY=     5.6808
   XZ=    -0.0000   YZ=     7.5552   ZZ=    38.1227
   Eigenvalues:    23.4657    30.0319    41.1109
     13  H    Isotropic =    29.4339   Anisotropy =    10.2887
   XX=    27.4613   YX=    -0.1086   ZX=    -5.4582
   XY=     0.3645   YY=    28.6630   ZY=    -1.8663
   XZ=    -5.4810   YZ=    -2.6890   ZZ=    32.1776
   Eigenvalues:    23.5875    28.4212    36.2931
     14  H    Isotropic =    28.8048   Anisotropy =     8.9539
   XX=    34.0310   YX=     2.1626   ZX=     1.9059
   XY=     1.2899   YY=    27.8870   ZY=     0.5304
   XZ=     1.3215   YZ=     0.8004   ZZ=    24.4964
   Eigenvalues:    24.1888    27.4516    34.7741
 End of Minotr F.D. properties file   721 does not exist.
 End of Minotr F.D. properties file   722 does not exist.
 End of Minotr F.D. properties file   788 does not exist.

 **********************************************************************

            Population analysis using the SCF Density.

 **********************************************************************

 Orbital symmetries:
       Occupied  (A) (A) (A) (A) (A) (A) (A) (A) (A) (A) (A) (A)
                 (A) (A) (A) (A) (A) (A) (A) (A)
       Virtual   (A) (A) (A) (A) (A) (A) (A) (A) (A) (A) (A) (A)
                 (A) (A) (A) (A) (A) (A) (A) (A) (A) (A) (A) (A)
                 (A) (A) (A) (A) (A) (A) (A) (A) (A) (A) (A) (A)
                 (A) (A) (A) (A) (A) (A) (A) (A) (A) (A) (A) (A)
                 (A) (A) (A) (A) (A) (A) (A) (A) (A) (A) (A) (A)
                 (A) (A) (A) (A) (A) (A) (A) (A) (A) (A) (A) (A)
                 (A) (A) (A) (A) (A) (A) (A) (A) (A) (A) (A) (A)
                 (A) (A) (A) (A) (A) (A) (A) (A) (A) (A) (A) (A)
                 (A) (A) (A) (A) (A) (A) (A) (A) (A) (A) (A) (A)
                 (A) (A) (A) (A) (A) (A) (A) (A) (A) (A) (A) (A)
                 (A) (A) (A) (A) (A) (A) (A) (A) (A) (A) (A) (A)
                 (A) (A) (A) (A) (A) (A) (A) (A) (A) (A) (A) (A)
                 (A) (A) (A) (A) (A) (A) (A) (A) (A) (A) (A) (A)
                 (A) (A) (A) (A) (A) (A) (A) (A) (A) (A) (A) (A)
                 (A) (A) (A) (A) (A) (A) (A) (A) (A) (A) (A) (A)
                 (A) (A) (A) (A) (A) (A) (A) (A) (A)
 The electronic state is 1-A.
 Alpha  occ. eigenvalues --  -14.72702 -10.55263 -10.55262 -10.52928 -10.52895
 Alpha  occ. eigenvalues --   -1.01942  -0.84794  -0.80856  -0.68146  -0.65486
 Alpha  occ. eigenvalues --   -0.57433  -0.53648  -0.49558  -0.49222  -0.43001
 Alpha  occ. eigenvalues --   -0.41083  -0.39839  -0.39739  -0.37805  -0.29612
 Alpha virt. eigenvalues --    0.05754   0.09147   0.10517   0.10853   0.12744
 Alpha virt. eigenvalues --    0.14008   0.14920   0.14983   0.18683   0.19046
 Alpha virt. eigenvalues --    0.20255   0.20655   0.22889   0.25579   0.26268
 Alpha virt. eigenvalues --    0.27107   0.29190   0.29783   0.33546   0.36234
 Alpha virt. eigenvalues --    0.37984   0.39455   0.41568   0.41641   0.44223
 Alpha virt. eigenvalues --    0.44610   0.46174   0.46498   0.47377   0.47745
 Alpha virt. eigenvalues --    0.48423   0.49362   0.50921   0.53648   0.54112
 Alpha virt. eigenvalues --    0.56299   0.57511   0.58319   0.66805   0.67005
 Alpha virt. eigenvalues --    0.70323   0.70560   0.72214   0.80336   0.84173
 Alpha virt. eigenvalues --    0.90118   0.91548   0.95929   0.96631   0.98876
 Alpha virt. eigenvalues --    1.03383   1.04151   1.05376   1.06229   1.08867
 Alpha virt. eigenvalues --    1.10270   1.14286   1.16159   1.19910   1.20777
 Alpha virt. eigenvalues --    1.23251   1.27115   1.30879   1.38263   1.41847
 Alpha virt. eigenvalues --    1.49132   1.50061   1.52682   1.55138   1.59188
 Alpha virt. eigenvalues --    1.59745   1.62983   1.65197   1.66477   1.66761
 Alpha virt. eigenvalues --    1.70816   1.76095   1.78875   1.79985   1.80110
 Alpha virt. eigenvalues --    1.84526   1.85081   1.87212   1.90336   1.93132
 Alpha virt. eigenvalues --    1.96499   1.98625   2.01722   2.02230   2.05911
 Alpha virt. eigenvalues --    2.07535   2.13006   2.13445   2.18300   2.22072
 Alpha virt. eigenvalues --    2.26359   2.33916   2.34347   2.39111   2.41827
 Alpha virt. eigenvalues --    2.42359   2.45788   2.50662   2.52529   2.54926
 Alpha virt. eigenvalues --    2.55971   2.58001   2.60937   2.61244   2.63356
 Alpha virt. eigenvalues --    2.65733   2.68992   2.69727   2.72650   2.74815
 Alpha virt. eigenvalues --    2.78755   2.82840   2.83649   2.85175   2.86686
 Alpha virt. eigenvalues --    2.91682   2.93285   2.98809   3.02006   3.07158
 Alpha virt. eigenvalues --    3.07613   3.10167   3.11530   3.14184   3.14989
 Alpha virt. eigenvalues --    3.19261   3.22239   3.23478   3.25097   3.27661
 Alpha virt. eigenvalues --    3.31724   3.33055   3.35473   3.41109   3.41681
 Alpha virt. eigenvalues --    3.45392   3.50453   3.52870   3.54291   3.56120
 Alpha virt. eigenvalues --    3.57635   3.65281   3.69760   3.69808   3.77042
 Alpha virt. eigenvalues --    3.79282   3.80554   3.84855   3.86281   3.95724
 Alpha virt. eigenvalues --    4.00858   4.03393   4.03578   4.05976   4.13243
 Alpha virt. eigenvalues --    4.16449   4.24487   4.27888   4.29588   4.34135
 Alpha virt. eigenvalues --    4.34151   4.47403   4.56669   4.57552   4.59401
 Alpha virt. eigenvalues --    4.72297   4.77487   4.77605   4.85806   4.91772
 Alpha virt. eigenvalues --    4.96881   5.06058   5.13874   5.18430   5.20953
 Alpha virt. eigenvalues --    5.36328   5.50249   5.56762   5.76522  22.36774
 Alpha virt. eigenvalues --   22.54602  22.61167  22.66025  32.31760
          Condensed to atoms (all electrons):
               1          2          3          4          5          6
     1  C    5.271672   0.257022  -0.062707  -0.091990   0.283594   0.404179
     2  C    0.257022   5.271668   0.283597  -0.091988  -0.062706  -0.038626
     3  C   -0.062707   0.283597   5.013905   0.285263  -0.054295   0.005662
     4  N   -0.091990  -0.091988   0.285263   6.696274   0.285264   0.009072
     5  C    0.283594  -0.062706  -0.054295   0.285264   5.013905  -0.036222
     6  H    0.404179  -0.038626   0.005662   0.009072  -0.036222   0.545600
     7  H    0.422949  -0.053334   0.008490   0.006526  -0.047726  -0.020071
     8  H   -0.038626   0.404178  -0.036222   0.009073   0.005662  -0.005337
     9  H   -0.053334   0.422951  -0.047727   0.006526   0.008490   0.004334
    10  H   -0.008113  -0.072424   0.424050  -0.037899  -0.000367   0.001398
    11  H    0.009871  -0.047134   0.423349  -0.032939   0.008561  -0.000332
    12  H   -0.005888  -0.005887  -0.049736   0.366249  -0.049735   0.000253
    13  H   -0.072425  -0.008113  -0.000367  -0.037899   0.424051  -0.002624
    14  H   -0.047133   0.009870   0.008561  -0.032939   0.423348   0.001489
               7          8          9         10         11         12
     1  C    0.422949  -0.038626  -0.053334  -0.008113   0.009871  -0.005888
     2  C   -0.053334   0.404178   0.422951  -0.072424  -0.047134  -0.005887
     3  C    0.008490  -0.036222  -0.047727   0.424050   0.423349  -0.049736
     4  N    0.006526   0.009073   0.006526  -0.037899  -0.032939   0.366249
     5  C   -0.047726   0.005662   0.008490  -0.000367   0.008561  -0.049735
     6  H   -0.020071  -0.005337   0.004334   0.001398  -0.000332   0.000253
     7  H    0.555026   0.004334  -0.010125  -0.000069  -0.000246   0.001872
     8  H    0.004334   0.545600  -0.020071  -0.002624   0.001489   0.000253
     9  H   -0.010125  -0.020071   0.555026   0.007192  -0.007133   0.001872
    10  H   -0.000069  -0.002624   0.007192   0.566283  -0.024447   0.009546
    11  H   -0.000246   0.001489  -0.007133  -0.024447   0.541922  -0.010405
    12  H    0.001872   0.000253   0.001872   0.009546  -0.010405   0.533107
    13  H    0.007192   0.001398  -0.000069   0.003496  -0.000126   0.009546
    14  H   -0.007134  -0.000332  -0.000246  -0.000126  -0.000293  -0.010406
              13         14
     1  C   -0.072425  -0.047133
     2  C   -0.008113   0.009870
     3  C   -0.000367   0.008561
     4  N   -0.037899  -0.032939
     5  C    0.424051   0.423348
     6  H   -0.002624   0.001489
     7  H    0.007192  -0.007134
     8  H    0.001398  -0.000332
     9  H   -0.000069  -0.000246
    10  H    0.003496  -0.000126
    11  H   -0.000126  -0.000293
    12  H    0.009546  -0.010406
    13  H    0.566284  -0.024447
    14  H   -0.024447   0.541923
 Mulliken charges:
               1
     1  C   -0.269070
     2  C   -0.269073
     3  C   -0.201822
     4  N   -0.338592
     5  C   -0.201823
     6  H    0.131225
     7  H    0.132315
     8  H    0.131225
     9  H    0.132316
    10  H    0.134104
    11  H    0.137865
    12  H    0.209360
    13  H    0.134103
    14  H    0.137865
 Sum of Mulliken charges =  -0.00000
 Mulliken charges with hydrogens summed into heavy atoms:
               1
     1  C   -0.005529
     2  C   -0.005532
     3  C    0.070147
     4  N   -0.129231
     5  C    0.070145
 Electronic spatial extent (au):  <R**2>=            392.6927
 Charge=             -0.0000 electrons
 Dipole moment (field-independent basis, Debye):
    X=              0.0000    Y=              1.2123    Z=             -0.6409  Tot=              1.3713
 Quadrupole moment (field-independent basis, Debye-Ang):
   XX=            -31.5300   YY=            -37.1214   ZZ=            -30.4564
   XY=             -0.0000   XZ=              0.0000   YZ=              1.4981
 Traceless Quadrupole moment (field-independent basis, Debye-Ang):
   XX=              1.5059   YY=             -4.0854   ZZ=              2.5795
   XY=             -0.0000   XZ=              0.0000   YZ=              1.4981
 Octapole moment (field-independent basis, Debye-Ang**2):
  XXX=              0.0000  YYY=              7.0017  ZZZ=             -2.2621  XYY=              0.0000
  XXY=             -2.3799  XXZ=             -1.0756  XZZ=             -0.0000  YZZ=             -2.2971
  YYZ=             -1.7753  XYZ=              0.0000
 Hexadecapole moment (field-independent basis, Debye-Ang**3):
 XXXX=           -233.6489 YYYY=           -256.1875 ZZZZ=            -68.6693 XXXY=             -0.0000
 XXXZ=              0.0001 YYYX=              0.0000 YYYZ=              6.6140 ZZZX=             -0.0000
 ZZZY=              3.0675 XXYY=            -77.1855 XXZZ=            -49.5140 YYZZ=            -46.0378
 XXYZ=              2.0951 YYXZ=              0.0000 ZZXY=             -0.0000
 N-N= 1.894627890510D+02 E-N=-8.720769384477D+02  KE= 2.113477704297D+02
 Unable to Open any file for archive entry.
 1\1\GINC-NOTCH264\SP\RM062X\def2TZVP\C4H9N1\U6032257\23-Sep-2022\0\\# 
 M062X/def2tzvp int=(grid=ultrafine) nmr=giao guess=read geom=check\\Se
 cN3.xyz\\0,1\C,0,-1.1088434896,0.4027355748,0.1321564373\C,0,0.1443578
 409,1.0653344059,-0.5033794386\C,0,1.2910995626,0.0589521574,-0.214758
 9045\N,0,0.6681239315,-1.2531743906,0.0109315528\C,0,-0.5715486361,-0.
 9258856247,0.7298268359\H,0,-1.5761983032,1.0341467248,0.8934615953\H,
 0,-1.8687915372,0.2023352715,-0.6299685384\H,0,0.3532244484,2.05429319
 66,-0.0850234272\H,0,0.0083482852,1.1948078919,-1.5819217116\H,0,1.819
 3037255,0.3468714331,0.7031097132\H,0,2.0336268031,0.0016523172,-1.015
 0930983\H,0,0.4145063059,-1.6435962024,-0.8962408155\H,0,-0.323117755,
 -0.7859005126,1.789574416\H,0,-1.2841911821,-1.7525722429,0.6674253835
 \\Version=ES64L-G16RevC.01\State=1-A\HF=-212.5562031\RMSD=6.866e-10\Di
 pole=-0.3187803,0.3218236,-0.2930717\Quadrupole=-0.2542858,-1.1598091,
 1.414095,1.9734734,-0.6516658,1.5149638\PG=C01 [X(C4H9N1)]\\@
 The archive entry for this job was punched.


 MAN IS THE MEASURE OF ALL THINGS.
  -- PROTAGORAS (5TH CENTURY B.C.)
 Job cpu time:       0 days  0 hours  5 minutes 56.5 seconds.
 Elapsed time:       0 days  0 hours  0 minutes  7.0 seconds.
 File lengths (MBytes):  RWF=     30 Int=      0 D2E=      0 Chk=      6 Scr=      1
 Normal termination of Gaussian 16 at Fri Sep 23 15:28:44 2022.
