 Entering Gaussian System, Link 0=/uufs/chpc.utah.edu/sys/installdir/gaussian16/C01/AVX2/g16/g16
 Input=SecN5_clust-4.com
 Output=SecN5_clust-4.log
 Initial command:
 /uufs/chpc.utah.edu/sys/installdir/gaussian16/C01/AVX2/g16/l1.exe "/scratch/local/u6032257/5771828/notchpeak.peaks/Gau-1079417.inp" -scrdir="/scratch/local/u6032257/5771828/notchpeak.peaks/"
 Entering Link 1 = /uufs/chpc.utah.edu/sys/installdir/gaussian16/C01/AVX2/g16/l1.exe PID=   1079419.
  
 Copyright (c) 1988-2019, Gaussian, Inc.  All Rights Reserved.
  
 This is part of the Gaussian(R) 16 program.  It is based on
 the Gaussian(R) 09 system (copyright 2009, Gaussian, Inc.),
 the Gaussian(R) 03 system (copyright 2003, Gaussian, Inc.),
 the Gaussian(R) 98 system (copyright 1998, Gaussian, Inc.),
 the Gaussian(R) 94 system (copyright 1995, Gaussian, Inc.),
 the Gaussian 92(TM) system (copyright 1992, Gaussian, Inc.),
 the Gaussian 90(TM) system (copyright 1990, Gaussian, Inc.),
 the Gaussian 88(TM) system (copyright 1988, Gaussian, Inc.),
 the Gaussian 86(TM) system (copyright 1986, Carnegie Mellon
 University), and the Gaussian 82(TM) system (copyright 1983,
 Carnegie Mellon University). Gaussian is a federally registered
 trademark of Gaussian, Inc.
  
 This software contains proprietary and confidential information,
 including trade secrets, belonging to Gaussian, Inc.
  
 This software is provided under written license and may be
 used, copied, transmitted, or stored only in accord with that
 written license.
  
 The following legend is applicable only to US Government
 contracts under FAR:
  
                    RESTRICTED RIGHTS LEGEND
  
 Use, reproduction and disclosure by the US Government is
 subject to restrictions as set forth in subparagraphs (a)
 and (c) of the Commercial Computer Software - Restricted
 Rights clause in FAR 52.227-19.
  
 Gaussian, Inc.
 340 Quinnipiac St., Bldg. 40, Wallingford CT 06492
  
  
 ---------------------------------------------------------------
 Warning -- This program may not be used in any manner that
 competes with the business of Gaussian, Inc. or will provide
 assistance to any competitor of Gaussian, Inc.  The licensee
 of this program is prohibited from giving any competitor of
 Gaussian, Inc. access to this program.  By using this program,
 the user acknowledges that Gaussian, Inc. is engaged in the
 business of creating and licensing software in the field of
 computational chemistry and represents and warrants to the
 licensee that it is not a competitor of Gaussian, Inc. and that
 it will not use this program in any manner prohibited above.
 ---------------------------------------------------------------
  

 Cite this work as:
 Gaussian 16, Revision C.01,
 M. J. Frisch, G. W. Trucks, H. B. Schlegel, G. E. Scuseria, 
 M. A. Robb, J. R. Cheeseman, G. Scalmani, V. Barone, 
 G. A. Petersson, H. Nakatsuji, X. Li, M. Caricato, A. V. Marenich, 
 J. Bloino, B. G. Janesko, R. Gomperts, B. Mennucci, H. P. Hratchian, 
 J. V. Ortiz, A. F. Izmaylov, J. L. Sonnenberg, D. Williams-Young, 
 F. Ding, F. Lipparini, F. Egidi, J. Goings, B. Peng, A. Petrone, 
 T. Henderson, D. Ranasinghe, V. G. Zakrzewski, J. Gao, N. Rega, 
 G. Zheng, W. Liang, M. Hada, M. Ehara, K. Toyota, R. Fukuda, 
 J. Hasegawa, M. Ishida, T. Nakajima, Y. Honda, O. Kitao, H. Nakai, 
 T. Vreven, K. Throssell, J. A. Montgomery, Jr., J. E. Peralta, 
 F. Ogliaro, M. J. Bearpark, J. J. Heyd, E. N. Brothers, K. N. Kudin, 
 V. N. Staroverov, T. A. Keith, R. Kobayashi, J. Normand, 
 K. Raghavachari, A. P. Rendell, J. C. Burant, S. S. Iyengar, 
 J. Tomasi, M. Cossi, J. M. Millam, M. Klene, C. Adamo, R. Cammi, 
 J. W. Ochterski, R. L. Martin, K. Morokuma, O. Farkas, 
 J. B. Foresman, and D. J. Fox, Gaussian, Inc., Wallingford CT, 2019.
 
 ******************************************
 Gaussian 16:  ES64L-G16RevC.01  3-Jul-2019
                23-Sep-2022 
 ******************************************
 %NProcShared=56
 Will use up to   56 processors via shared memory.
 %mem=16GB
 %chk=SecN5_clust-4.chk
 ----------------------------------------------------------------------
 # B3LYP/6-31G(d,p) empiricaldispersion=GD3BJ int=(grid=ultrafine) opt 
 freq=noraman
 ----------------------------------------------------------------------
 1/18=20,19=15,26=4,38=1/1,3;
 2/9=110,12=2,17=6,18=5,40=1/2;
 3/5=1,6=6,7=101,11=2,25=1,30=1,71=1,74=-5,75=-5,124=41/1,2,3;
 4//1;
 5/5=2,38=5/2;
 6/7=2,8=2,9=2,10=2,28=1/1;
 7//1,2,3,16;
 1/18=20,19=15,26=4/3(2);
 2/9=110/2;
 99//99;
 2/9=110/2;
 3/5=1,6=6,7=101,11=2,25=1,30=1,71=1,74=-5,75=-5,124=41/1,2,3;
 4/5=5,16=3,69=1/1;
 5/5=2,38=5/2;
 7//1,2,3,16;
 1/18=20,19=15,26=4/3(-5);
 2/9=110/2;
 6/7=2,8=2,9=2,10=2,19=2,28=1/1;
 99/9=1/99;
 ---------
 SecN5.xyz
 ---------
 Symbolic Z-matrix:
 Charge =  0 Multiplicity = 1
 C                     1.8331   -2.0693    4.1065 
 N                     0.9413   -2.7336    3.1652 
 C                     0.1106   -1.7668    2.4568 
 C                    -0.7864   -2.4959    1.4415 
 C                    -0.0267   -3.0778    0.2238 
 N                     0.3521   -2.0351   -0.7667 
 C                     1.7455   -1.8124   -0.8356 
 C                     2.3319   -0.5414   -0.6654 
 C                     1.4526    0.6824   -0.5377 
 C                     0.5957    0.8881   -1.7836 
 C                    -0.6148   -0.0237   -1.9575 
 C                    -0.6939   -1.3549   -1.4531 
 C                    -1.8912   -2.055    -1.7131 
 C                    -2.957    -1.4998   -2.4135 
 C                    -2.8568   -0.207    -2.8993 
 C                    -1.6932    0.5157   -2.6757 
 C                     3.727    -0.4056   -0.6861 
 C                     4.5521   -1.5087   -0.8823 
 C                     3.9877   -2.7639   -1.0716 
 C                     2.6023   -2.9054   -1.0493 
 H                     1.2804   -1.4916    4.8498 
 H                     2.5236   -1.4016    3.5871 
 H                     2.433    -2.808     4.6403 
 H                     0.3734   -3.4408    3.6134 
 H                    -0.5083   -1.204     3.159 
 H                     0.7446   -1.0516    1.9297 
 H                    -1.3476   -3.2844    1.9427 
 H                    -1.524    -1.7711    1.0975 
 H                     0.8672   -3.5482    0.6385 
 H                    -0.5599   -3.914    -0.2268 
 H                     0.8408    0.6152    0.3624 
 H                     2.079     1.563    -0.3898 
 H                     0.2513    1.9236   -1.7788 
 H                     1.217     0.8006   -2.6767 
 H                    -2.0139   -3.0731   -1.3878 
 H                    -3.8515   -2.0796   -2.5878 
 H                    -3.6743    0.233    -3.4526 
 H                    -1.632     1.5206   -3.0685 
 H                     4.1787    0.5678   -0.5615 
 H                     5.6259   -1.3882   -0.8969 
 H                     4.6168   -3.627    -1.2311 
 H                     2.1764   -3.8858   -1.1964 
 

 GradGradGradGradGradGradGradGradGradGradGradGradGradGradGradGradGradGrad
 Berny optimization.
 Initialization pass.
                           ----------------------------
                           !    Initial Parameters    !
                           ! (Angstroms and Degrees)  !
 --------------------------                            --------------------------
 ! Name  Definition              Value          Derivative Info.                !
 --------------------------------------------------------------------------------
 ! R1    R(1,2)                  1.4569         estimate D2E/DX2                !
 ! R2    R(1,21)                 1.0917         estimate D2E/DX2                !
 ! R3    R(1,22)                 1.092          estimate D2E/DX2                !
 ! R4    R(1,23)                 1.0911         estimate D2E/DX2                !
 ! R5    R(2,3)                  1.4583         estimate D2E/DX2                !
 ! R6    R(2,24)                 1.0117         estimate D2E/DX2                !
 ! R7    R(3,4)                  1.5385         estimate D2E/DX2                !
 ! R8    R(3,25)                 1.0922         estimate D2E/DX2                !
 ! R9    R(3,26)                 1.0915         estimate D2E/DX2                !
 ! R10   R(4,5)                  1.5487         estimate D2E/DX2                !
 ! R11   R(4,27)                 1.0899         estimate D2E/DX2                !
 ! R12   R(4,28)                 1.0898         estimate D2E/DX2                !
 ! R13   R(5,6)                  1.4872         estimate D2E/DX2                !
 ! R14   R(5,29)                 1.0919         estimate D2E/DX2                !
 ! R15   R(5,30)                 1.0893         estimate D2E/DX2                !
 ! R16   R(6,7)                  1.4128         estimate D2E/DX2                !
 ! R17   R(6,12)                 1.4241         estimate D2E/DX2                !
 ! R18   R(7,8)                  1.4101         estimate D2E/DX2                !
 ! R19   R(7,20)                 1.4051         estimate D2E/DX2                !
 ! R20   R(8,9)                  1.5123         estimate D2E/DX2                !
 ! R21   R(8,17)                 1.4018         estimate D2E/DX2                !
 ! R22   R(9,10)                 1.5261         estimate D2E/DX2                !
 ! R23   R(9,31)                 1.0904         estimate D2E/DX2                !
 ! R24   R(9,32)                 1.0907         estimate D2E/DX2                !
 ! R25   R(10,11)                1.5254         estimate D2E/DX2                !
 ! R26   R(10,33)                1.0913         estimate D2E/DX2                !
 ! R27   R(10,34)                1.0915         estimate D2E/DX2                !
 ! R28   R(11,12)                1.4258         estimate D2E/DX2                !
 ! R29   R(11,16)                1.4035         estimate D2E/DX2                !
 ! R30   R(12,13)                1.4111         estimate D2E/DX2                !
 ! R31   R(13,14)                1.3909         estimate D2E/DX2                !
 ! R32   R(13,35)                1.0758         estimate D2E/DX2                !
 ! R33   R(14,15)                1.3847         estimate D2E/DX2                !
 ! R34   R(14,36)                1.0801         estimate D2E/DX2                !
 ! R35   R(15,16)                1.3879         estimate D2E/DX2                !
 ! R36   R(15,37)                1.0808         estimate D2E/DX2                !
 ! R37   R(16,38)                1.0807         estimate D2E/DX2                !
 ! R38   R(17,18)                1.3914         estimate D2E/DX2                !
 ! R39   R(17,39)                1.0803         estimate D2E/DX2                !
 ! R40   R(18,19)                1.3892         estimate D2E/DX2                !
 ! R41   R(18,40)                1.0806         estimate D2E/DX2                !
 ! R42   R(19,20)                1.3928         estimate D2E/DX2                !
 ! R43   R(19,41)                1.0799         estimate D2E/DX2                !
 ! R44   R(20,42)                1.079          estimate D2E/DX2                !
 ! A1    A(2,1,21)             111.7957         estimate D2E/DX2                !
 ! A2    A(2,1,22)             111.0114         estimate D2E/DX2                !
 ! A3    A(2,1,23)             110.1168         estimate D2E/DX2                !
 ! A4    A(21,1,22)            108.6895         estimate D2E/DX2                !
 ! A5    A(21,1,23)            107.6699         estimate D2E/DX2                !
 ! A6    A(22,1,23)            107.3982         estimate D2E/DX2                !
 ! A7    A(1,2,3)              111.1154         estimate D2E/DX2                !
 ! A8    A(1,2,24)             112.0921         estimate D2E/DX2                !
 ! A9    A(3,2,24)             111.0315         estimate D2E/DX2                !
 ! A10   A(2,3,4)              109.7862         estimate D2E/DX2                !
 ! A11   A(2,3,25)             110.6159         estimate D2E/DX2                !
 ! A12   A(2,3,26)             109.7629         estimate D2E/DX2                !
 ! A13   A(4,3,25)             109.7613         estimate D2E/DX2                !
 ! A14   A(4,3,26)             109.299          estimate D2E/DX2                !
 ! A15   A(25,3,26)            107.5772         estimate D2E/DX2                !
 ! A16   A(3,4,5)              114.2634         estimate D2E/DX2                !
 ! A17   A(3,4,27)             109.8515         estimate D2E/DX2                !
 ! A18   A(3,4,28)             106.722          estimate D2E/DX2                !
 ! A19   A(5,4,27)             110.0185         estimate D2E/DX2                !
 ! A20   A(5,4,28)             109.4933         estimate D2E/DX2                !
 ! A21   A(27,4,28)            106.1292         estimate D2E/DX2                !
 ! A22   A(4,5,6)              112.6544         estimate D2E/DX2                !
 ! A23   A(4,5,29)             105.3564         estimate D2E/DX2                !
 ! A24   A(4,5,30)             111.9355         estimate D2E/DX2                !
 ! A25   A(6,5,29)             110.2713         estimate D2E/DX2                !
 ! A26   A(6,5,30)             112.7915         estimate D2E/DX2                !
 ! A27   A(29,5,30)            103.1275         estimate D2E/DX2                !
 ! A28   A(5,6,7)              113.2169         estimate D2E/DX2                !
 ! A29   A(5,6,12)             117.9577         estimate D2E/DX2                !
 ! A30   A(7,6,12)             128.7301         estimate D2E/DX2                !
 ! A31   A(6,7,8)              123.1183         estimate D2E/DX2                !
 ! A32   A(6,7,20)             119.0913         estimate D2E/DX2                !
 ! A33   A(8,7,20)             117.7699         estimate D2E/DX2                !
 ! A34   A(7,8,9)              119.8549         estimate D2E/DX2                !
 ! A35   A(7,8,17)             119.9605         estimate D2E/DX2                !
 ! A36   A(9,8,17)             120.0977         estimate D2E/DX2                !
 ! A37   A(8,9,10)             111.5067         estimate D2E/DX2                !
 ! A38   A(8,9,31)             110.2459         estimate D2E/DX2                !
 ! A39   A(8,9,32)             109.3209         estimate D2E/DX2                !
 ! A40   A(10,9,31)            111.5421         estimate D2E/DX2                !
 ! A41   A(10,9,32)            108.9262         estimate D2E/DX2                !
 ! A42   A(31,9,32)            105.0726         estimate D2E/DX2                !
 ! A43   A(9,10,11)            117.2639         estimate D2E/DX2                !
 ! A44   A(9,10,33)            107.5489         estimate D2E/DX2                !
 ! A45   A(9,10,34)            109.7308         estimate D2E/DX2                !
 ! A46   A(11,10,33)           108.4964         estimate D2E/DX2                !
 ! A47   A(11,10,34)           108.0902         estimate D2E/DX2                !
 ! A48   A(33,10,34)           105.0294         estimate D2E/DX2                !
 ! A49   A(10,11,12)           124.1796         estimate D2E/DX2                !
 ! A50   A(10,11,16)           115.9992         estimate D2E/DX2                !
 ! A51   A(12,11,16)           119.8187         estimate D2E/DX2                !
 ! A52   A(6,12,11)            125.1518         estimate D2E/DX2                !
 ! A53   A(6,12,13)            118.363          estimate D2E/DX2                !
 ! A54   A(11,12,13)           116.4308         estimate D2E/DX2                !
 ! A55   A(12,13,14)           123.0165         estimate D2E/DX2                !
 ! A56   A(12,13,35)           120.7016         estimate D2E/DX2                !
 ! A57   A(14,13,35)           116.2699         estimate D2E/DX2                !
 ! A58   A(13,14,15)           119.5957         estimate D2E/DX2                !
 ! A59   A(13,14,36)           120.1027         estimate D2E/DX2                !
 ! A60   A(15,14,36)           120.2966         estimate D2E/DX2                !
 ! A61   A(14,15,16)           119.3607         estimate D2E/DX2                !
 ! A62   A(14,15,37)           120.3299         estimate D2E/DX2                !
 ! A63   A(16,15,37)           120.3083         estimate D2E/DX2                !
 ! A64   A(11,16,15)           121.7707         estimate D2E/DX2                !
 ! A65   A(11,16,38)           119.9917         estimate D2E/DX2                !
 ! A66   A(15,16,38)           118.2373         estimate D2E/DX2                !
 ! A67   A(8,17,18)            121.025          estimate D2E/DX2                !
 ! A68   A(8,17,39)            120.112          estimate D2E/DX2                !
 ! A69   A(18,17,39)           118.8583         estimate D2E/DX2                !
 ! A70   A(17,18,19)           119.6433         estimate D2E/DX2                !
 ! A71   A(17,18,40)           120.181          estimate D2E/DX2                !
 ! A72   A(19,18,40)           120.173          estimate D2E/DX2                !
 ! A73   A(18,19,20)           119.5862         estimate D2E/DX2                !
 ! A74   A(18,19,41)           120.3711         estimate D2E/DX2                !
 ! A75   A(20,19,41)           120.0422         estimate D2E/DX2                !
 ! A76   A(7,20,19)            122.0011         estimate D2E/DX2                !
 ! A77   A(7,20,42)            119.1326         estimate D2E/DX2                !
 ! A78   A(19,20,42)           118.8657         estimate D2E/DX2                !
 ! D1    D(21,1,2,3)            59.2977         estimate D2E/DX2                !
 ! D2    D(21,1,2,24)          -65.5882         estimate D2E/DX2                !
 ! D3    D(22,1,2,3)           -62.255          estimate D2E/DX2                !
 ! D4    D(22,1,2,24)          172.8591         estimate D2E/DX2                !
 ! D5    D(23,1,2,3)           178.9417         estimate D2E/DX2                !
 ! D6    D(23,1,2,24)           54.0558         estimate D2E/DX2                !
 ! D7    D(1,2,3,4)            178.2479         estimate D2E/DX2                !
 ! D8    D(1,2,3,25)           -60.4711         estimate D2E/DX2                !
 ! D9    D(1,2,3,26)            58.0843         estimate D2E/DX2                !
 ! D10   D(24,2,3,4)           -56.2716         estimate D2E/DX2                !
 ! D11   D(24,2,3,25)           65.0093         estimate D2E/DX2                !
 ! D12   D(24,2,3,26)         -176.4353         estimate D2E/DX2                !
 ! D13   D(2,3,4,5)            -70.5475         estimate D2E/DX2                !
 ! D14   D(2,3,4,27)            53.6436         estimate D2E/DX2                !
 ! D15   D(2,3,4,28)           168.2804         estimate D2E/DX2                !
 ! D16   D(25,3,4,5)           167.6596         estimate D2E/DX2                !
 ! D17   D(25,3,4,27)          -68.1494         estimate D2E/DX2                !
 ! D18   D(25,3,4,28)           46.4874         estimate D2E/DX2                !
 ! D19   D(26,3,4,5)            49.8977         estimate D2E/DX2                !
 ! D20   D(26,3,4,27)          174.0888         estimate D2E/DX2                !
 ! D21   D(26,3,4,28)          -71.2744         estimate D2E/DX2                !
 ! D22   D(3,4,5,6)            -76.2817         estimate D2E/DX2                !
 ! D23   D(3,4,5,29)            43.9804         estimate D2E/DX2                !
 ! D24   D(3,4,5,30)           155.3576         estimate D2E/DX2                !
 ! D25   D(27,4,5,6)           159.6166         estimate D2E/DX2                !
 ! D26   D(27,4,5,29)          -80.1213         estimate D2E/DX2                !
 ! D27   D(27,4,5,30)           31.2558         estimate D2E/DX2                !
 ! D28   D(28,4,5,6)            43.3457         estimate D2E/DX2                !
 ! D29   D(28,4,5,29)          163.6077         estimate D2E/DX2                !
 ! D30   D(28,4,5,30)          -85.0151         estimate D2E/DX2                !
 ! D31   D(4,5,6,7)            111.5184         estimate D2E/DX2                !
 ! D32   D(4,5,6,12)           -65.2421         estimate D2E/DX2                !
 ! D33   D(29,5,6,7)            -5.8729         estimate D2E/DX2                !
 ! D34   D(29,5,6,12)          177.3666         estimate D2E/DX2                !
 ! D35   D(30,5,6,7)          -120.5695         estimate D2E/DX2                !
 ! D36   D(30,5,6,12)           62.67           estimate D2E/DX2                !
 ! D37   D(5,6,7,8)           -125.0564         estimate D2E/DX2                !
 ! D38   D(5,6,7,20)            53.2563         estimate D2E/DX2                !
 ! D39   D(12,6,7,8)            51.275          estimate D2E/DX2                !
 ! D40   D(12,6,7,20)         -130.4123         estimate D2E/DX2                !
 ! D41   D(5,6,12,11)          151.4596         estimate D2E/DX2                !
 ! D42   D(5,6,12,13)          -31.326          estimate D2E/DX2                !
 ! D43   D(7,6,12,11)          -24.7233         estimate D2E/DX2                !
 ! D44   D(7,6,12,13)          152.4912         estimate D2E/DX2                !
 ! D45   D(6,7,8,9)             -6.3101         estimate D2E/DX2                !
 ! D46   D(6,7,8,17)           177.0751         estimate D2E/DX2                !
 ! D47   D(20,7,8,9)           175.3563         estimate D2E/DX2                !
 ! D48   D(20,7,8,17)           -1.2586         estimate D2E/DX2                !
 ! D49   D(6,7,20,19)         -177.2511         estimate D2E/DX2                !
 ! D50   D(6,7,20,42)            2.4674         estimate D2E/DX2                !
 ! D51   D(8,7,20,19)            1.1518         estimate D2E/DX2                !
 ! D52   D(8,7,20,42)         -179.1297         estimate D2E/DX2                !
 ! D53   D(7,8,9,10)           -60.8483         estimate D2E/DX2                !
 ! D54   D(7,8,9,31)            63.6229         estimate D2E/DX2                !
 ! D55   D(7,8,9,32)           178.6486         estimate D2E/DX2                !
 ! D56   D(17,8,9,10)          115.7619         estimate D2E/DX2                !
 ! D57   D(17,8,9,31)         -119.767          estimate D2E/DX2                !
 ! D58   D(17,8,9,32)           -4.7412         estimate D2E/DX2                !
 ! D59   D(7,8,17,18)            0.4539         estimate D2E/DX2                !
 ! D60   D(7,8,17,39)          179.6561         estimate D2E/DX2                !
 ! D61   D(9,8,17,18)         -176.1527         estimate D2E/DX2                !
 ! D62   D(9,8,17,39)            3.0495         estimate D2E/DX2                !
 ! D63   D(8,9,10,11)           76.0141         estimate D2E/DX2                !
 ! D64   D(8,9,10,33)         -161.4871         estimate D2E/DX2                !
 ! D65   D(8,9,10,34)          -47.7615         estimate D2E/DX2                !
 ! D66   D(31,9,10,11)         -47.7264         estimate D2E/DX2                !
 ! D67   D(31,9,10,33)          74.7724         estimate D2E/DX2                !
 ! D68   D(31,9,10,34)        -171.5019         estimate D2E/DX2                !
 ! D69   D(32,9,10,11)        -163.2517         estimate D2E/DX2                !
 ! D70   D(32,9,10,33)         -40.7528         estimate D2E/DX2                !
 ! D71   D(32,9,10,34)          72.9728         estimate D2E/DX2                !
 ! D72   D(9,10,11,12)         -29.3666         estimate D2E/DX2                !
 ! D73   D(9,10,11,16)         151.2176         estimate D2E/DX2                !
 ! D74   D(33,10,11,12)       -151.377          estimate D2E/DX2                !
 ! D75   D(33,10,11,16)         29.2073         estimate D2E/DX2                !
 ! D76   D(34,10,11,12)         95.2363         estimate D2E/DX2                !
 ! D77   D(34,10,11,16)        -84.1795         estimate D2E/DX2                !
 ! D78   D(10,11,12,6)          -2.4981         estimate D2E/DX2                !
 ! D79   D(10,11,12,13)       -179.7609         estimate D2E/DX2                !
 ! D80   D(16,11,12,6)         176.8966         estimate D2E/DX2                !
 ! D81   D(16,11,12,13)         -0.3661         estimate D2E/DX2                !
 ! D82   D(10,11,16,15)       -179.6844         estimate D2E/DX2                !
 ! D83   D(10,11,16,38)          0.1063         estimate D2E/DX2                !
 ! D84   D(12,11,16,15)          0.8726         estimate D2E/DX2                !
 ! D85   D(12,11,16,38)       -179.3367         estimate D2E/DX2                !
 ! D86   D(6,12,13,14)        -177.8501         estimate D2E/DX2                !
 ! D87   D(6,12,13,35)           0.8403         estimate D2E/DX2                !
 ! D88   D(11,12,13,14)         -0.3933         estimate D2E/DX2                !
 ! D89   D(11,12,13,35)        178.297          estimate D2E/DX2                !
 ! D90   D(12,13,14,15)          0.6689         estimate D2E/DX2                !
 ! D91   D(12,13,14,36)        179.8612         estimate D2E/DX2                !
 ! D92   D(35,13,14,15)       -178.0753         estimate D2E/DX2                !
 ! D93   D(35,13,14,36)          1.117          estimate D2E/DX2                !
 ! D94   D(13,14,15,16)         -0.1603         estimate D2E/DX2                !
 ! D95   D(13,14,15,37)        179.46           estimate D2E/DX2                !
 ! D96   D(36,14,15,16)       -179.351          estimate D2E/DX2                !
 ! D97   D(36,14,15,37)          0.2693         estimate D2E/DX2                !
 ! D98   D(14,15,16,11)         -0.6032         estimate D2E/DX2                !
 ! D99   D(14,15,16,38)        179.6026         estimate D2E/DX2                !
 ! D100  D(37,15,16,11)        179.7764         estimate D2E/DX2                !
 ! D101  D(37,15,16,38)         -0.0178         estimate D2E/DX2                !
 ! D102  D(8,17,18,19)           0.5202         estimate D2E/DX2                !
 ! D103  D(8,17,18,40)         179.9303         estimate D2E/DX2                !
 ! D104  D(39,17,18,19)       -178.6918         estimate D2E/DX2                !
 ! D105  D(39,17,18,40)          0.7183         estimate D2E/DX2                !
 ! D106  D(17,18,19,20)         -0.6437         estimate D2E/DX2                !
 ! D107  D(17,18,19,41)        179.614          estimate D2E/DX2                !
 ! D108  D(40,18,19,20)        179.9461         estimate D2E/DX2                !
 ! D109  D(40,18,19,41)          0.2038         estimate D2E/DX2                !
 ! D110  D(18,19,20,7)          -0.2061         estimate D2E/DX2                !
 ! D111  D(18,19,20,42)       -179.9253         estimate D2E/DX2                !
 ! D112  D(41,19,20,7)         179.537          estimate D2E/DX2                !
 ! D113  D(41,19,20,42)         -0.1821         estimate D2E/DX2                !
 --------------------------------------------------------------------------------
 Trust Radius=3.00D-01 FncErr=1.00D-07 GrdErr=1.00D-06 EigMax=2.50D+02 EigMin=1.00D-04
 Number of steps in this run=    245 maximum allowed number of steps=    252.
 GradGradGradGradGradGradGradGradGradGradGradGradGradGradGradGradGradGrad

                          Input orientation:                          
 ---------------------------------------------------------------------
 Center     Atomic      Atomic             Coordinates (Angstroms)
 Number     Number       Type             X           Y           Z
 ---------------------------------------------------------------------
      1          6           0        1.833100   -2.069300    4.106500
      2          7           0        0.941300   -2.733600    3.165200
      3          6           0        0.110600   -1.766800    2.456800
      4          6           0       -0.786400   -2.495900    1.441500
      5          6           0       -0.026700   -3.077800    0.223800
      6          7           0        0.352100   -2.035100   -0.766700
      7          6           0        1.745500   -1.812400   -0.835600
      8          6           0        2.331900   -0.541400   -0.665400
      9          6           0        1.452600    0.682400   -0.537700
     10          6           0        0.595700    0.888100   -1.783600
     11          6           0       -0.614800   -0.023700   -1.957500
     12          6           0       -0.693900   -1.354900   -1.453100
     13          6           0       -1.891200   -2.055000   -1.713100
     14          6           0       -2.957000   -1.499800   -2.413500
     15          6           0       -2.856800   -0.207000   -2.899300
     16          6           0       -1.693200    0.515700   -2.675700
     17          6           0        3.727000   -0.405600   -0.686100
     18          6           0        4.552100   -1.508700   -0.882300
     19          6           0        3.987700   -2.763900   -1.071600
     20          6           0        2.602300   -2.905400   -1.049300
     21          1           0        1.280400   -1.491600    4.849800
     22          1           0        2.523600   -1.401600    3.587100
     23          1           0        2.433000   -2.808000    4.640300
     24          1           0        0.373400   -3.440800    3.613400
     25          1           0       -0.508300   -1.204000    3.159000
     26          1           0        0.744600   -1.051600    1.929700
     27          1           0       -1.347600   -3.284400    1.942700
     28          1           0       -1.524000   -1.771100    1.097500
     29          1           0        0.867200   -3.548200    0.638500
     30          1           0       -0.559900   -3.914000   -0.226800
     31          1           0        0.840800    0.615200    0.362400
     32          1           0        2.079000    1.563000   -0.389800
     33          1           0        0.251300    1.923600   -1.778800
     34          1           0        1.217000    0.800600   -2.676700
     35          1           0       -2.013900   -3.073100   -1.387800
     36          1           0       -3.851500   -2.079600   -2.587800
     37          1           0       -3.674300    0.233000   -3.452600
     38          1           0       -1.632000    1.520600   -3.068500
     39          1           0        4.178700    0.567800   -0.561500
     40          1           0        5.625900   -1.388200   -0.896900
     41          1           0        4.616800   -3.627000   -1.231100
     42          1           0        2.176400   -3.885800   -1.196400
 ---------------------------------------------------------------------
                    Distance matrix (angstroms):
                    1          2          3          4          5
     1  C    0.000000
     2  N    1.456931   0.000000
     3  C    2.404168   1.458285   0.000000
     4  C    3.761116   2.452058   1.538515   0.000000
     5  C    4.421684   3.115659   2.593041   1.548724   0.000000
     6  N    5.093389   4.036694   3.243649   2.526790   1.487213
     7  C    4.949548   4.183509   3.676258   3.473165   2.421623
     8  C    5.035306   4.627419   4.022923   4.240624   3.575891
     9  C    5.411583   5.063788   4.094701   4.362562   4.111851
    10  C    6.706016   6.142212   5.026411   4.874723   4.488363
    11  C    6.851919   6.000588   4.801109   4.206474   3.798876
    12  C    6.148597   5.089537   4.013004   3.112739   2.495102
    13  C    6.909295   5.681669   4.634472   3.371421   2.876467
    14  C    8.110474   6.916712   5.762055   4.534837   4.246421
    15  C    8.633919   7.588638   6.318722   5.326177   5.099482
    16  C    8.069402   7.184334   5.899666   5.181057   4.908927
    17  C    5.415143   5.292657   4.980867   5.409881   4.696683
    18  C    5.709235   5.560622   5.562655   5.905438   4.964971
    19  C    5.651326   5.218424   5.336265   5.401808   4.229894
    20  C    5.279489   4.533260   4.449462   4.225525   2.926115
    21  H    1.091654   2.120243   2.677801   4.110570   5.062057
    22  H    1.091966   2.110900   2.689520   4.093555   4.541527
    23  H    1.091100   2.099196   3.353403   4.549095   5.062449
    24  H    2.062737   1.011694   2.051600   2.637256   3.432381
    25  H    2.669954   2.107381   1.092184   2.167061   3.515461
    26  H    2.637992   2.096253   1.091468   2.160626   2.758711
    27  H    4.034272   2.652725   2.166508   1.089899   2.177631
    28  H    4.518089   3.358496   2.125943   1.089828   2.170881
    29  H    3.891932   2.655801   2.655569   2.118145   1.091929
    30  H    5.282694   3.892635   3.501678   2.201258   1.089299
    31  H    4.712694   4.368094   3.254785   3.673034   3.796053
    32  H    5.785394   5.691499   4.802635   5.295172   5.132982
    33  H    7.285746   6.827060   5.619533   5.565890   5.394598
    34  H    7.391056   6.833328   5.845382   5.642703   5.000168
    35  H    6.781914   5.438591   4.582671   3.137651   2.558562
    36  H    8.782280   7.516359   6.422155   5.079705   4.850834
    37  H    9.631824   8.596497   7.296964   6.303894   6.146731
    38  H    8.739275   7.973651   6.661276   6.098148   5.878904
    39  H    5.852039   5.938711   5.577628   6.168507   5.620719
    40  H    6.315318   6.344780   6.466002   6.914673   6.005215
    41  H    6.218150   5.799562   6.112838   6.133249   4.896983
    42  H    5.615895   4.677242   4.701442   4.203394   2.742897
                    6          7          8          9         10
     6  N    0.000000
     7  C    1.412765   0.000000
     8  C    2.482138   1.410062   0.000000
     9  C    2.940807   2.529538   1.512337   0.000000
    10  C    3.104597   3.084387   2.511619   1.526059   0.000000
    11  C    2.529551   3.166879   3.258923   2.605485   1.525428
    12  C    1.424055   2.557594   3.230746   3.097743   2.608323
    13  C    2.434844   3.748926   4.606868   4.478384   3.853762
    14  C    3.734788   4.970009   5.652154   5.265472   4.326721
    15  C    4.264619   5.293140   5.659041   4.993908   3.789959
    16  C    3.786042   4.542100   4.621709   3.807216   2.484670
    17  C    3.748562   2.434703   1.401847   2.525601   3.561349
    18  C    4.234437   2.823370   2.431461   3.811374   4.712759
    19  C    3.720444   2.447143   2.801103   4.311469   5.034850
    20  C    2.429133   1.405142   2.410185   3.802085   4.353881
    21  H    5.718584   5.713406   5.694380   5.812150   7.080521
    22  H    4.906354   4.509376   4.342862   4.743846   6.148491
    23  H    5.844927   5.607973   5.770455   6.321057   7.635661
    24  H    4.600187   4.932337   5.527239   5.949545   6.922167
    25  H    4.103917   4.626726   4.809554   4.590123   5.479507
    26  H    2.896878   3.037680   3.084537   3.097754   4.192041
    27  H    3.433741   4.410556   5.278727   5.452431   5.922118
    28  H    2.657948   3.798449   4.414515   4.189712   4.457040
    29  H    2.128236   2.440775   3.589756   4.429912   5.061723
    30  H    2.157198   3.178400   4.464225   5.027296   5.178726
    31  H    2.921949   2.854282   2.148831   1.090411   2.177123
    32  H    4.008810   3.421006   2.137385   1.090737   2.144376
    33  H    4.087274   4.132790   3.412445   2.126976   1.091281
    34  H    3.526662   3.239866   2.662573   2.155180   1.091466
    35  H    2.657285   4.003421   5.081077   5.181030   4.760018
    36  H    4.581336   5.870946   6.655533   6.321790   5.406623
    37  H    5.345113   6.356617   6.666530   5.914703   4.631157
    38  H    4.677386   5.244258   5.073385   4.077044   2.648334
    39  H    4.632501   3.414813   2.156801   2.728612   3.799212
    40  H    5.314922   3.903999   3.408973   4.672563   5.592020
    41  H    4.575749   3.419584   3.880942   5.391094   6.071296
    42  H    2.633971   2.148218   3.389860   4.671854   5.062957
                   11         12         13         14         15
    11  C    0.000000
    12  C    1.425752   0.000000
    13  C    2.411454   1.411123   0.000000
    14  C    2.805835   2.462719   1.390948   0.000000
    15  C    2.438678   2.843819   2.398866   1.384693   0.000000
    16  C    1.403464   2.447957   2.752145   2.393362   1.387897
    17  C    4.540213   4.586264   5.944697   6.989781   6.948677
    18  C    5.482530   5.279203   6.519570   7.663631   7.788101
    19  C    5.429228   4.903897   5.956134   7.185228   7.531627
    20  C    4.413474   3.664975   4.621185   5.894283   6.364404
    21  H    7.217052   6.606292   7.310822   8.408992   8.877791
    22  H    6.518493   5.979808   6.928890   8.127350   8.511707
    23  H    7.782826   7.001323   7.722137   8.973270   9.570410
    24  H    6.609693   5.582072   5.951509   7.154199   7.956564
    25  H    5.251954   4.618299   5.135560   6.093963   6.573618
    26  H    4.244393   3.688443   4.606978   5.724169   6.082982
    27  H    5.136217   3.960019   3.895099   4.975082   5.932372
    28  H    3.634980   2.714378   2.848668   3.801870   4.494127
    29  H    4.621433   3.409162   3.920260   5.304258   6.127628
    30  H    4.258259   2.840908   2.727147   4.044268   5.114671
    31  H    2.812277   3.087497   4.347585   5.157725   4.998694
    32  H    3.497407   4.163379   5.532046   6.231966   5.813141
    33  H    2.138701   3.427542   4.519279   4.734522   3.931318
    34  H    2.133591   3.129683   4.329421   4.773195   4.202458
    35  H    3.403069   2.167689   1.075827   2.101612   3.348080
    36  H    3.885901   3.432663   2.146737   1.080129   2.143150
    37  H    3.414932   3.924565   3.382344   2.144025   1.080762
    38  H    2.157285   3.429001   3.832650   3.362658   2.124468
    39  H    5.027557   5.313563   6.711851   7.656572   7.454119
    40  H    6.475575   6.344316   7.590626   8.716576   8.795512
    41  H    6.393830   5.780593   6.712494   7.955218   8.386536
    42  H    4.825545   3.835358   4.490454   5.790175   6.462704
                   16         17         18         19         20
    16  C    0.000000
    17  C    5.846868   0.000000
    18  C    6.805751   1.391443   0.000000
    19  C    6.752891   2.403779   1.389212   0.000000
    20  C    5.727165   2.765116   2.404242   1.392786   0.000000
    21  H    8.336948   6.149100   6.600097   6.634094   6.208513
    22  H    7.789744   4.549772   4.909360   5.069806   4.874814
    23  H    9.033071   5.984689   6.056226   5.919868   5.692952
    24  H    7.712166   6.240575   6.434739   5.955719   5.195712
    25  H    6.197183   5.775812   6.483255   6.367518   5.502761
    26  H    5.441416   4.019258   4.755349   4.738931   3.970147
    27  H    5.990811   6.399191   6.777920   6.149988   4.969649
    28  H    4.415328   5.711289   6.395893   6.005788   4.787665
    29  H    5.835654   4.450725   4.477821   3.643774   2.504483
    30  H    5.186880   5.558537   5.687503   4.766244   3.419545
    31  H    3.957412   3.235975   4.453535   4.835044   4.182153
    32  H    4.533395   2.584392   3.974182   4.778080   4.547019
    33  H    2.562751   4.324310   5.575058   6.036015   5.420204
    34  H    2.924112   3.423084   4.435722   4.791533   4.278075
    35  H    3.826359   6.369134   6.768695   6.017873   4.631631
    36  H    3.376621   7.990770   8.593902   8.013750   6.685840
    37  H    2.146684   7.927205   8.792816   8.564859   7.417622
    38  H    1.080676   6.172921   7.224903   7.343404   6.449492
    39  H    6.241135   1.080308   2.134055   3.375931   3.845270
    40  H    7.769053   2.148432   1.080639   2.146339   3.386337
    41  H    7.685371   3.386176   2.147799   1.079884   2.147549
    42  H    6.044447   3.844029   3.375383   2.134255   1.078987
                   21         22         23         24         25
    21  H    0.000000
    22  H    1.774277   0.000000
    23  H    1.762182   1.759375   0.000000
    24  H    2.480063   2.963509   2.386820   0.000000
    25  H    2.478097   3.068344   3.663101   2.446865   0.000000
    26  H    3.001277   2.456484   3.644583   2.946339   1.761863
    27  H    4.309495   4.608164   4.668719   2.403651   2.551837
    28  H    4.692817   4.766309   5.411510   3.566199   2.367072
    29  H    4.704826   4.005720   4.360508   3.017516   3.706777
    30  H    5.918327   5.510532   5.819738   3.980214   4.337096
    31  H    4.976808   4.159085   5.705596   5.219061   3.598685
    32  H    6.117332   4.980186   6.673295   6.631191   5.190799
    33  H    7.527349   6.709187   8.267569   7.607070   5.894128
    34  H    7.868062   6.766984   8.248584   7.633249   6.407065
    35  H    7.229191   6.937755   7.495544   5.553954   5.141377
    36  H    9.055387   8.901178   9.605776   7.626108   6.705921
    37  H    9.821056   9.520675  10.584981   8.933590   7.470059
    38  H    8.958510   8.372889   9.730704   8.560660   6.889695
    39  H    6.474831   4.881473   6.442221   6.926686   6.240943
    40  H    7.205458   5.452587   6.547597   7.221131   7.356131
    41  H    7.257330   5.705168   6.317680   6.442848   7.170116
    42  H    6.564415   5.401266   5.940923   5.155871   5.776606
                   26         27         28         29         30
    26  H    0.000000
    27  H    3.059880   0.000000
    28  H    2.521266   1.742285   0.000000
    29  H    2.813404   2.583770   3.014399   0.000000
    30  H    3.813862   2.392404   2.697273   1.708557   0.000000
    31  H    2.289958   4.742713   3.439052   4.172628   4.777318
    32  H    3.741235   6.378043   5.129317   5.352591   6.081767
    33  H    4.779972   6.597674   5.007554   6.013590   6.094614
    34  H    4.987257   6.678567   5.326472   5.479505   5.602396
    35  H    4.764619   3.403062   2.848144   3.554202   2.041850
    36  H    6.526004   5.314743   4.369653   5.901858   4.446794
    37  H    7.081386   6.847985   5.416975   7.187475   6.107609
    38  H    6.102986   6.948455   5.310603   6.758741   6.225716
    39  H    4.541099   7.186825   6.383065   5.417332   6.530918
    40  H    5.650669   7.764574   7.432719   5.446860   6.715119
    41  H    5.622924   6.764943   6.824673   4.190598   5.281024
    42  H    4.455922   4.757542   4.840134   2.279218   2.903146
                   31         32         33         34         35
    31  H    0.000000
    32  H    1.731262   0.000000
    33  H    2.577626   2.323756   0.000000
    34  H    3.067903   2.560119   1.732031   0.000000
    35  H    4.981573   6.264284   5.500093   5.206297   0.000000
    36  H    6.163060   7.298669   5.789046   5.830364   2.409111
    37  H    5.923380   6.652075   4.590215   4.984878   4.236818
    38  H    4.324993   4.576981   2.317877   2.964576   4.906392
    39  H    3.463728   2.329945   4.329490   3.646907   7.230990
    40  H    5.338223   4.641900   6.374331   5.234208   7.838776
    41  H    5.898617   5.838177   7.082847   5.766458   6.655640
    42  H    4.946988   5.509039   6.147709   5.007403   4.272672
                   36         37         38         39         40
    36  H    0.000000
    37  H    2.475358   0.000000
    38  H    4.256606   2.444675   0.000000
    39  H    8.694753   8.374972   6.399774   0.000000
    40  H    9.651854   9.780266   8.115052   2.456179   0.000000
    41  H    8.714768   9.411536   8.301887   4.270438   2.478346
    42  H    6.444682   7.502376   6.872978   4.924110   4.269281
                   41         42
    41  H    0.000000
    42  H    2.454330   0.000000
 Stoichiometry    C18H22N2
 Framework group  C1[X(C18H22N2)]
 Deg. of freedom   120
 Full point group                 C1      NOp   1
 Largest Abelian subgroup         C1      NOp   1
 Largest concise Abelian subgroup C1      NOp   1
                         Standard orientation:                         
 ---------------------------------------------------------------------
 Center     Atomic      Atomic             Coordinates (Angstroms)
 Number     Number       Type             X           Y           Z
 ---------------------------------------------------------------------
      1          6           0       -3.895583   -2.281070   -1.200317
      2          7           0       -2.823874   -2.508638   -0.239952
      3          6           0       -1.516715   -2.304082   -0.853213
      4          6           0       -0.411022   -2.508985    0.196782
      5          6           0       -0.336198   -1.393230    1.268246
      6          7           0        0.295824   -0.148355    0.755763
      7          6           0       -0.609924    0.929833    0.641578
      8          6           0       -0.809101    1.645041   -0.557205
      9          6           0        0.066984    1.362189   -1.757051
     10          6           0        1.536349    1.643164   -1.455590
     11          6           0        2.283789    0.619311   -0.607069
     12          6           0        1.669460   -0.201233    0.383928
     13          6           0        2.517905   -1.090374    1.077353
     14          6           0        3.881979   -1.189265    0.823858
     15          6           0        4.459084   -0.378892   -0.139271
     16          6           0        3.664194    0.517982   -0.839289
     17          6           0       -1.769667    2.664546   -0.612832
     18          6           0       -2.531112    2.994190    0.504152
     19          6           0       -2.331512    2.311686    1.697574
     20          6           0       -1.380482    1.295944    1.758102
     21          1           0       -3.818453   -2.949752   -2.059749
     22          1           0       -3.888301   -1.249351   -1.557939
     23          1           0       -4.864387   -2.456534   -0.730071
     24          1           0       -2.884786   -3.423067    0.188573
     25          1           0       -1.369362   -2.996812   -1.684644
     26          1           0       -1.451163   -1.290595   -1.253024
     27          1           0       -0.531965   -3.479892    0.676982
     28          1           0        0.532606   -2.555360   -0.346485
     29          1           0       -1.371244   -1.200498    1.557801
     30          1           0        0.117660   -1.747016    2.193137
     31          1           0       -0.082570    0.338125   -2.100448
     32          1           0       -0.249419    1.990043   -2.590956
     33          1           0        2.054405    1.745718   -2.410574
     34          1           0        1.633936    2.618028   -0.974535
     35          1           0        2.131673   -1.721800    1.858076
     36          1           0        4.488213   -1.885195    1.384964
     37          1           0        5.519344   -0.439698   -0.339770
     38          1           0        4.134548    1.146182   -1.582251
     39          1           0       -1.920422    3.217790   -1.528397
     40          1           0       -3.267110    3.783329    0.446297
     41          1           0       -2.911541    2.562112    2.573360
     42          1           0       -1.235871    0.772663    2.690560
 ---------------------------------------------------------------------
 Rotational constants (GHZ):           0.4398296           0.2809206           0.2159563
 Standard basis: 6-31G(d,p) (6D, 7F)
 There are   410 symmetry adapted cartesian basis functions of A   symmetry.
 There are   410 symmetry adapted basis functions of A   symmetry.
   410 basis functions,   714 primitive gaussians,   410 cartesian basis functions
    72 alpha electrons       72 beta electrons
       nuclear repulsion energy      1550.4129734745 Hartrees.
 NAtoms=   42 NActive=   42 NUniq=   42 SFac= 1.00D+00 NAtFMM=   60 NAOKFM=F Big=F
 Integral buffers will be    131072 words long.
 Raffenetti 2 integral format.
 Two-electron integral symmetry is turned on.
 Nuclear repulsion after empirical dispersion term =     1550.3208065418 Hartrees.
 One-electron integrals computed using PRISM.
 NBasis=   410 RedAO= T EigKep=  3.68D-04  NBF=   410
 NBsUse=   410 1.00D-06 EigRej= -1.00D+00 NBFU=   410
 ExpMin= 1.61D-01 ExpMax= 4.17D+03 ExpMxC= 6.27D+02 IAcc=3 IRadAn=         5 AccDes= 0.00D+00
 Harris functional with IExCor=  402 and IRadAn=       5 diagonalized for initial guess.
 HarFok:  IExCor=  402 AccDes= 0.00D+00 IRadAn=         5 IDoV= 1 UseB2=F ITyADJ=14
 ICtDFT=  3500011 ScaDFX=  1.000000  1.000000  1.000000  1.000000
 FoFCou: FMM=F IPFlag=           0 FMFlag=      100000 FMFlg1=           0
         NFxFlg=           0 DoJE=T BraDBF=F KetDBF=T FulRan=T
         wScrn=  0.000000 ICntrl=       500 IOpCl=  0 I1Cent=   200000004 NGrid=           0
         NMat0=    1 NMatS0=      1 NMatT0=    0 NMatD0=    1 NMtDS0=    0 NMtDT0=    0
 Petite list used in FoFCou.
 Requested convergence on RMS density matrix=1.00D-08 within 128 cycles.
 Requested convergence on MAX density matrix=1.00D-06.
 Requested convergence on             energy=1.00D-06.
 No special actions if energy rises.
 Integral accuracy reduced to 1.0D-05 until final iterations.
 Initial convergence to 1.0D-05 achieved.  Increase integral accuracy.
 SCF Done:  E(RB3LYP) =  -808.771347878     A.U. after   14 cycles
            NFock= 14  Conv=0.72D-08     -V/T= 2.0098

 **********************************************************************

            Population analysis using the SCF Density.

 **********************************************************************

 Orbital symmetries:
       Occupied  (A) (A) (A) (A) (A) (A) (A) (A) (A) (A) (A) (A)
                 (A) (A) (A) (A) (A) (A) (A) (A) (A) (A) (A) (A)
                 (A) (A) (A) (A) (A) (A) (A) (A) (A) (A) (A) (A)
                 (A) (A) (A) (A) (A) (A) (A) (A) (A) (A) (A) (A)
                 (A) (A) (A) (A) (A) (A) (A) (A) (A) (A) (A) (A)
                 (A) (A) (A) (A) (A) (A) (A) (A) (A) (A) (A) (A)
       Virtual   (A) (A) (A) (A) (A) (A) (A) (A) (A) (A) (A) (A)
                 (A) (A) (A) (A) (A) (A) (A) (A) (A) (A) (A) (A)
                 (A) (A) (A) (A) (A) (A) (A) (A) (A) (A) (A) (A)
                 (A) (A) (A) (A) (A) (A) (A) (A) (A) (A) (A) (A)
                 (A) (A) (A) (A) (A) (A) (A) (A) (A) (A) (A) (A)
                 (A) (A) (A) (A) (A) (A) (A) (A) (A) (A) (A) (A)
                 (A) (A) (A) (A) (A) (A) (A) (A) (A) (A) (A) (A)
                 (A) (A) (A) (A) (A) (A) (A) (A) (A) (A) (A) (A)
                 (A) (A) (A) (A) (A) (A) (A) (A) (A) (A) (A) (A)
                 (A) (A) (A) (A) (A) (A) (A) (A) (A) (A) (A) (A)
                 (A) (A) (A) (A) (A) (A) (A) (A) (A) (A) (A) (A)
                 (A) (A) (A) (A) (A) (A) (A) (A) (A) (A) (A) (A)
                 (A) (A) (A) (A) (A) (A) (A) (A) (A) (A) (A) (A)
                 (A) (A) (A) (A) (A) (A) (A) (A) (A) (A) (A) (A)
                 (A) (A) (A) (A) (A) (A) (A) (A) (A) (A) (A) (A)
                 (A) (A) (A) (A) (A) (A) (A) (A) (A) (A) (A) (A)
                 (A) (A) (A) (A) (A) (A) (A) (A) (A) (A) (A) (A)
                 (A) (A) (A) (A) (A) (A) (A) (A) (A) (A) (A) (A)
                 (A) (A) (A) (A) (A) (A) (A) (A) (A) (A) (A) (A)
                 (A) (A) (A) (A) (A) (A) (A) (A) (A) (A) (A) (A)
                 (A) (A) (A) (A) (A) (A) (A) (A) (A) (A) (A) (A)
                 (A) (A) (A) (A) (A) (A) (A) (A) (A) (A) (A) (A)
                 (A) (A) (A) (A) (A) (A) (A) (A) (A) (A) (A) (A)
                 (A) (A) (A) (A) (A) (A) (A) (A) (A) (A) (A) (A)
                 (A) (A) (A) (A) (A) (A) (A) (A) (A) (A) (A) (A)
                 (A) (A) (A) (A) (A) (A) (A) (A) (A) (A) (A) (A)
                 (A) (A) (A) (A) (A) (A) (A) (A) (A) (A) (A) (A)
                 (A) (A) (A) (A) (A) (A) (A) (A) (A) (A) (A) (A)
                 (A) (A)
 The electronic state is 1-A.
 Alpha  occ. eigenvalues --  -14.34963 -14.31138 -10.22612 -10.21858 -10.20979
 Alpha  occ. eigenvalues --  -10.19988 -10.19557 -10.18790 -10.18616 -10.18292
 Alpha  occ. eigenvalues --  -10.18266 -10.18010 -10.18002 -10.17865 -10.17856
 Alpha  occ. eigenvalues --  -10.17709 -10.17666 -10.17662 -10.17521 -10.17048
 Alpha  occ. eigenvalues --   -0.94148  -0.89621  -0.84688  -0.83656  -0.79212
 Alpha  occ. eigenvalues --   -0.76486  -0.74792  -0.74596  -0.71714  -0.70024
 Alpha  occ. eigenvalues --   -0.67297  -0.64482  -0.63875  -0.60294  -0.59721
 Alpha  occ. eigenvalues --   -0.58107  -0.57448  -0.55721  -0.51272  -0.50005
 Alpha  occ. eigenvalues --   -0.47758  -0.47238  -0.46938  -0.46230  -0.45630
 Alpha  occ. eigenvalues --   -0.44889  -0.43891  -0.42856  -0.42365  -0.42259
 Alpha  occ. eigenvalues --   -0.40778  -0.40644  -0.39166  -0.38461  -0.38250
 Alpha  occ. eigenvalues --   -0.37492  -0.37088  -0.35994  -0.35365  -0.35055
 Alpha  occ. eigenvalues --   -0.34430  -0.33950  -0.33217  -0.32466  -0.32072
 Alpha  occ. eigenvalues --   -0.31938  -0.28298  -0.24035  -0.23567  -0.23150
 Alpha  occ. eigenvalues --   -0.21324  -0.18249
 Alpha virt. eigenvalues --    0.00091   0.00734   0.01045   0.02248   0.08670
 Alpha virt. eigenvalues --    0.09621   0.10066   0.10924   0.11335   0.12131
 Alpha virt. eigenvalues --    0.13750   0.14006   0.14417   0.14936   0.15681
 Alpha virt. eigenvalues --    0.15938   0.16698   0.16763   0.17268   0.17974
 Alpha virt. eigenvalues --    0.18164   0.18471   0.18861   0.19508   0.19851
 Alpha virt. eigenvalues --    0.20938   0.21014   0.22428   0.23027   0.23451
 Alpha virt. eigenvalues --    0.24018   0.25560   0.25803   0.26634   0.26946
 Alpha virt. eigenvalues --    0.28129   0.28726   0.30678   0.32502   0.33363
 Alpha virt. eigenvalues --    0.33736   0.35670   0.36339   0.37156   0.38027
 Alpha virt. eigenvalues --    0.41255   0.46462   0.50058   0.50677   0.50919
 Alpha virt. eigenvalues --    0.51362   0.52124   0.52432   0.53795   0.54117
 Alpha virt. eigenvalues --    0.54811   0.54912   0.55461   0.56505   0.57006
 Alpha virt. eigenvalues --    0.58047   0.58520   0.59252   0.59476   0.59858
 Alpha virt. eigenvalues --    0.60461   0.60992   0.61419   0.61798   0.62110
 Alpha virt. eigenvalues --    0.62364   0.62733   0.62887   0.63412   0.64657
 Alpha virt. eigenvalues --    0.65874   0.66558   0.67406   0.68693   0.69050
 Alpha virt. eigenvalues --    0.70594   0.71210   0.73241   0.74289   0.75190
 Alpha virt. eigenvalues --    0.75987   0.76341   0.77367   0.78397   0.79400
 Alpha virt. eigenvalues --    0.80737   0.81532   0.82095   0.82367   0.82924
 Alpha virt. eigenvalues --    0.83345   0.83693   0.84139   0.85460   0.86104
 Alpha virt. eigenvalues --    0.87091   0.88051   0.88690   0.88991   0.89870
 Alpha virt. eigenvalues --    0.90687   0.91254   0.91616   0.91887   0.92681
 Alpha virt. eigenvalues --    0.93959   0.94156   0.94959   0.96434   0.96651
 Alpha virt. eigenvalues --    0.97189   0.97999   0.99219   1.00445   1.02056
 Alpha virt. eigenvalues --    1.02461   1.04433   1.06233   1.07831   1.08371
 Alpha virt. eigenvalues --    1.09445   1.10549   1.11557   1.13075   1.14191
 Alpha virt. eigenvalues --    1.15662   1.18185   1.19474   1.20370   1.22748
 Alpha virt. eigenvalues --    1.23249   1.23984   1.25657   1.26839   1.29283
 Alpha virt. eigenvalues --    1.30976   1.32391   1.33475   1.35849   1.36217
 Alpha virt. eigenvalues --    1.36863   1.38778   1.40605   1.41436   1.42179
 Alpha virt. eigenvalues --    1.42766   1.42952   1.44342   1.44558   1.47120
 Alpha virt. eigenvalues --    1.49095   1.49921   1.51746   1.53443   1.57320
 Alpha virt. eigenvalues --    1.59602   1.62903   1.65431   1.69496   1.70528
 Alpha virt. eigenvalues --    1.71881   1.73309   1.74277   1.75697   1.77074
 Alpha virt. eigenvalues --    1.77534   1.78206   1.79423   1.80726   1.81534
 Alpha virt. eigenvalues --    1.83067   1.84188   1.84809   1.85796   1.87373
 Alpha virt. eigenvalues --    1.88132   1.88715   1.90047   1.90916   1.91577
 Alpha virt. eigenvalues --    1.92068   1.93703   1.94295   1.94964   1.95467
 Alpha virt. eigenvalues --    1.96067   1.98170   1.98642   1.99077   2.00215
 Alpha virt. eigenvalues --    2.01089   2.01624   2.02365   2.02557   2.04448
 Alpha virt. eigenvalues --    2.05033   2.05742   2.06145   2.07246   2.09256
 Alpha virt. eigenvalues --    2.09423   2.11124   2.12433   2.13933   2.14392
 Alpha virt. eigenvalues --    2.15705   2.16283   2.18522   2.19235   2.22304
 Alpha virt. eigenvalues --    2.22387   2.23448   2.25008   2.26258   2.27471
 Alpha virt. eigenvalues --    2.28167   2.28594   2.29411   2.30838   2.32283
 Alpha virt. eigenvalues --    2.32540   2.33725   2.34975   2.35595   2.37328
 Alpha virt. eigenvalues --    2.37728   2.39743   2.40822   2.41029   2.41326
 Alpha virt. eigenvalues --    2.42722   2.43525   2.44260   2.44624   2.45731
 Alpha virt. eigenvalues --    2.46844   2.47795   2.48550   2.49249   2.51081
 Alpha virt. eigenvalues --    2.51665   2.52870   2.54199   2.54766   2.56027
 Alpha virt. eigenvalues --    2.56876   2.57354   2.59025   2.59863   2.60099
 Alpha virt. eigenvalues --    2.62120   2.62341   2.63667   2.64412   2.66096
 Alpha virt. eigenvalues --    2.66917   2.68314   2.68770   2.69304   2.71495
 Alpha virt. eigenvalues --    2.71545   2.73155   2.74415   2.74871   2.75287
 Alpha virt. eigenvalues --    2.76579   2.78260   2.78846   2.79878   2.81172
 Alpha virt. eigenvalues --    2.82489   2.83687   2.85118   2.87551   2.88558
 Alpha virt. eigenvalues --    2.89162   2.92332   2.94450   2.95185   2.96366
 Alpha virt. eigenvalues --    2.97664   2.99586   3.01459   3.06295   3.07649
 Alpha virt. eigenvalues --    3.10375   3.14545   3.20294   3.22681   3.23624
 Alpha virt. eigenvalues --    3.26164   3.26785   3.29378   3.30571   3.31297
 Alpha virt. eigenvalues --    3.33438   3.34744   3.36090   3.37829   3.38222
 Alpha virt. eigenvalues --    3.40082   3.43104   3.45079   3.45525   3.46265
 Alpha virt. eigenvalues --    3.49825   3.50194   3.51694   3.55093   3.57081
 Alpha virt. eigenvalues --    3.61118   3.86238   3.87497   4.03910   4.14603
 Alpha virt. eigenvalues --    4.14891   4.17122   4.18167   4.21649   4.23661
 Alpha virt. eigenvalues --    4.25215   4.38038   4.41983   4.46143   4.46810
 Alpha virt. eigenvalues --    4.49493   4.49932   4.57053   4.63815   4.70097
 Alpha virt. eigenvalues --    4.73329   4.86012   4.89042
          Condensed to atoms (all electrons):
               1          2          3          4          5          6
     1  C    4.787881   0.323223  -0.051950   0.005516   0.000182   0.000003
     2  N    0.323223   6.793707   0.310326  -0.047716  -0.011594   0.000194
     3  C   -0.051950   0.310326   4.810485   0.368679  -0.032959  -0.000871
     4  C    0.005516  -0.047716   0.368679   5.002650   0.360423  -0.059686
     5  C    0.000182  -0.011594  -0.032959   0.360423   4.851224   0.305610
     6  N    0.000003   0.000194  -0.000871  -0.059686   0.305610   7.224027
     7  C   -0.000012   0.000217   0.000796   0.001313  -0.043202   0.269542
     8  C   -0.000035  -0.000044  -0.000741   0.000298   0.005026  -0.073434
     9  C   -0.000002   0.000019  -0.001162   0.000027  -0.000376  -0.007346
    10  C   -0.000000  -0.000000   0.000034   0.000031  -0.000003  -0.014548
    11  C   -0.000000  -0.000000  -0.000028   0.000109   0.004086  -0.062808
    12  C    0.000000  -0.000005  -0.000020  -0.003794  -0.036253   0.254766
    13  C    0.000000  -0.000002   0.000170  -0.004145  -0.004652  -0.076363
    14  C    0.000000  -0.000000   0.000005  -0.000092   0.000174   0.005548
    15  C   -0.000000   0.000000  -0.000000   0.000015  -0.000010  -0.000020
    16  C   -0.000000   0.000000  -0.000001   0.000000  -0.000091   0.006122
    17  C   -0.000011   0.000003  -0.000047  -0.000007  -0.000092   0.006968
    18  C   -0.000002   0.000001   0.000000  -0.000000   0.000014  -0.000022
    19  C    0.000002  -0.000007   0.000005   0.000008   0.000006   0.005955
    20  C    0.000005  -0.000143   0.000155   0.000495  -0.014742  -0.079266
    21  H    0.369642  -0.053451  -0.008095  -0.000012  -0.000017   0.000000
    22  H    0.394166  -0.039706  -0.004218   0.000214   0.000032  -0.000011
    23  H    0.385467  -0.032878   0.005513  -0.000298   0.000008  -0.000000
    24  H   -0.037955   0.340869  -0.040034  -0.003971  -0.000054   0.000007
    25  H   -0.005428  -0.057220   0.368962  -0.040455   0.004575  -0.000045
    26  H   -0.003605  -0.044044   0.385498  -0.032068  -0.008015   0.003733
    27  H    0.000139  -0.007401  -0.036404   0.363796  -0.031751   0.004515
    28  H   -0.000228   0.004086  -0.033730   0.373257  -0.034577  -0.010324
    29  H   -0.000413   0.020888  -0.011473  -0.042397   0.379831  -0.031858
    30  H    0.000003   0.000124   0.004268  -0.048567   0.373017  -0.036777
    31  H    0.000004  -0.000001   0.000315   0.000187  -0.000066   0.004012
    32  H   -0.000000  -0.000000   0.000022  -0.000002   0.000001   0.000119
    33  H    0.000000   0.000000   0.000000   0.000000   0.000007   0.000009
    34  H    0.000000   0.000000  -0.000001   0.000002  -0.000001   0.000642
    35  H    0.000000   0.000000   0.000020  -0.000818   0.003771  -0.011556
    36  H    0.000000  -0.000000   0.000000  -0.000008   0.000007  -0.000119
    37  H   -0.000000   0.000000  -0.000000   0.000000  -0.000000   0.000006
    38  H    0.000000   0.000000   0.000000  -0.000000   0.000002  -0.000080
    39  H   -0.000000  -0.000000   0.000000   0.000000   0.000002  -0.000112
    40  H   -0.000000  -0.000000   0.000000  -0.000000   0.000000   0.000005
    41  H    0.000000  -0.000000  -0.000000  -0.000000  -0.000007  -0.000132
    42  H   -0.000000  -0.000018   0.000004   0.000129   0.002915  -0.008136
               7          8          9         10         11         12
     1  C   -0.000012  -0.000035  -0.000002  -0.000000  -0.000000   0.000000
     2  N    0.000217  -0.000044   0.000019  -0.000000  -0.000000  -0.000005
     3  C    0.000796  -0.000741  -0.001162   0.000034  -0.000028  -0.000020
     4  C    0.001313   0.000298   0.000027   0.000031   0.000109  -0.003794
     5  C   -0.043202   0.005026  -0.000376  -0.000003   0.004086  -0.036253
     6  N    0.269542  -0.073434  -0.007346  -0.014548  -0.062808   0.254766
     7  C    4.700724   0.517248  -0.067818   0.000541  -0.004578  -0.013148
     8  C    0.517248   4.807444   0.365284  -0.042756  -0.004524  -0.006759
     9  C   -0.067818   0.365284   5.057818   0.336781  -0.032629  -0.001702
    10  C    0.000541  -0.042756   0.336781   5.053460   0.355579  -0.056621
    11  C   -0.004578  -0.004524  -0.032629   0.355579   4.814823   0.515389
    12  C   -0.013148  -0.006759  -0.001702  -0.056621   0.515389   4.683394
    13  C    0.003779  -0.000085  -0.000122   0.008182  -0.041224   0.483884
    14  C   -0.000088  -0.000002   0.000008  -0.000047  -0.037083  -0.019580
    15  C    0.000036  -0.000002  -0.000180   0.007126  -0.026718  -0.043215
    16  C   -0.000433   0.000196   0.003095  -0.062011   0.521186  -0.006205
    17  C   -0.008598   0.526119  -0.059028  -0.002486  -0.000012  -0.000083
    18  C   -0.043739  -0.028696   0.007488  -0.000134   0.000001   0.000021
    19  C   -0.019146  -0.035647  -0.000104   0.000041  -0.000003  -0.000134
    20  C    0.503316  -0.051384   0.008845  -0.000010  -0.000069   0.004771
    21  H    0.000001  -0.000000  -0.000000  -0.000000  -0.000000  -0.000000
    22  H    0.000007   0.000145  -0.000001   0.000000   0.000000   0.000000
    23  H   -0.000000   0.000000   0.000000   0.000000   0.000000   0.000000
    24  H   -0.000007   0.000000  -0.000001   0.000000   0.000000   0.000001
    25  H    0.000005   0.000040   0.000001   0.000002  -0.000001  -0.000025
    26  H    0.001194   0.001999   0.000283  -0.000060  -0.000061   0.000002
    27  H   -0.000136  -0.000014   0.000001  -0.000000  -0.000013  -0.000005
    28  H   -0.000169   0.000083  -0.000011  -0.000028   0.000674   0.009021
    29  H   -0.001123   0.000476  -0.000018  -0.000009  -0.000076   0.003304
    30  H    0.001211  -0.000360   0.000020  -0.000010  -0.000338  -0.006337
    31  H   -0.008613  -0.031002   0.363827  -0.040499  -0.004146   0.000079
    32  H    0.005830  -0.031151   0.363071  -0.028264   0.004055   0.000149
    33  H    0.000254   0.005074  -0.033455   0.364906  -0.033586   0.004014
    34  H   -0.000586  -0.003648  -0.041448   0.372026  -0.032764  -0.002199
    35  H   -0.000014   0.000000   0.000004  -0.000157   0.004738  -0.040294
    36  H    0.000000   0.000000  -0.000000   0.000007   0.000997   0.003758
    37  H   -0.000000   0.000000   0.000002  -0.000183   0.004018   0.001117
    38  H   -0.000002  -0.000005   0.000237  -0.011094  -0.044975   0.004487
    39  H    0.004673  -0.037669  -0.011560   0.000373   0.000004  -0.000005
    40  H    0.001122   0.003906  -0.000183   0.000001   0.000000  -0.000000
    41  H    0.003640   0.001022   0.000009  -0.000000   0.000000   0.000001
    42  H   -0.038655   0.005334  -0.000189   0.000002   0.000021   0.000087
              13         14         15         16         17         18
     1  C    0.000000   0.000000  -0.000000  -0.000000  -0.000011  -0.000002
     2  N   -0.000002  -0.000000   0.000000   0.000000   0.000003   0.000001
     3  C    0.000170   0.000005  -0.000000  -0.000001  -0.000047   0.000000
     4  C   -0.004145  -0.000092   0.000015   0.000000  -0.000007  -0.000000
     5  C   -0.004652   0.000174  -0.000010  -0.000091  -0.000092   0.000014
     6  N   -0.076363   0.005548  -0.000020   0.006122   0.006968  -0.000022
     7  C    0.003779  -0.000088   0.000036  -0.000433  -0.008598  -0.043739
     8  C   -0.000085  -0.000002  -0.000002   0.000196   0.526119  -0.028696
     9  C   -0.000122   0.000008  -0.000180   0.003095  -0.059028   0.007488
    10  C    0.008182  -0.000047   0.007126  -0.062011  -0.002486  -0.000134
    11  C   -0.041224  -0.037083  -0.026718   0.521186  -0.000012   0.000001
    12  C    0.483884  -0.019580  -0.043215  -0.006205  -0.000083   0.000021
    13  C    4.962955   0.533498  -0.032523  -0.055979   0.000003  -0.000000
    14  C    0.533498   4.812306   0.545544  -0.032083  -0.000000   0.000000
    15  C   -0.032523   0.545544   4.837187   0.515917  -0.000000   0.000000
    16  C   -0.055979  -0.032083   0.515917   4.923506   0.000003  -0.000000
    17  C    0.000003  -0.000000  -0.000000   0.000003   4.930652   0.512846
    18  C   -0.000000   0.000000   0.000000  -0.000000   0.512846   4.838346
    19  C   -0.000001   0.000000   0.000000  -0.000000  -0.031973   0.544002
    20  C   -0.000024  -0.000001   0.000000  -0.000009  -0.055182  -0.031038
    21  H    0.000000  -0.000000   0.000000  -0.000000   0.000000  -0.000000
    22  H   -0.000000   0.000000  -0.000000   0.000000   0.000064   0.000003
    23  H   -0.000000  -0.000000   0.000000   0.000000   0.000000  -0.000000
    24  H   -0.000000   0.000000  -0.000000  -0.000000  -0.000000   0.000000
    25  H   -0.000001  -0.000000   0.000000   0.000000   0.000001  -0.000000
    26  H   -0.000018   0.000001   0.000000   0.000001   0.000075   0.000009
    27  H   -0.000198  -0.000007   0.000001   0.000000   0.000000   0.000000
    28  H    0.004089  -0.000216  -0.000041  -0.000042   0.000000  -0.000000
    29  H    0.000157  -0.000011   0.000000   0.000002  -0.000073  -0.000012
    30  H    0.000066   0.000177  -0.000007   0.000008   0.000005   0.000001
    31  H   -0.000136  -0.000015  -0.000006   0.000506   0.002828  -0.000285
    32  H    0.000003   0.000000   0.000003  -0.000154  -0.007797   0.000249
    33  H   -0.000161   0.000008   0.000456  -0.007733  -0.000045   0.000004
    34  H   -0.000262   0.000056  -0.000260  -0.002448   0.001833  -0.000078
    35  H    0.361005  -0.041169   0.005375   0.000882   0.000000   0.000000
    36  H   -0.037328   0.364802  -0.041789   0.004749   0.000000  -0.000000
    37  H    0.004964  -0.042457   0.363310  -0.038155   0.000000  -0.000000
    38  H    0.000515   0.005425  -0.044575   0.368206  -0.000000  -0.000000
    39  H   -0.000000   0.000000  -0.000000  -0.000000   0.362784  -0.045419
    40  H    0.000000  -0.000000  -0.000000   0.000000  -0.037489   0.364247
    41  H   -0.000000   0.000000  -0.000000   0.000000   0.004572  -0.041732
    42  H   -0.000007   0.000001  -0.000000   0.000000   0.000769   0.004983
              19         20         21         22         23         24
     1  C    0.000002   0.000005   0.369642   0.394166   0.385467  -0.037955
     2  N   -0.000007  -0.000143  -0.053451  -0.039706  -0.032878   0.340869
     3  C    0.000005   0.000155  -0.008095  -0.004218   0.005513  -0.040034
     4  C    0.000008   0.000495  -0.000012   0.000214  -0.000298  -0.003971
     5  C    0.000006  -0.014742  -0.000017   0.000032   0.000008  -0.000054
     6  N    0.005955  -0.079266   0.000000  -0.000011  -0.000000   0.000007
     7  C   -0.019146   0.503316   0.000001   0.000007  -0.000000  -0.000007
     8  C   -0.035647  -0.051384  -0.000000   0.000145   0.000000   0.000000
     9  C   -0.000104   0.008845  -0.000000  -0.000001   0.000000  -0.000001
    10  C    0.000041  -0.000010  -0.000000   0.000000   0.000000   0.000000
    11  C   -0.000003  -0.000069  -0.000000   0.000000   0.000000   0.000000
    12  C   -0.000134   0.004771  -0.000000   0.000000   0.000000   0.000001
    13  C   -0.000001  -0.000024   0.000000  -0.000000  -0.000000  -0.000000
    14  C    0.000000  -0.000001  -0.000000   0.000000  -0.000000   0.000000
    15  C    0.000000   0.000000   0.000000  -0.000000   0.000000  -0.000000
    16  C   -0.000000  -0.000009  -0.000000   0.000000   0.000000  -0.000000
    17  C   -0.031973  -0.055182   0.000000   0.000064   0.000000  -0.000000
    18  C    0.544002  -0.031038  -0.000000   0.000003  -0.000000   0.000000
    19  C    4.824443   0.521042  -0.000000  -0.000000  -0.000000   0.000000
    20  C    0.521042   4.946086  -0.000000  -0.000001   0.000000   0.000001
    21  H   -0.000000  -0.000000   0.694931  -0.048074  -0.041836  -0.004635
    22  H   -0.000000  -0.000001  -0.048074   0.595818  -0.027292   0.005772
    23  H   -0.000000   0.000000  -0.041836  -0.027292   0.613358  -0.003301
    24  H    0.000000   0.000001  -0.004635   0.005772  -0.003301   0.503234
    25  H   -0.000000  -0.000004   0.014621  -0.002012  -0.000271  -0.005667
    26  H   -0.000047  -0.000010  -0.002622   0.006978   0.000168   0.006701
    27  H   -0.000000  -0.000017  -0.000040   0.000008   0.000004   0.006522
    28  H    0.000001  -0.000029   0.000028  -0.000004   0.000004  -0.000172
    29  H   -0.000004   0.002328   0.000062  -0.000125  -0.000003  -0.000581
    30  H   -0.000028   0.001366   0.000000  -0.000001  -0.000000  -0.000055
    31  H    0.000035  -0.000147   0.000000  -0.000018  -0.000000   0.000001
    32  H    0.000005  -0.000193  -0.000000   0.000001  -0.000000   0.000000
    33  H   -0.000001   0.000009   0.000000  -0.000000   0.000000   0.000000
    34  H   -0.000010  -0.000261   0.000000  -0.000000  -0.000000  -0.000000
    35  H   -0.000000   0.000015   0.000000  -0.000000   0.000000  -0.000000
    36  H    0.000000   0.000000  -0.000000  -0.000000  -0.000000  -0.000000
    37  H   -0.000000   0.000000   0.000000  -0.000000  -0.000000  -0.000000
    38  H    0.000000  -0.000000   0.000000  -0.000000  -0.000000  -0.000000
    39  H    0.005018   0.000531  -0.000000   0.000001  -0.000000   0.000000
    40  H   -0.041918   0.004635  -0.000000  -0.000000   0.000000  -0.000000
    41  H    0.364148  -0.035151  -0.000000  -0.000000   0.000000   0.000000
    42  H   -0.041236   0.359024  -0.000000   0.000000  -0.000000   0.000000
              25         26         27         28         29         30
     1  C   -0.005428  -0.003605   0.000139  -0.000228  -0.000413   0.000003
     2  N   -0.057220  -0.044044  -0.007401   0.004086   0.020888   0.000124
     3  C    0.368962   0.385498  -0.036404  -0.033730  -0.011473   0.004268
     4  C   -0.040455  -0.032068   0.363796   0.373257  -0.042397  -0.048567
     5  C    0.004575  -0.008015  -0.031751  -0.034577   0.379831   0.373017
     6  N   -0.000045   0.003733   0.004515  -0.010324  -0.031858  -0.036777
     7  C    0.000005   0.001194  -0.000136  -0.000169  -0.001123   0.001211
     8  C    0.000040   0.001999  -0.000014   0.000083   0.000476  -0.000360
     9  C    0.000001   0.000283   0.000001  -0.000011  -0.000018   0.000020
    10  C    0.000002  -0.000060  -0.000000  -0.000028  -0.000009  -0.000010
    11  C   -0.000001  -0.000061  -0.000013   0.000674  -0.000076  -0.000338
    12  C   -0.000025   0.000002  -0.000005   0.009021   0.003304  -0.006337
    13  C   -0.000001  -0.000018  -0.000198   0.004089   0.000157   0.000066
    14  C   -0.000000   0.000001  -0.000007  -0.000216  -0.000011   0.000177
    15  C    0.000000   0.000000   0.000001  -0.000041   0.000000  -0.000007
    16  C    0.000000   0.000001   0.000000  -0.000042   0.000002   0.000008
    17  C    0.000001   0.000075   0.000000   0.000000  -0.000073   0.000005
    18  C   -0.000000   0.000009   0.000000  -0.000000  -0.000012   0.000001
    19  C   -0.000000  -0.000047  -0.000000   0.000001  -0.000004  -0.000028
    20  C   -0.000004  -0.000010  -0.000017  -0.000029   0.002328   0.001366
    21  H    0.014621  -0.002622  -0.000040   0.000028   0.000062   0.000000
    22  H   -0.002012   0.006978   0.000008  -0.000004  -0.000125  -0.000001
    23  H   -0.000271   0.000168   0.000004   0.000004  -0.000003  -0.000000
    24  H   -0.005667   0.006701   0.006522  -0.000172  -0.000581  -0.000055
    25  H    0.710533  -0.054551  -0.004477  -0.000829   0.000867  -0.000164
    26  H   -0.054551   0.618594   0.005826  -0.002499  -0.001678   0.000175
    27  H   -0.004477   0.005826   0.651958  -0.033821  -0.000286  -0.001820
    28  H   -0.000829  -0.002499  -0.033821   0.613317   0.005725  -0.002145
    29  H    0.000867  -0.001678  -0.000286   0.005725   0.577724  -0.039706
    30  H   -0.000164   0.000175  -0.001820  -0.002145  -0.039706   0.657162
    31  H    0.000029   0.002828   0.000007   0.000226   0.000039   0.000001
    32  H   -0.000002  -0.000004   0.000000  -0.000001   0.000000   0.000000
    33  H   -0.000000   0.000001   0.000000  -0.000002  -0.000000   0.000000
    34  H    0.000000   0.000000  -0.000000   0.000001   0.000001  -0.000001
    35  H    0.000001  -0.000001   0.000128  -0.000215  -0.000033   0.001396
    36  H   -0.000000   0.000000   0.000000  -0.000002  -0.000000   0.000014
    37  H   -0.000000   0.000000  -0.000000  -0.000000  -0.000000   0.000000
    38  H    0.000000  -0.000000   0.000000  -0.000001  -0.000000   0.000000
    39  H    0.000000  -0.000005  -0.000000  -0.000000   0.000001  -0.000000
    40  H   -0.000000  -0.000000  -0.000000   0.000000  -0.000000   0.000000
    41  H   -0.000000   0.000000   0.000000  -0.000000   0.000012   0.000000
    42  H   -0.000000   0.000007   0.000001  -0.000002   0.000682  -0.000174
              31         32         33         34         35         36
     1  C    0.000004  -0.000000   0.000000   0.000000   0.000000   0.000000
     2  N   -0.000001  -0.000000   0.000000   0.000000   0.000000  -0.000000
     3  C    0.000315   0.000022   0.000000  -0.000001   0.000020   0.000000
     4  C    0.000187  -0.000002   0.000000   0.000002  -0.000818  -0.000008
     5  C   -0.000066   0.000001   0.000007  -0.000001   0.003771   0.000007
     6  N    0.004012   0.000119   0.000009   0.000642  -0.011556  -0.000119
     7  C   -0.008613   0.005830   0.000254  -0.000586  -0.000014   0.000000
     8  C   -0.031002  -0.031151   0.005074  -0.003648   0.000000   0.000000
     9  C    0.363827   0.363071  -0.033455  -0.041448   0.000004  -0.000000
    10  C   -0.040499  -0.028264   0.364906   0.372026  -0.000157   0.000007
    11  C   -0.004146   0.004055  -0.033586  -0.032764   0.004738   0.000997
    12  C    0.000079   0.000149   0.004014  -0.002199  -0.040294   0.003758
    13  C   -0.000136   0.000003  -0.000161  -0.000262   0.361005  -0.037328
    14  C   -0.000015   0.000000   0.000008   0.000056  -0.041169   0.364802
    15  C   -0.000006   0.000003   0.000456  -0.000260   0.005375  -0.041789
    16  C    0.000506  -0.000154  -0.007733  -0.002448   0.000882   0.004749
    17  C    0.002828  -0.007797  -0.000045   0.001833   0.000000   0.000000
    18  C   -0.000285   0.000249   0.000004  -0.000078   0.000000  -0.000000
    19  C    0.000035   0.000005  -0.000001  -0.000010  -0.000000   0.000000
    20  C   -0.000147  -0.000193   0.000009  -0.000261   0.000015   0.000000
    21  H    0.000000  -0.000000   0.000000   0.000000   0.000000  -0.000000
    22  H   -0.000018   0.000001  -0.000000  -0.000000  -0.000000  -0.000000
    23  H   -0.000000  -0.000000   0.000000  -0.000000   0.000000  -0.000000
    24  H    0.000001   0.000000   0.000000  -0.000000  -0.000000  -0.000000
    25  H    0.000029  -0.000002  -0.000000   0.000000   0.000001  -0.000000
    26  H    0.002828  -0.000004   0.000001   0.000000  -0.000001   0.000000
    27  H    0.000007   0.000000   0.000000  -0.000000   0.000128   0.000000
    28  H    0.000226  -0.000001  -0.000002   0.000001  -0.000215  -0.000002
    29  H    0.000039   0.000000  -0.000000   0.000001  -0.000033  -0.000000
    30  H    0.000001   0.000000   0.000000  -0.000001   0.001396   0.000014
    31  H    0.630461  -0.037031  -0.001464   0.006042   0.000004   0.000000
    32  H   -0.037031   0.638201  -0.006703  -0.001850  -0.000000   0.000000
    33  H   -0.001464  -0.006703   0.640539  -0.036971   0.000003  -0.000000
    34  H    0.006042  -0.001850  -0.036971   0.619388   0.000002  -0.000000
    35  H    0.000004  -0.000000   0.000003   0.000002   0.647483  -0.007352
    36  H    0.000000   0.000000  -0.000000  -0.000000  -0.007352   0.639601
    37  H    0.000000  -0.000000  -0.000015   0.000003  -0.000243  -0.006054
    38  H    0.000017  -0.000017   0.005412   0.001160   0.000017  -0.000243
    39  H    0.000200   0.006851  -0.000035   0.000156  -0.000000  -0.000000
    40  H    0.000003  -0.000013  -0.000000   0.000002   0.000000   0.000000
    41  H   -0.000000  -0.000000   0.000000  -0.000000  -0.000000  -0.000000
    42  H   -0.000001   0.000003  -0.000000   0.000002  -0.000004  -0.000000
              37         38         39         40         41         42
     1  C   -0.000000   0.000000  -0.000000  -0.000000   0.000000  -0.000000
     2  N    0.000000   0.000000  -0.000000  -0.000000  -0.000000  -0.000018
     3  C   -0.000000   0.000000   0.000000   0.000000  -0.000000   0.000004
     4  C    0.000000  -0.000000   0.000000  -0.000000  -0.000000   0.000129
     5  C   -0.000000   0.000002   0.000002   0.000000  -0.000007   0.002915
     6  N    0.000006  -0.000080  -0.000112   0.000005  -0.000132  -0.008136
     7  C   -0.000000  -0.000002   0.004673   0.001122   0.003640  -0.038655
     8  C    0.000000  -0.000005  -0.037669   0.003906   0.001022   0.005334
     9  C    0.000002   0.000237  -0.011560  -0.000183   0.000009  -0.000189
    10  C   -0.000183  -0.011094   0.000373   0.000001  -0.000000   0.000002
    11  C    0.004018  -0.044975   0.000004   0.000000   0.000000   0.000021
    12  C    0.001117   0.004487  -0.000005  -0.000000   0.000001   0.000087
    13  C    0.004964   0.000515  -0.000000   0.000000  -0.000000  -0.000007
    14  C   -0.042457   0.005425   0.000000  -0.000000   0.000000   0.000001
    15  C    0.363310  -0.044575  -0.000000  -0.000000  -0.000000  -0.000000
    16  C   -0.038155   0.368206  -0.000000   0.000000   0.000000   0.000000
    17  C    0.000000  -0.000000   0.362784  -0.037489   0.004572   0.000769
    18  C   -0.000000  -0.000000  -0.045419   0.364247  -0.041732   0.004983
    19  C   -0.000000   0.000000   0.005018  -0.041918   0.364148  -0.041236
    20  C    0.000000  -0.000000   0.000531   0.004635  -0.035151   0.359024
    21  H    0.000000   0.000000  -0.000000  -0.000000  -0.000000  -0.000000
    22  H   -0.000000  -0.000000   0.000001  -0.000000  -0.000000   0.000000
    23  H   -0.000000  -0.000000  -0.000000   0.000000   0.000000  -0.000000
    24  H   -0.000000  -0.000000   0.000000  -0.000000   0.000000   0.000000
    25  H   -0.000000   0.000000   0.000000  -0.000000  -0.000000  -0.000000
    26  H    0.000000  -0.000000  -0.000005  -0.000000   0.000000   0.000007
    27  H   -0.000000   0.000000  -0.000000  -0.000000   0.000000   0.000001
    28  H   -0.000000  -0.000001  -0.000000   0.000000  -0.000000  -0.000002
[...]
    34  H   -0.000602   0.000583  -0.000824  -0.011453  -0.000599  -0.000213
    35  H    0.411190  -0.015277   0.001746   0.001378  -0.000026   0.000008
    36  H   -0.029240   0.399672  -0.032459   0.003945   0.000000   0.000000
    37  H    0.007354  -0.038527   0.416338  -0.040548  -0.000000   0.000000
    38  H   -0.000438   0.005111  -0.035298   0.403213   0.000002  -0.000000
    39  H   -0.000004   0.000001  -0.000001   0.000009   0.402269  -0.037241
    40  H    0.000000   0.000000  -0.000000  -0.000000  -0.037639   0.411357
    41  H   -0.000000  -0.000001   0.000000  -0.000000   0.002896  -0.032783
    42  H    0.000895  -0.000100   0.000008  -0.000048   0.000084   0.003131
              19         20         21         22         23         24
     1  C    0.000029  -0.000110   0.426384   0.414217   0.404838  -0.039415
     2  N    0.000105  -0.001319  -0.044745  -0.055672  -0.033613   0.341831
     3  C   -0.000287   0.000505  -0.013281  -0.003894   0.011320  -0.045800
     4  C    0.000681   0.001749   0.000509   0.000442  -0.000503   0.003691
     5  C   -0.001821   0.000382  -0.000320  -0.000074   0.000225  -0.003597
     6  N    0.015093  -0.070397  -0.000001   0.000067  -0.000044   0.000069
     7  C   -0.020084   0.433969  -0.000097   0.001178   0.000035   0.000405
     8  C   -0.088778   0.020092   0.000171  -0.000283  -0.000210  -0.000362
     9  C   -0.008913   0.021378  -0.000313  -0.003494   0.000541  -0.000160
    10  C    0.000791   0.001397   0.000031  -0.000172  -0.000021  -0.000001
    11  C   -0.000286   0.005257   0.000026  -0.000014  -0.000000  -0.000065
    12  C    0.001416  -0.012945   0.000043  -0.000215  -0.000006  -0.000118
    13  C   -0.000861   0.006636  -0.000004  -0.000001   0.000000   0.000030
    14  C    0.000019  -0.000587  -0.000001   0.000008   0.000000   0.000008
    15  C    0.000014   0.000165   0.000001  -0.000007  -0.000000  -0.000002
    16  C    0.000013  -0.001195  -0.000004   0.000053  -0.000000   0.000007
    17  C    0.004627  -0.123417  -0.000002   0.000128  -0.000016   0.000024
    18  C    0.490465   0.001082   0.000001  -0.000041   0.000002  -0.000011
    19  C    4.993876   0.410222  -0.000001   0.000026  -0.000002   0.000024
    20  C    0.410222   5.167384  -0.000002  -0.000083   0.000024  -0.000082
    21  H   -0.000001  -0.000002   0.596938  -0.057730  -0.032813  -0.009958
    22  H    0.000026  -0.000083  -0.057730   0.568083  -0.017223   0.010761
    23  H   -0.000002   0.000024  -0.032813  -0.017223   0.532466  -0.006796
    24  H    0.000024  -0.000082  -0.009958   0.010761  -0.006796   0.534329
    25  H    0.000001  -0.000015   0.013632  -0.004101  -0.000190  -0.008384
    26  H    0.000025  -0.000164  -0.006685   0.009696   0.000385   0.011683
    27  H   -0.000015  -0.000178  -0.000197   0.000067   0.000029   0.003405
    28  H    0.000005  -0.000053   0.000052  -0.000037   0.000015   0.000075
    29  H    0.002278  -0.017279   0.000313  -0.000436  -0.000078  -0.001288
    30  H   -0.002084  -0.004802   0.000008  -0.000018  -0.000006  -0.000362
    31  H    0.000052   0.001784   0.000996  -0.003126  -0.000414  -0.000323
    32  H    0.000089  -0.000553  -0.000002   0.000067   0.000001   0.000004
    33  H   -0.000017   0.000066  -0.000005   0.000085   0.000001   0.000001
    34  H    0.000090  -0.000548   0.000000  -0.000007   0.000000  -0.000000
    35  H   -0.000105   0.000330  -0.000000   0.000000  -0.000000  -0.000002
    36  H   -0.000000  -0.000006   0.000000   0.000000  -0.000000   0.000000
    37  H    0.000000   0.000000   0.000000  -0.000000  -0.000000  -0.000000
    38  H   -0.000000   0.000004  -0.000000   0.000001   0.000000   0.000000
    39  H    0.005399  -0.001980  -0.000000   0.000022   0.000000   0.000001
    40  H   -0.035206   0.005416   0.000000  -0.000000  -0.000000  -0.000000
    41  H    0.399963  -0.027202  -0.000000   0.000000  -0.000000   0.000000
    42  H   -0.025687   0.402517   0.000000  -0.000003   0.000000  -0.000018
              25         26         27         28         29         30
     1  C   -0.006732  -0.010423  -0.000025  -0.000752  -0.001060   0.000065
     2  N   -0.049162  -0.065646  -0.008790   0.006124   0.027471   0.000153
     3  C    0.440598   0.425071  -0.021229  -0.061679  -0.021072   0.017176
     4  C   -0.059833  -0.017379   0.429764   0.457670   0.007348  -0.092990
     5  C    0.015041  -0.016327  -0.070817  -0.034145   0.405184   0.464194
     6  N    0.000236  -0.005202   0.007508  -0.001539  -0.031375  -0.055118
     7  C   -0.000359   0.001743   0.000562  -0.001291  -0.014258   0.008999
     8  C    0.000317  -0.003771  -0.000249   0.000192   0.007435  -0.000683
     9  C   -0.000524   0.001155   0.000058  -0.000022  -0.002024   0.000651
    10  C   -0.000027  -0.000920  -0.000021  -0.000028   0.000095  -0.000266
    11  C    0.000721  -0.009917  -0.000323  -0.001085   0.000147  -0.001108
    12  C   -0.000590   0.015343  -0.001461  -0.007107   0.009004  -0.009379
    13  C   -0.000405   0.000733   0.000983  -0.000159   0.001602  -0.011816
    14  C   -0.000114   0.001013  -0.000013   0.002451   0.000124  -0.002589
    15  C    0.000043  -0.000800   0.000006  -0.000013  -0.000016   0.000343
    16  C   -0.000060   0.001529   0.000006   0.000225   0.000051  -0.000308
    17  C    0.000007  -0.000089  -0.000006   0.000004   0.001055  -0.000197
    18  C   -0.000000  -0.000008   0.000002  -0.000001  -0.000642   0.000183
    19  C    0.000001   0.000025  -0.000015   0.000005   0.002278  -0.002084
    20  C   -0.000015  -0.000164  -0.000178  -0.000053  -0.017279  -0.004802
    21  H    0.013632  -0.006685  -0.000197   0.000052   0.000313   0.000008
    22  H   -0.004101   0.009696   0.000067  -0.000037  -0.000436  -0.000018
    23  H   -0.000190   0.000385   0.000029   0.000015  -0.000078  -0.000006
    24  H   -0.008384   0.011683   0.003405   0.000075  -0.001288  -0.000362
    25  H    0.583189  -0.053334  -0.006823  -0.001896   0.001137   0.000111
    26  H   -0.053334   0.548816   0.006459  -0.000963  -0.001029  -0.001071
    27  H   -0.006823   0.006459   0.528458  -0.015352  -0.004260   0.000051
    28  H   -0.001896  -0.000963  -0.015352   0.485514   0.003709  -0.002981
    29  H    0.001137  -0.001029  -0.004260   0.003709   0.476412  -0.029287
    30  H    0.000111  -0.001071   0.000051  -0.002981  -0.029287   0.547640
    31  H    0.001486  -0.006957  -0.000088  -0.000016   0.001067  -0.000054
    32  H    0.000001   0.000204   0.000002  -0.000001  -0.000017   0.000009
    33  H   -0.000002  -0.000108   0.000002   0.000011  -0.000007   0.000005
    34  H    0.000000   0.000063  -0.000000  -0.000004   0.000007  -0.000009
    35  H   -0.000082   0.000137   0.000551  -0.002760   0.000082   0.002781
    36  H    0.000001  -0.000001   0.000000   0.000069  -0.000001   0.000000
    37  H    0.000000  -0.000005  -0.000000  -0.000001  -0.000000   0.000002
    38  H   -0.000001   0.000055   0.000000  -0.000000   0.000000  -0.000003
    39  H   -0.000000   0.000004   0.000000   0.000000   0.000005  -0.000003
    40  H   -0.000000   0.000000  -0.000000   0.000000  -0.000004   0.000001
    41  H    0.000000   0.000000   0.000000  -0.000000   0.000001   0.000026
    42  H    0.000004  -0.000036   0.000002  -0.000008  -0.003335   0.001013
              31         32         33         34         35         36
     1  C   -0.000135   0.000031  -0.000029  -0.000006   0.000003  -0.000000
     2  N    0.010668  -0.000040  -0.000030   0.000004  -0.000092  -0.000000
     3  C   -0.001032   0.000232   0.000346  -0.000113   0.001905   0.000008
     4  C   -0.000343  -0.000050  -0.000178   0.000077  -0.015226   0.000002
     5  C    0.001292  -0.000052   0.000182  -0.000111   0.016754   0.000116
     6  N   -0.009610   0.001922   0.001740  -0.002373  -0.006696  -0.000246
     7  C   -0.010135   0.008859  -0.000778   0.004345   0.000834   0.000055
     8  C   -0.077725  -0.057528   0.014235  -0.012529  -0.000283  -0.000000
     9  C    0.447687   0.460423  -0.049164  -0.034765   0.000154  -0.000007
    10  C   -0.059990  -0.071340   0.435078   0.446046  -0.000242   0.000062
    11  C   -0.008172   0.014269  -0.062956  -0.064814  -0.002089   0.000870
    12  C    0.005820  -0.001639   0.005722   0.004353  -0.047723   0.006995
    13  C   -0.000120   0.000004  -0.000427  -0.000602   0.411190  -0.029240
    14  C    0.000117   0.000006   0.000113   0.000583  -0.015277   0.399672
    15  C   -0.000219  -0.000030   0.000768  -0.000824   0.001746  -0.032459
    16  C    0.001431  -0.000242  -0.004893  -0.011453   0.001378   0.003945
    17  C   -0.003330   0.000598   0.000336  -0.000599  -0.000026   0.000000
    18  C    0.000019   0.000349   0.000017  -0.000213   0.000008   0.000000
    19  C    0.000052   0.000089  -0.000017   0.000090  -0.000105  -0.000000
    20  C    0.001784  -0.000553   0.000066  -0.000548   0.000330  -0.000006
    21  H    0.000996  -0.000002  -0.000005   0.000000  -0.000000   0.000000
    22  H   -0.003126   0.000067   0.000085  -0.000007   0.000000   0.000000
    23  H   -0.000414   0.000001   0.000001   0.000000  -0.000000  -0.000000
    24  H   -0.000323   0.000004   0.000001  -0.000000  -0.000002   0.000000
    25  H    0.001486   0.000001  -0.000002   0.000000  -0.000082   0.000001
    26  H   -0.006957   0.000204  -0.000108   0.000063   0.000137  -0.000001
    27  H   -0.000088   0.000002   0.000002  -0.000000   0.000551   0.000000
    28  H   -0.000016  -0.000001   0.000011  -0.000004  -0.002760   0.000069
    29  H    0.001067  -0.000017  -0.000007   0.000007   0.000082  -0.000001
    30  H   -0.000054   0.000009   0.000005  -0.000009   0.002781   0.000000
    31  H    0.589477  -0.018097  -0.000939   0.007728  -0.000016   0.000001
    32  H   -0.018097   0.515304  -0.006190  -0.001185   0.000000   0.000000
    33  H   -0.000939  -0.006190   0.542851  -0.031226   0.000013  -0.000001
    34  H    0.007728  -0.001185  -0.031226   0.525247   0.000011   0.000001
    35  H   -0.000016   0.000000   0.000013   0.000011   0.489838  -0.003314
    36  H    0.000001   0.000000  -0.000001   0.000001  -0.003314   0.518125
    37  H   -0.000002  -0.000000  -0.000040  -0.000027  -0.000272  -0.003735
    38  H    0.000002  -0.000026   0.000184   0.000150   0.000061  -0.000358
    39  H   -0.000053   0.003012  -0.000075   0.000483  -0.000000  -0.000000
    40  H    0.000011  -0.000044  -0.000001   0.000002   0.000000   0.000000
    41  H   -0.000006  -0.000000   0.000000  -0.000003   0.000001  -0.000000
    42  H    0.000012   0.000016  -0.000001  -0.000006   0.000088  -0.000000
              37         38         39         40         41         42
     1  C   -0.000000  -0.000000   0.000015  -0.000000   0.000000  -0.000004
     2  N    0.000000  -0.000000  -0.000009  -0.000001  -0.000000   0.000107
     3  C   -0.000001   0.000003  -0.000001   0.000000   0.000002   0.000029
     4  C    0.000005   0.000001   0.000005  -0.000000  -0.000005  -0.000015
     5  C   -0.000007   0.000032   0.000044  -0.000003   0.000053   0.002457
     6  N    0.000025  -0.000415  -0.000344   0.000021  -0.000317  -0.004424
     7  C   -0.000009   0.000039   0.017802   0.000133   0.004800  -0.035834
     8  C   -0.000005  -0.000090  -0.040361   0.006455   0.001763   0.006937
     9  C    0.000026   0.000972  -0.007283  -0.000169   0.000117  -0.000084
    10  C   -0.000207  -0.001987  -0.000995   0.000027  -0.000012   0.000003
    11  C    0.007886  -0.047605   0.000188   0.000006   0.000007   0.000091
    12  C   -0.001187   0.015609  -0.000010  -0.000012   0.000014  -0.001248
    13  C    0.007354  -0.000438  -0.000004   0.000000  -0.000000   0.000895
    14  C   -0.038527   0.005111   0.000001   0.000000  -0.000001  -0.000100
    15  C    0.416338  -0.035298  -0.000001  -0.000000   0.000000   0.000008
    16  C   -0.040548   0.403213   0.000009  -0.000000  -0.000000  -0.000048
    17  C   -0.000000   0.000002   0.402269  -0.037639   0.002896   0.000084
    18  C    0.000000  -0.000000  -0.037241   0.411357  -0.032783   0.003131
    19  C    0.000000  -0.000000   0.005399  -0.035206   0.399963  -0.025687
    20  C    0.000000   0.000004  -0.001980   0.005416  -0.027202   0.402517
    21  H    0.000000  -0.000000  -0.000000   0.000000  -0.000000   0.000000
    22  H   -0.000000   0.000001   0.000022  -0.000000   0.000000  -0.000003
    23  H   -0.000000   0.000000   0.000000  -0.000000  -0.000000   0.000000
    24  H   -0.000000   0.000000   0.000001  -0.000000   0.000000  -0.000018
    25  H    0.000000  -0.000001  -0.000000  -0.000000   0.000000   0.000004
    26  H   -0.000005   0.000055   0.000004   0.000000   0.000000  -0.000036
    27  H   -0.000000   0.000000   0.000000  -0.000000   0.000000   0.000002
    28  H   -0.000001  -0.000000   0.000000   0.000000  -0.000000  -0.000008
    29  H   -0.000000   0.000000   0.000005  -0.000004   0.000001  -0.003335
    30  H    0.000002  -0.000003  -0.000003   0.000001   0.000026   0.001013
    31  H   -0.000002   0.000002  -0.000053   0.000011  -0.000006   0.000012
    32  H   -0.000000  -0.000026   0.003012  -0.000044  -0.000000   0.000016
    33  H   -0.000040   0.000184  -0.000075  -0.000001   0.000000  -0.000001
    34  H   -0.000027   0.000150   0.000483   0.000002  -0.000003  -0.000006
    35  H   -0.000272   0.000061  -0.000000   0.000000   0.000001   0.000088
    36  H   -0.003735  -0.000358  -0.000000   0.000000  -0.000000  -0.000000
    37  H    0.519222  -0.004398  -0.000000  -0.000000   0.000000   0.000000
    38  H   -0.004398   0.526176   0.000000  -0.000000  -0.000000  -0.000000
    39  H   -0.000000   0.000000   0.529704  -0.003828  -0.000364   0.000050
    40  H   -0.000000  -0.000000  -0.003828   0.518786  -0.003806  -0.000273
    41  H    0.000000  -0.000000  -0.000364  -0.003806   0.518661  -0.003325
    42  H    0.000000  -0.000000   0.000050  -0.000273  -0.003325   0.501099
 Mulliken charges:
               1
     1  C   -0.322985
     2  N   -0.383205
     3  C   -0.205190
     4  C   -0.337810
     5  C   -0.305368
     6  N   -0.129421
     7  C    0.128027
     8  C    0.088929
     9  C   -0.384778
    10  C   -0.325245
    11  C    0.053442
    12  C    0.136652
    13  C   -0.247950
    14  C   -0.144837
    15  C   -0.169868
    16  C   -0.170371
    17  C   -0.141464
    18  C   -0.157462
    19  C   -0.141161
    20  C   -0.217444
    21  H    0.127058
    22  H    0.141732
    23  H    0.142052
    24  H    0.210397
    25  H    0.136108
    26  H    0.176723
    27  H    0.151931
    28  H    0.175779
    29  H    0.182941
    30  H    0.171723
    31  H    0.131252
    32  H    0.151636
    33  H    0.155308
    34  H    0.172228
    35  H    0.166344
    36  H    0.139444
    37  H    0.138113
    38  H    0.139006
    39  H    0.133539
    40  H    0.138770
    41  H    0.139521
    42  H    0.155905
 Sum of Mulliken charges =  -0.00000
 Mulliken charges with hydrogens summed into heavy atoms:
               1
     1  C    0.087857
     2  N   -0.172808
     3  C    0.107640
     4  C   -0.010101
     5  C    0.049295
     6  N   -0.129421
     7  C    0.128027
     8  C    0.088929
     9  C   -0.101890
    10  C    0.002291
    11  C    0.053442
    12  C    0.136652
    13  C   -0.081606
    14  C   -0.005393
    15  C   -0.031755
    16  C   -0.031365
    17  C   -0.007925
    18  C   -0.018691
    19  C   -0.001640
    20  C   -0.061539
 Electronic spatial extent (au):  <R**2>=           5231.0995
 Charge=             -0.0000 electrons
 Dipole moment (field-independent basis, Debye):
    X=             -0.0483    Y=             -1.6498    Z=              0.0619  Tot=              1.6516
 Quadrupole moment (field-independent basis, Debye-Ang):
   XX=           -119.0668   YY=           -117.5297   ZZ=           -111.5486
   XY=             -0.6228   XZ=              1.0934   YZ=             -4.0869
 Traceless Quadrupole moment (field-independent basis, Debye-Ang):
   XX=             -3.0185   YY=             -1.4813   ZZ=              4.4998
   XY=             -0.6228   XZ=              1.0934   YZ=             -4.0869
 Octapole moment (field-independent basis, Debye-Ang**2):
  XXX=              4.0704  YYY=            -61.7648  ZZZ=              3.7439  XYY=            -16.6005
  XXY=             19.4907  XXZ=              3.7597  XZZ=             -4.6469  YZZ=             -0.0357
  YYZ=             -1.1895  XYZ=             -6.8154
 Hexadecapole moment (field-independent basis, Debye-Ang**3):
 XXXX=          -3212.8766 YYYY=          -2565.1177 ZZZZ=          -1300.0178 XXXY=              0.3513
 XXXZ=             26.2651 YYYX=             37.0730 YYYZ=            -41.7615 ZZZX=             -2.3712
 ZZZY=            -12.2185 XXYY=           -945.5283 XXZZ=           -735.8034 YYZZ=           -647.1977
 XXYZ=             -6.4025 YYXZ=            -17.5021 ZZXY=             -3.3228
 N-N= 1.573669287145D+03 E-N=-5.023372316824D+03  KE= 8.041065530059D+02
 Unable to Open any file for archive entry.
 1\1\GINC-NOTCH361\SP\RM062X\def2TZVP\C18H22N2\U6032257\23-Sep-2022\0\\
 # M062X/def2tzvp int=(grid=ultrafine) nmr=giao guess=read geom=check\\
 SecN5.xyz\\0,1\C,0,1.1265476392,-0.8910998594,3.796539711\N,0,0.757327
 3036,-1.999405565,2.9267020043\C,0,-0.5493689682,-1.8245590933,2.30234
 36357\C,0,-0.8993498658,-2.9981225747,1.3891710216\C,0,0.1688654684,-3
 .2852481693,0.3261016445\N,0,0.5342222167,-2.1006643592,-0.4492402901\
 C,0,1.8911489689,-2.0135920505,-0.8701629609\C,0,2.577024799,-0.800727
 5185,-0.7024215647\C,0,1.8334551249,0.3555738601,-0.1012205235\C,0,0.7
 666518067,0.9079771844,-1.0549028835\C,0,-0.3756893835,-0.0153422622,-
 1.4516587113\C,0,-0.4657390798,-1.3994465201,-1.1712384524\C,0,-1.6047
 491012,-2.1027820872,-1.6075389805\C,0,-2.6400470517,-1.4756996282,-2.
 2901279623\C,0,-2.5541238468,-0.1147547389,-2.5746720947\C,0,-1.427051
 4891,0.5848552056,-2.1576523489\C,0,3.911433697,-0.7151603785,-1.10320
 92994\C,0,4.575476762,-1.820736004,-1.635378324\C,0,3.8956527903,-3.02
 99583729,-1.7763494892\C,0,2.5560600521,-3.1241032588,-1.4011986875\H,
 0,0.3842982193,-0.6623774726,4.5832401346\H,0,1.2546453098,0.014795958
 8,3.1938318705\H,0,2.0843180682,-1.1042245185,4.2799979059\H,0,0.75259
 40318,-2.8616163299,3.4675687089\H,0,-1.3632133584,-1.684554668,3.0392
 598099\H,0,-0.5121512825,-0.9080263755,1.7033903372\H,0,-1.0260055582,
 -3.9130550346,1.9842350901\H,0,-1.8682594312,-2.7963779733,0.923394313
 8\H,0,1.0825424912,-3.5968850835,0.8332786086\H,0,-0.1576479681,-4.130
 1091442,-0.3021490955\H,0,1.3648463217,0.0244714696,0.8311488444\H,0,2
 .5318500316,1.1615750771,0.1463337372\H,0,0.3261906483,1.8096163582,-0
 .6110779383\H,0,1.2743361255,1.2430643016,-1.9694231413\H,0,-1.6688880
 045,-3.1676619583,-1.4194805262\H,0,-3.5019900391,-2.0548156018,-2.607
 7848334\H,0,-3.35036029,0.3946519221,-3.1078573938\H,0,-1.3539920123,1
 .6491657339,-2.3693915462\H,0,4.4405352149,0.2255284979,-0.9742254412\
 H,0,5.6169704637,-1.7399452288,-1.9307745195\H,0,4.4014918416,-3.89742
 1461,-2.1895443862\H,0,2.018641334,-4.0581022786,-1.5288559837\\Versio
 n=ES64L-G16RevC.01\State=1-A\HF=-808.5972509\RMSD=3.876e-09\Dipole=-0.
 1457594,-0.1555434,0.613842\Quadrupole=-1.4966398,3.8616598,-2.3650199
 ,2.3178406,-0.4777591,-1.3618932\PG=C01 [X(C18H22N2)]\\@
 The archive entry for this job was punched.


 CHILDREN YOU ARE VERY LITTLE,
 AND YOUR BONES ARE VERY BRITTLE;
 IF YOU WOULD GROW GREAT AND STATELY
 YOU MUST TRY TO WALK SEDATELY.
 YOU MUST STILL BE BRIGHT AND QUIET,
 AND CONTENT WITH SIMPLE DIET;
 AND REMAIN, THROUGH ALL BEWILD'RING
 INNOCENT AND HONEST CHILDREN.
     -- A CHILD'S GARDEN OF VERSE,
        ROBERT LOUIS STEVENSON
 Job cpu time:       0 days  2 hours 51 minutes 23.0 seconds.
 Elapsed time:       0 days  0 hours  3 minutes 43.2 seconds.
 File lengths (MBytes):  RWF=    318 Int=      0 D2E=      0 Chk=     53 Scr=      1
 Normal termination of Gaussian 16 at Fri Sep 23 16:35:38 2022.
