 Entering Gaussian System, Link 0=/uufs/chpc.utah.edu/sys/installdir/gaussian16/C01/AVX2/g16/g16
 Input=SecN5_clust-8.com
 Output=SecN5_clust-8.log
 Initial command:
 /uufs/chpc.utah.edu/sys/installdir/gaussian16/C01/AVX2/g16/l1.exe "/scratch/local/u6032257/5771832/notchpeak.peaks/Gau-676538.inp" -scrdir="/scratch/local/u6032257/5771832/notchpeak.peaks/"
 Entering Link 1 = /uufs/chpc.utah.edu/sys/installdir/gaussian16/C01/AVX2/g16/l1.exe PID=    676540.
  
 Copyright (c) 1988-2019, Gaussian, Inc.  All Rights Reserved.
  
 This is part of the Gaussian(R) 16 program.  It is based on
 the Gaussian(R) 09 system (copyright 2009, Gaussian, Inc.),
 the Gaussian(R) 03 system (copyright 2003, Gaussian, Inc.),
 the Gaussian(R) 98 system (copyright 1998, Gaussian, Inc.),
 the Gaussian(R) 94 system (copyright 1995, Gaussian, Inc.),
 the Gaussian 92(TM) system (copyright 1992, Gaussian, Inc.),
 the Gaussian 90(TM) system (copyright 1990, Gaussian, Inc.),
 the Gaussian 88(TM) system (copyright 1988, Gaussian, Inc.),
 the Gaussian 86(TM) system (copyright 1986, Carnegie Mellon
 University), and the Gaussian 82(TM) system (copyright 1983,
 Carnegie Mellon University). Gaussian is a federally registered
 trademark of Gaussian, Inc.
  
 This software contains proprietary and confidential information,
 including trade secrets, belonging to Gaussian, Inc.
  
 This software is provided under written license and may be
 used, copied, transmitted, or stored only in accord with that
 written license.
  
 The following legend is applicable only to US Government
 contracts under FAR:
  
                    RESTRICTED RIGHTS LEGEND
  
 Use, reproduction and disclosure by the US Government is
 subject to restrictions as set forth in subparagraphs (a)
 and (c) of the Commercial Computer Software - Restricted
 Rights clause in FAR 52.227-19.
  
 Gaussian, Inc.
 340 Quinnipiac St., Bldg. 40, Wallingford CT 06492
  
  
 ---------------------------------------------------------------
 Warning -- This program may not be used in any manner that
 competes with the business of Gaussian, Inc. or will provide
 assistance to any competitor of Gaussian, Inc.  The licensee
 of this program is prohibited from giving any competitor of
 Gaussian, Inc. access to this program.  By using this program,
 the user acknowledges that Gaussian, Inc. is engaged in the
 business of creating and licensing software in the field of
 computational chemistry and represents and warrants to the
 licensee that it is not a competitor of Gaussian, Inc. and that
 it will not use this program in any manner prohibited above.
 ---------------------------------------------------------------
  

 Cite this work as:
 Gaussian 16, Revision C.01,
 M. J. Frisch, G. W. Trucks, H. B. Schlegel, G. E. Scuseria, 
 M. A. Robb, J. R. Cheeseman, G. Scalmani, V. Barone, 
 G. A. Petersson, H. Nakatsuji, X. Li, M. Caricato, A. V. Marenich, 
 J. Bloino, B. G. Janesko, R. Gomperts, B. Mennucci, H. P. Hratchian, 
 J. V. Ortiz, A. F. Izmaylov, J. L. Sonnenberg, D. Williams-Young, 
 F. Ding, F. Lipparini, F. Egidi, J. Goings, B. Peng, A. Petrone, 
 T. Henderson, D. Ranasinghe, V. G. Zakrzewski, J. Gao, N. Rega, 
 G. Zheng, W. Liang, M. Hada, M. Ehara, K. Toyota, R. Fukuda, 
 J. Hasegawa, M. Ishida, T. Nakajima, Y. Honda, O. Kitao, H. Nakai, 
 T. Vreven, K. Throssell, J. A. Montgomery, Jr., J. E. Peralta, 
 F. Ogliaro, M. J. Bearpark, J. J. Heyd, E. N. Brothers, K. N. Kudin, 
 V. N. Staroverov, T. A. Keith, R. Kobayashi, J. Normand, 
 K. Raghavachari, A. P. Rendell, J. C. Burant, S. S. Iyengar, 
 J. Tomasi, M. Cossi, J. M. Millam, M. Klene, C. Adamo, R. Cammi, 
 J. W. Ochterski, R. L. Martin, K. Morokuma, O. Farkas, 
 J. B. Foresman, and D. J. Fox, Gaussian, Inc., Wallingford CT, 2019.
 
 ******************************************
 Gaussian 16:  ES64L-G16RevC.01  3-Jul-2019
                23-Sep-2022 
 ******************************************
 %NProcShared=40
 Will use up to   40 processors via shared memory.
 %mem=16GB
 %chk=SecN5_clust-8.chk
 ----------------------------------------------------------------------
 # B3LYP/6-31G(d,p) empiricaldispersion=GD3BJ int=(grid=ultrafine) opt 
 freq=noraman
 ----------------------------------------------------------------------
 1/18=20,19=15,26=4,38=1/1,3;
 2/9=110,12=2,17=6,18=5,40=1/2;
 3/5=1,6=6,7=101,11=2,25=1,30=1,71=1,74=-5,75=-5,124=41/1,2,3;
 4//1;
 5/5=2,38=5/2;
 6/7=2,8=2,9=2,10=2,28=1/1;
 7//1,2,3,16;
 1/18=20,19=15,26=4/3(2);
 2/9=110/2;
 99//99;
 2/9=110/2;
 3/5=1,6=6,7=101,11=2,25=1,30=1,71=1,74=-5,75=-5,124=41/1,2,3;
 4/5=5,16=3,69=1/1;
 5/5=2,38=5/2;
 7//1,2,3,16;
 1/18=20,19=15,26=4/3(-5);
 2/9=110/2;
 6/7=2,8=2,9=2,10=2,19=2,28=1/1;
 99/9=1/99;
 ---------
 SecN5.xyz
 ---------
 Symbolic Z-matrix:
 Charge =  0 Multiplicity = 1
 C                     1.8599   -3.4386    2.159 
 N                     0.5535   -3.3996    2.8094 
 C                    -0.513    -2.893     1.9476 
 C                    -0.7016   -1.3659    2.0468 
 C                     0.3619   -0.4612    1.3778 
 N                     0.539    -0.709    -0.0768 
 C                     1.8792   -0.9514   -0.4466 
 C                     2.2587   -2.0552   -1.2366 
 C                     1.1952   -2.9564   -1.8253 
 C                     0.2784   -2.2028   -2.7865 
 C                    -0.7267   -1.2117   -2.2014 
 C                    -0.5745   -0.5506   -0.9472 
 C                    -1.588     0.3618   -0.5872 
 C                    -2.7008    0.6095   -1.384 
 C                    -2.8329   -0.0463   -2.5966 
 C                    -1.8496   -0.94     -2.9982 
 C                     3.6123   -2.278    -1.5239 
 C                     4.597    -1.4187   -1.0462 
 C                     4.2358   -0.3159   -0.2821 
 C                     2.8923   -0.0902    0.0079 
 H                     1.8319   -4.0128    1.2313 
 H                     2.5875   -3.9145    2.8177 
 H                     2.2451   -2.446     1.9353 
 H                     0.3093   -4.2978    3.2069 
 H                    -0.3796   -3.207     0.9121 
 H                    -1.4453   -3.3562    2.2753 
 H                    -1.6883   -1.1054    1.6682 
 H                    -0.7494   -1.103     3.104 
 H                     0.1364    0.5903    1.5564 
 H                     1.2889   -0.6197    1.9285 
 H                     1.6746   -3.7735   -2.3661 
 H                     0.6312   -3.4397   -1.0286 
 H                     0.8886   -1.6649   -3.5142 
 H                    -0.2723   -2.9458   -3.3658 
 H                    -1.5205    0.9187    0.3315 
 H                    -3.4506    1.3174   -1.0626 
 H                    -3.6888    0.143    -3.2287 
 H                    -1.9646   -1.4317   -3.9538 
 H                     3.9052   -3.1197   -2.1348 
 H                     5.6366   -1.6016   -1.2782 
 H                     4.9903    0.3634    0.0864 
 H                     2.6253    0.7714    0.6003 
 

 GradGradGradGradGradGradGradGradGradGradGradGradGradGradGradGradGradGrad
 Berny optimization.
 Initialization pass.
                           ----------------------------
                           !    Initial Parameters    !
                           ! (Angstroms and Degrees)  !
 --------------------------                            --------------------------
 ! Name  Definition              Value          Derivative Info.                !
 --------------------------------------------------------------------------------
 ! R1    R(1,2)                  1.4599         estimate D2E/DX2                !
 ! R2    R(1,21)                 1.0914         estimate D2E/DX2                !
 ! R3    R(1,22)                 1.0908         estimate D2E/DX2                !
 ! R4    R(1,23)                 1.088          estimate D2E/DX2                !
 ! R5    R(2,3)                  1.4618         estimate D2E/DX2                !
 ! R6    R(2,24)                 1.0121         estimate D2E/DX2                !
 ! R7    R(3,4)                  1.5419         estimate D2E/DX2                !
 ! R8    R(3,25)                 1.0903         estimate D2E/DX2                !
 ! R9    R(3,26)                 1.0914         estimate D2E/DX2                !
 ! R10   R(4,5)                  1.5482         estimate D2E/DX2                !
 ! R11   R(4,27)                 1.0885         estimate D2E/DX2                !
 ! R12   R(4,28)                 1.0904         estimate D2E/DX2                !
 ! R13   R(5,6)                  1.4861         estimate D2E/DX2                !
 ! R14   R(5,29)                 1.0901         estimate D2E/DX2                !
 ! R15   R(5,30)                 1.0898         estimate D2E/DX2                !
 ! R16   R(6,7)                  1.4113         estimate D2E/DX2                !
 ! R17   R(6,12)                 1.4222         estimate D2E/DX2                !
 ! R18   R(7,8)                  1.4094         estimate D2E/DX2                !
 ! R19   R(7,20)                 1.4052         estimate D2E/DX2                !
 ! R20   R(8,9)                  1.5132         estimate D2E/DX2                !
 ! R21   R(8,17)                 1.4016         estimate D2E/DX2                !
 ! R22   R(9,10)                 1.5272         estimate D2E/DX2                !
 ! R23   R(9,31)                 1.0908         estimate D2E/DX2                !
 ! R24   R(9,32)                 1.0892         estimate D2E/DX2                !
 ! R25   R(10,11)                1.528          estimate D2E/DX2                !
 ! R26   R(10,33)                1.0914         estimate D2E/DX2                !
 ! R27   R(10,34)                1.0913         estimate D2E/DX2                !
 ! R28   R(11,12)                1.4259         estimate D2E/DX2                !
 ! R29   R(11,16)                1.4034         estimate D2E/DX2                !
 ! R30   R(12,13)                1.4104         estimate D2E/DX2                !
 ! R31   R(13,14)                1.3909         estimate D2E/DX2                !
 ! R32   R(13,35)                1.0764         estimate D2E/DX2                !
 ! R33   R(14,15)                1.3849         estimate D2E/DX2                !
 ! R34   R(14,36)                1.0801         estimate D2E/DX2                !
 ! R35   R(15,16)                1.3881         estimate D2E/DX2                !
 ! R36   R(15,37)                1.0807         estimate D2E/DX2                !
 ! R37   R(16,38)                1.0808         estimate D2E/DX2                !
 ! R38   R(17,18)                1.3915         estimate D2E/DX2                !
 ! R39   R(17,39)                1.0805         estimate D2E/DX2                !
 ! R40   R(18,19)                1.3894         estimate D2E/DX2                !
 ! R41   R(18,40)                1.0808         estimate D2E/DX2                !
 ! R42   R(19,20)                1.3929         estimate D2E/DX2                !
 ! R43   R(19,41)                1.0801         estimate D2E/DX2                !
 ! R44   R(20,42)                1.0792         estimate D2E/DX2                !
 ! A1    A(2,1,21)             111.7031         estimate D2E/DX2                !
 ! A2    A(2,1,22)             109.849          estimate D2E/DX2                !
 ! A3    A(2,1,23)             112.5857         estimate D2E/DX2                !
 ! A4    A(21,1,22)            107.5108         estimate D2E/DX2                !
 ! A5    A(21,1,23)            108.3192         estimate D2E/DX2                !
 ! A6    A(22,1,23)            106.6215         estimate D2E/DX2                !
 ! A7    A(1,2,3)              113.5466         estimate D2E/DX2                !
 ! A8    A(1,2,24)             111.5414         estimate D2E/DX2                !
 ! A9    A(3,2,24)             111.2886         estimate D2E/DX2                !
 ! A10   A(2,3,4)              113.2381         estimate D2E/DX2                !
 ! A11   A(2,3,25)             111.7691         estimate D2E/DX2                !
 ! A12   A(2,3,26)             107.4058         estimate D2E/DX2                !
 ! A13   A(4,3,25)             111.1809         estimate D2E/DX2                !
 ! A14   A(4,3,26)             107.2497         estimate D2E/DX2                !
 ! A15   A(25,3,26)            105.5137         estimate D2E/DX2                !
 ! A16   A(3,4,5)              117.8339         estimate D2E/DX2                !
 ! A17   A(3,4,27)             108.9978         estimate D2E/DX2                !
 ! A18   A(3,4,28)             107.8495         estimate D2E/DX2                !
 ! A19   A(5,4,27)             109.4227         estimate D2E/DX2                !
 ! A20   A(5,4,28)             107.9482         estimate D2E/DX2                !
 ! A21   A(27,4,28)            103.8739         estimate D2E/DX2                !
 ! A22   A(4,5,6)              114.0387         estimate D2E/DX2                !
 ! A23   A(4,5,29)             110.5329         estimate D2E/DX2                !
 ! A24   A(4,5,30)             106.3168         estimate D2E/DX2                !
 ! A25   A(6,5,29)             110.2328         estimate D2E/DX2                !
 ! A26   A(6,5,30)             111.6522         estimate D2E/DX2                !
 ! A27   A(29,5,30)            103.4999         estimate D2E/DX2                !
 ! A28   A(5,6,7)              113.4707         estimate D2E/DX2                !
 ! A29   A(5,6,12)             119.1539         estimate D2E/DX2                !
 ! A30   A(7,6,12)             127.0344         estimate D2E/DX2                !
 ! A31   A(6,7,8)              122.4858         estimate D2E/DX2                !
 ! A32   A(6,7,20)             119.6461         estimate D2E/DX2                !
 ! A33   A(8,7,20)             117.8483         estimate D2E/DX2                !
 ! A34   A(7,8,9)              119.6855         estimate D2E/DX2                !
 ! A35   A(7,8,17)             119.9623         estimate D2E/DX2                !
 ! A36   A(9,8,17)             120.2875         estimate D2E/DX2                !
 ! A37   A(8,9,10)             111.894          estimate D2E/DX2                !
 ! A38   A(8,9,31)             109.2754         estimate D2E/DX2                !
 ! A39   A(8,9,32)             110.0972         estimate D2E/DX2                !
 ! A40   A(10,9,31)            108.7487         estimate D2E/DX2                !
 ! A41   A(10,9,32)            111.621          estimate D2E/DX2                !
 ! A42   A(31,9,32)            104.9406         estimate D2E/DX2                !
 ! A43   A(9,10,11)            118.29           estimate D2E/DX2                !
 ! A44   A(9,10,33)            109.0991         estimate D2E/DX2                !
 ! A45   A(9,10,34)            107.5223         estimate D2E/DX2                !
 ! A46   A(11,10,33)           107.6614         estimate D2E/DX2                !
 ! A47   A(11,10,34)           108.2364         estimate D2E/DX2                !
 ! A48   A(33,10,34)           105.2925         estimate D2E/DX2                !
 ! A49   A(10,11,12)           124.5629         estimate D2E/DX2                !
 ! A50   A(10,11,16)           115.7514         estimate D2E/DX2                !
 ! A51   A(12,11,16)           119.6714         estimate D2E/DX2                !
 ! A52   A(6,12,11)            124.7678         estimate D2E/DX2                !
 ! A53   A(6,12,13)            118.5848         estimate D2E/DX2                !
 ! A54   A(11,12,13)           116.5983         estimate D2E/DX2                !
 ! A55   A(12,13,14)           122.9494         estimate D2E/DX2                !
 ! A56   A(12,13,35)           120.4951         estimate D2E/DX2                !
 ! A57   A(14,13,35)           116.549          estimate D2E/DX2                !
 ! A58   A(13,14,15)           119.5765         estimate D2E/DX2                !
 ! A59   A(13,14,36)           120.1094         estimate D2E/DX2                !
 ! A60   A(15,14,36)           120.3105         estimate D2E/DX2                !
 ! A61   A(14,15,16)           119.3818         estimate D2E/DX2                !
 ! A62   A(14,15,37)           120.3129         estimate D2E/DX2                !
 ! A63   A(16,15,37)           120.3027         estimate D2E/DX2                !
 ! A64   A(11,16,15)           121.8137         estimate D2E/DX2                !
 ! A65   A(11,16,38)           119.9361         estimate D2E/DX2                !
 ! A66   A(15,16,38)           118.2501         estimate D2E/DX2                !
 ! A67   A(8,17,18)            120.9908         estimate D2E/DX2                !
 ! A68   A(8,17,39)            120.1014         estimate D2E/DX2                !
 ! A69   A(18,17,39)           118.9033         estimate D2E/DX2                !
 ! A70   A(17,18,19)           119.6685         estimate D2E/DX2                !
 ! A71   A(17,18,40)           120.166          estimate D2E/DX2                !
 ! A72   A(19,18,40)           120.1615         estimate D2E/DX2                !
 ! A73   A(18,19,20)           119.5953         estimate D2E/DX2                !
 ! A74   A(18,19,41)           120.347          estimate D2E/DX2                !
 ! A75   A(20,19,41)           120.0577         estimate D2E/DX2                !
 ! A76   A(7,20,19)            121.9221         estimate D2E/DX2                !
 ! A77   A(7,20,42)            119.241          estimate D2E/DX2                !
 ! A78   A(19,20,42)           118.8369         estimate D2E/DX2                !
 ! D1    D(21,1,2,3)           -55.2698         estimate D2E/DX2                !
 ! D2    D(21,1,2,24)           71.443          estimate D2E/DX2                !
 ! D3    D(22,1,2,3)          -174.4773         estimate D2E/DX2                !
 ! D4    D(22,1,2,24)          -47.7645         estimate D2E/DX2                !
 ! D5    D(23,1,2,3)            66.8677         estimate D2E/DX2                !
 ! D6    D(23,1,2,24)         -166.4195         estimate D2E/DX2                !
 ! D7    D(1,2,3,4)            -90.4733         estimate D2E/DX2                !
 ! D8    D(1,2,3,25)            36.0311         estimate D2E/DX2                !
 ! D9    D(1,2,3,26)           151.3097         estimate D2E/DX2                !
 ! D10   D(24,2,3,4)           142.6813         estimate D2E/DX2                !
 ! D11   D(24,2,3,25)          -90.8143         estimate D2E/DX2                !
 ! D12   D(24,2,3,26)           24.4643         estimate D2E/DX2                !
 ! D13   D(2,3,4,5)             73.6954         estimate D2E/DX2                !
 ! D14   D(2,3,4,27)          -160.8903         estimate D2E/DX2                !
 ! D15   D(2,3,4,28)           -48.7245         estimate D2E/DX2                !
 ! D16   D(25,3,4,5)           -53.1199         estimate D2E/DX2                !
 ! D17   D(25,3,4,27)           72.2944         estimate D2E/DX2                !
 ! D18   D(25,3,4,28)         -175.5398         estimate D2E/DX2                !
 ! D19   D(26,3,4,5)          -167.997          estimate D2E/DX2                !
 ! D20   D(26,3,4,27)          -42.5827         estimate D2E/DX2                !
 ! D21   D(26,3,4,28)           69.5831         estimate D2E/DX2                !
 ! D22   D(3,4,5,6)             57.5878         estimate D2E/DX2                !
 ! D23   D(3,4,5,29)          -177.5625         estimate D2E/DX2                !
 ! D24   D(3,4,5,30)           -65.8848         estimate D2E/DX2                !
 ! D25   D(27,4,5,6)           -67.6175         estimate D2E/DX2                !
 ! D26   D(27,4,5,29)           57.2322         estimate D2E/DX2                !
 ! D27   D(27,4,5,30)          168.9099         estimate D2E/DX2                !
 ! D28   D(28,4,5,6)           179.9574         estimate D2E/DX2                !
 ! D29   D(28,4,5,29)          -55.1929         estimate D2E/DX2                !
 ! D30   D(28,4,5,30)           56.4848         estimate D2E/DX2                !
 ! D31   D(4,5,6,7)           -126.8965         estimate D2E/DX2                !
 ! D32   D(4,5,6,12)            59.3393         estimate D2E/DX2                !
 ! D33   D(29,5,6,7)           108.0941         estimate D2E/DX2                !
 ! D34   D(29,5,6,12)          -65.67           estimate D2E/DX2                !
 ! D35   D(30,5,6,7)            -6.3624         estimate D2E/DX2                !
 ! D36   D(30,5,6,12)          179.8735         estimate D2E/DX2                !
 ! D37   D(5,6,7,8)            130.0021         estimate D2E/DX2                !
 ! D38   D(5,6,7,20)           -48.3444         estimate D2E/DX2                !
 ! D39   D(12,6,7,8)           -56.8226         estimate D2E/DX2                !
 ! D40   D(12,6,7,20)          124.8308         estimate D2E/DX2                !
 ! D41   D(5,6,12,11)         -154.532          estimate D2E/DX2                !
 ! D42   D(5,6,12,13)           28.1104         estimate D2E/DX2                !
 ! D43   D(7,6,12,11)           32.6379         estimate D2E/DX2                !
 ! D44   D(7,6,12,13)         -144.7196         estimate D2E/DX2                !
 ! D45   D(6,7,8,9)              5.711          estimate D2E/DX2                !
 ! D46   D(6,7,8,17)          -177.2047         estimate D2E/DX2                !
 ! D47   D(20,7,8,9)          -175.9142         estimate D2E/DX2                !
 ! D48   D(20,7,8,17)            1.1701         estimate D2E/DX2                !
 ! D49   D(6,7,20,19)          177.3006         estimate D2E/DX2                !
 ! D50   D(6,7,20,42)           -2.6139         estimate D2E/DX2                !
 ! D51   D(8,7,20,19)           -1.122          estimate D2E/DX2                !
 ! D52   D(8,7,20,42)          178.9635         estimate D2E/DX2                !
 ! D53   D(7,8,9,10)            61.876          estimate D2E/DX2                !
 ! D54   D(7,8,9,31)          -177.6256         estimate D2E/DX2                !
 ! D55   D(7,8,9,32)           -62.867          estimate D2E/DX2                !
 ! D56   D(17,8,9,10)         -115.1988         estimate D2E/DX2                !
 ! D57   D(17,8,9,31)            5.2997         estimate D2E/DX2                !
 ! D58   D(17,8,9,32)          120.0582         estimate D2E/DX2                !
 ! D59   D(7,8,17,18)           -0.3622         estimate D2E/DX2                !
 ! D60   D(7,8,17,39)         -179.5893         estimate D2E/DX2                !
 ! D61   D(9,8,17,18)          176.7045         estimate D2E/DX2                !
 ! D62   D(9,8,17,39)           -2.5227         estimate D2E/DX2                !
 ! D63   D(8,9,10,11)          -72.2059         estimate D2E/DX2                !
 ! D64   D(8,9,10,33)           51.2284         estimate D2E/DX2                !
 ! D65   D(8,9,10,34)          164.9327         estimate D2E/DX2                !
 ! D66   D(31,9,10,11)         166.9894         estimate D2E/DX2                !
 ! D67   D(31,9,10,33)         -69.5762         estimate D2E/DX2                !
 ! D68   D(31,9,10,34)          44.1281         estimate D2E/DX2                !
 ! D69   D(32,9,10,11)          51.6864         estimate D2E/DX2                !
 ! D70   D(32,9,10,33)         175.1208         estimate D2E/DX2                !
 ! D71   D(32,9,10,34)         -71.1749         estimate D2E/DX2                !
 ! D72   D(9,10,11,12)          24.8963         estimate D2E/DX2                !
 ! D73   D(9,10,11,16)        -156.4903         estimate D2E/DX2                !
 ! D74   D(33,10,11,12)        -99.2518         estimate D2E/DX2                !
 ! D75   D(33,10,11,16)         79.3615         estimate D2E/DX2                !
 ! D76   D(34,10,11,12)        147.3987         estimate D2E/DX2                !
 ! D77   D(34,10,11,16)        -33.988          estimate D2E/DX2                !
 ! D78   D(10,11,12,6)           0.8193         estimate D2E/DX2                !
 ! D79   D(10,11,12,13)        178.2243         estimate D2E/DX2                !
 ! D80   D(16,11,12,6)        -177.7433         estimate D2E/DX2                !
 ! D81   D(16,11,12,13)         -0.3383         estimate D2E/DX2                !
 ! D82   D(10,11,16,15)       -179.1753         estimate D2E/DX2                !
 ! D83   D(10,11,16,38)          0.7412         estimate D2E/DX2                !
 ! D84   D(12,11,16,15)         -0.4896         estimate D2E/DX2                !
 ! D85   D(12,11,16,38)        179.4269         estimate D2E/DX2                !
 ! D86   D(6,12,13,14)         178.5447         estimate D2E/DX2                !
 ! D87   D(6,12,13,35)          -0.4879         estimate D2E/DX2                !
 ! D88   D(11,12,13,14)          0.9722         estimate D2E/DX2                !
 ! D89   D(11,12,13,35)       -178.0603         estimate D2E/DX2                !
 ! D90   D(12,13,14,15)         -0.7695         estimate D2E/DX2                !
 ! D91   D(12,13,14,36)        179.9127         estimate D2E/DX2                !
 ! D92   D(35,13,14,15)        178.2986         estimate D2E/DX2                !
 ! D93   D(35,13,14,36)         -1.0192         estimate D2E/DX2                !
 ! D94   D(13,14,15,16)         -0.0991         estimate D2E/DX2                !
 ! D95   D(13,14,15,37)       -179.5174         estimate D2E/DX2                !
 ! D96   D(36,14,15,16)        179.2173         estimate D2E/DX2                !
 ! D97   D(36,14,15,37)         -0.201          estimate D2E/DX2                !
 ! D98   D(14,15,16,11)          0.7202         estimate D2E/DX2                !
 ! D99   D(14,15,16,38)       -179.1977         estimate D2E/DX2                !
 ! D100  D(37,15,16,11)       -179.8615         estimate D2E/DX2                !
 ! D101  D(37,15,16,38)          0.2207         estimate D2E/DX2                !
 ! D102  D(8,17,18,19)          -0.5508         estimate D2E/DX2                !
 ! D103  D(8,17,18,40)        -179.8264         estimate D2E/DX2                !
 ! D104  D(39,17,18,19)        178.6854         estimate D2E/DX2                !
 ! D105  D(39,17,18,40)         -0.5902         estimate D2E/DX2                !
 ! D106  D(17,18,19,20)          0.614          estimate D2E/DX2                !
 ! D107  D(17,18,19,41)       -179.4196         estimate D2E/DX2                !
 ! D108  D(40,18,19,20)        179.8896         estimate D2E/DX2                !
 ! D109  D(40,18,19,41)         -0.144          estimate D2E/DX2                !
 ! D110  D(18,19,20,7)           0.2354         estimate D2E/DX2                !
 ! D111  D(18,19,20,42)       -179.8498         estimate D2E/DX2                !
 ! D112  D(41,19,20,7)        -179.7311         estimate D2E/DX2                !
 ! D113  D(41,19,20,42)          0.1837         estimate D2E/DX2                !
 --------------------------------------------------------------------------------
 Trust Radius=3.00D-01 FncErr=1.00D-07 GrdErr=1.00D-06 EigMax=2.50D+02 EigMin=1.00D-04
 Number of steps in this run=    245 maximum allowed number of steps=    252.
 GradGradGradGradGradGradGradGradGradGradGradGradGradGradGradGradGradGrad

                          Input orientation:                          
 ---------------------------------------------------------------------
 Center     Atomic      Atomic             Coordinates (Angstroms)
 Number     Number       Type             X           Y           Z
 ---------------------------------------------------------------------
      1          6           0        1.859900   -3.438600    2.159000
      2          7           0        0.553500   -3.399600    2.809400
      3          6           0       -0.513000   -2.893000    1.947600
      4          6           0       -0.701600   -1.365900    2.046800
      5          6           0        0.361900   -0.461200    1.377800
      6          7           0        0.539000   -0.709000   -0.076800
      7          6           0        1.879200   -0.951400   -0.446600
      8          6           0        2.258700   -2.055200   -1.236600
      9          6           0        1.195200   -2.956400   -1.825300
     10          6           0        0.278400   -2.202800   -2.786500
     11          6           0       -0.726700   -1.211700   -2.201400
     12          6           0       -0.574500   -0.550600   -0.947200
     13          6           0       -1.588000    0.361800   -0.587200
     14          6           0       -2.700800    0.609500   -1.384000
     15          6           0       -2.832900   -0.046300   -2.596600
     16          6           0       -1.849600   -0.940000   -2.998200
     17          6           0        3.612300   -2.278000   -1.523900
     18          6           0        4.597000   -1.418700   -1.046200
     19          6           0        4.235800   -0.315900   -0.282100
     20          6           0        2.892300   -0.090200    0.007900
     21          1           0        1.831900   -4.012800    1.231300
     22          1           0        2.587500   -3.914500    2.817700
     23          1           0        2.245100   -2.446000    1.935300
     24          1           0        0.309300   -4.297800    3.206900
     25          1           0       -0.379600   -3.207000    0.912100
     26          1           0       -1.445300   -3.356200    2.275300
     27          1           0       -1.688300   -1.105400    1.668200
     28          1           0       -0.749400   -1.103000    3.104000
     29          1           0        0.136400    0.590300    1.556400
     30          1           0        1.288900   -0.619700    1.928500
     31          1           0        1.674600   -3.773500   -2.366100
     32          1           0        0.631200   -3.439700   -1.028600
     33          1           0        0.888600   -1.664900   -3.514200
     34          1           0       -0.272300   -2.945800   -3.365800
     35          1           0       -1.520500    0.918700    0.331500
     36          1           0       -3.450600    1.317400   -1.062600
     37          1           0       -3.688800    0.143000   -3.228700
     38          1           0       -1.964600   -1.431700   -3.953800
     39          1           0        3.905200   -3.119700   -2.134800
     40          1           0        5.636600   -1.601600   -1.278200
     41          1           0        4.990300    0.363400    0.086400
     42          1           0        2.625300    0.771400    0.600300
 ---------------------------------------------------------------------
                    Distance matrix (angstroms):
                    1          2          3          4          5
     1  C    0.000000
     2  N    1.459871   0.000000
     3  C    2.443977   1.461768   0.000000
     4  C    3.296962   2.508540   1.541897   0.000000
     5  C    3.423330   3.274200   2.646464   1.548249   0.000000
     6  N    3.767532   3.945845   3.158284   2.545640   1.486146
     7  C    3.602178   4.284005   3.901875   3.612393   2.423000
     8  C    3.688216   4.591866   4.303877   4.474285   3.601912
     9  C    4.068045   4.699856   4.142070   4.595726   4.144908
    10  C    5.337257   5.729058   4.849164   5.002159   4.514592
    11  C    5.537388   5.615508   4.481812   4.251072   3.815622
    12  C    4.890330   4.847807   3.724310   3.105625   2.508079
    13  C    5.820023   5.501913   4.263163   3.272401   2.888021
    14  C    7.052655   6.651914   5.305990   4.435019   4.260759
    15  C    7.493050   7.206744   5.842550   5.276831   5.116126
    16  C    6.826427   6.749277   5.482850   5.191466   4.926394
    17  C    4.240478   5.421414   5.426568   5.673760   4.720776
    18  C    4.673866   5.927859   6.103155   6.135519   4.972791
    19  C    4.621161   5.711910   5.845007   5.559154   4.217047
    20  C    4.111552   4.926512   4.818111   4.324424   2.901240
    21  H    1.091383   2.121490   2.695477   3.753631   3.846586
    22  H    1.090765   2.098177   3.378407   4.231764   4.353377
    23  H    1.087969   2.129534   2.794115   3.140396   2.792253
    24  H    2.059291   1.012128   2.058027   3.311161   4.250632
    25  H    2.573666   2.123092   1.090253   2.186522   2.882033
    26  H    3.308272   2.069383   1.091387   2.136960   3.528810
    27  H    4.274860   3.404608   2.157524   1.088474   2.168558
    28  H    3.627189   2.656823   2.144119   1.090446   2.150968
    29  H    4.423304   4.202771   3.564847   2.183908   1.090138
    30  H    2.885371   3.007431   2.900879   2.129061   1.089826
    31  H    4.541258   5.308716   4.916186   5.560265   5.168298
    32  H    3.416211   3.838996   3.235095   3.941458   3.838586
    33  H    6.022843   6.565774   5.770959   5.791620   5.065370
    34  H    5.942436   6.246677   5.319111   5.654787   5.392327
    35  H    5.809727   5.393439   4.260973   2.971910   2.557792
    36  H    7.823021   7.298992   5.951325   4.942213   4.863551
    37  H    8.523100   8.185706   6.789483   6.247483   6.163852
    38  H    7.484703   7.480263   6.250525   6.132430   5.897494
    39  H    4.766725   5.979745   6.019790   6.464070   5.653402
    40  H    5.427004   6.766032   7.063362   7.161282   6.014758
    41  H    5.343246   6.423402   6.659919   6.263495   4.875425
    42  H    4.554062   5.154582   5.009189   4.210544   2.691986
                    6          7          8          9         10
     6  N    0.000000
     7  C    1.411257   0.000000
     8  C    2.472804   1.409431   0.000000
     9  C    2.922098   2.527587   1.513196   0.000000
    10  C    3.105129   3.098983   2.519040   1.527200   0.000000
    11  C    2.523614   3.152427   3.248837   2.622809   1.528021
    12  C    1.422171   2.536116   3.220962   3.113000   2.615383
    13  C    2.435416   3.710221   4.589195   4.504392   3.859733
    14  C    3.734102   4.928644   5.631962   5.299925   4.330320
    15  C    4.261253   5.257908   5.640006   5.028834   3.790349
    16  C    3.780655   4.518268   4.607064   3.835671   2.483519
    17  C    3.741795   2.433943   1.401576   2.528525   3.565768
    18  C    4.232112   2.822114   2.430850   3.813628   4.721627
    19  C    3.723306   2.446321   2.800921   4.312651   5.049101
    20  C    2.434771   1.405207   2.410696   3.802088   4.370838
    21  H    3.781245   3.491383   3.178818   3.296084   4.672492
    22  H    4.780137   4.465121   4.472410   4.941043   6.298327
    23  H    3.158559   2.835694   3.195913   3.937628   5.120786
    24  H    4.869798   5.197215   5.345475   5.282727   6.349081
    25  H    2.839323   3.469290   3.592239   3.167989   3.888576
    26  H    4.059247   4.923830   5.267415   4.893567   5.470219
    27  H    2.857100   4.150078   4.991873   4.893395   4.991648
    28  H    3.454374   4.420326   5.366205   5.613783   6.079796
    29  H    2.125467   3.070212   4.393595   5.013585   5.165496
    30  H    2.142791   2.469733   3.608189   4.422664   5.075287
    31  H    3.990193   3.419150   2.137638   1.090844   2.143177
    32  H    2.893293   2.843917   2.146826   1.089223   2.178211
    33  H    3.584925   3.301597   2.686442   2.148106   1.091434
    34  H    4.059434   4.138637   3.425292   2.127630   1.091287
    35  H    2.656625   3.957357   5.058198   5.200309   4.764633
    36  H    4.582031   5.825262   6.633311   6.358501   5.410091
    37  H    5.341785   6.319843   6.646300   5.952249   4.630010
    38  H    4.671342   5.225508   5.060454   4.103603   2.643527
    39  H    4.623650   3.414121   2.156591   2.732500   3.797249
    40  H    5.312779   3.902867   3.408474   4.675557   5.598814
    41  H    4.581566   3.419317   3.880927   5.392444   6.086127
    42  H    2.646261   2.149582   3.390909   4.671746   5.081754
                   11         12         13         14         15
    11  C    0.000000
    12  C    1.425916   0.000000
    13  C    2.413168   1.410410   0.000000
    14  C    2.807487   2.461255   1.390888   0.000000
    15  C    2.439348   2.841691   2.398752   1.384891   0.000000
    16  C    1.403430   2.446245   2.752460   2.393979   1.388114
    17  C    4.519173   4.565719   5.906697   6.943519   6.904475
    18  C    5.451524   5.244789   6.452526   7.581925   7.713017
    19  C    5.395607   4.861731   5.871031   7.084276   7.442857
    20  C    4.385878   3.625312   4.542195   5.806008   6.289933
    21  H    5.116251   4.745888   5.842926   6.982179   7.221239
    22  H    6.593968   5.957226   6.878582   8.129390   8.582444
    23  H    5.240933   4.455501   5.379536   6.694457   7.216839
    24  H    6.312449   5.663846   6.301334   7.363332   7.850432
    25  H    3.714241   3.248299   4.055177   5.022521   5.321624
    26  H    5.015587   4.360526   4.694443   5.540174   6.051139
    27  H    3.988706   2.896320   2.692502   3.644443   4.540960
    28  H    5.306562   4.092427   4.058799   5.184859   6.160716
    29  H    4.255961   2.841662   2.760578   4.086077   5.144843
    30  H    4.633485   3.427344   3.945712   5.329287   6.147727
    31  H    3.515137   4.178374   5.559654   6.270513   5.853435
    32  H    2.860653   3.131651   4.423922   5.255907   5.096447
    33  H    2.130265   3.157818   4.336864   4.753361   4.160699
    34  H    2.137618   3.417299   4.515739   4.739758   3.944039
    35  H    3.403572   2.165371   1.076431   2.105149   3.350730
    36  H    3.887524   3.431427   2.146731   1.080102   2.143452
    37  H    3.415347   3.922396   3.382123   2.143988   1.080717
    38  H    2.156781   3.427588   3.833075   3.363385   2.124916
    39  H    5.009930   5.298904   6.685144   7.622983   7.420313
    40  H    6.441732   6.308084   7.518462   8.626262   8.711462
    41  H    6.356025   5.733300   6.612698   7.834262   8.280628
    42  H    4.797720   3.792250   4.396570   5.686035   6.378146
                   16         17         18         19         20
    16  C    0.000000
    17  C    5.813446   0.000000
    18  C    6.752637   1.391484   0.000000
    19  C    6.693190   2.404299   1.389418   0.000000
    20  C    5.678416   2.766095   2.404588   1.392851   0.000000
    21  H    6.394076   3.710860   4.422911   4.662208   4.243577
    22  H    7.896847   4.751614   5.019645   5.027482   4.755329
    23  H    6.585896   3.723375   3.933970   3.662933   3.111837
    24  H    7.378275   6.113090   6.690474   6.591362   5.882974
    25  H    4.752961   4.767851   5.639105   5.575526   4.608400
    26  H    5.814747   6.416834   7.162099   6.932432   5.884100
    27  H    4.672116   6.297686   6.853548   6.286648   4.976859
    28  H    6.202730   6.467033   6.775531   6.077616   4.886060
    29  H    5.199076   5.458688   5.541350   4.583270   3.233561
    30  H    5.850226   4.479644   4.520041   3.696386   2.557336
    31  H    4.565989   2.588533   3.978397   4.780983   4.548117
    32  H    4.035120   3.237565   4.451103   4.827891   4.172057
    33  H    2.879145   3.428663   4.461375   4.844587   4.347376
    34  H    2.578030   4.350709   5.605592   6.062058   5.436083
    35  H    3.827529   6.325112   6.692182   5.919099   4.538216
    36  H    3.377218   7.938782   8.500022   7.896682   6.584807
    37  H    2.146783   7.878683   8.709575   8.467132   7.337632
    38  H    1.080817   6.141861   7.176970   7.291869   6.409693
    39  H    6.214039   1.080485   2.134722   3.376846   3.846427
    40  H    7.709689   2.148412   1.080761   2.146504   3.386675
    41  H    7.615631   3.386583   2.147871   1.080051   2.147910
    42  H    5.991896   3.845157   3.375663   2.134142   1.079158
                   21         22         23         24         25
    21  H    0.000000
    22  H    1.759903   0.000000
    23  H    1.766695   1.747100   0.000000
    24  H    2.510484   2.342774   2.965375   0.000000
    25  H    2.375276   3.596603   2.918066   2.632591   0.000000
    26  H    3.501585   4.107234   3.816165   2.198434   1.736747
    27  H    4.586465   5.243554   4.164155   4.068098   2.588649
    28  H    4.317065   4.372802   3.483754   3.367222   3.060718
    29  H    4.916192   5.281287   3.716086   5.162128   3.885983
    30  H    3.506289   3.651403   2.061489   4.015264   3.242080
    31  H    3.608780   5.265458   4.537595   5.761707   3.909892
    32  H    2.622455   4.341263   3.518070   4.333522   2.200496
    33  H    5.377938   6.931084   5.669855   7.241611   4.855773
    34  H    5.167153   6.881316   5.889717   6.735469   4.287210
    35  H    6.030582   6.812979   5.298408   6.231209   4.319740
    36  H    7.847153   8.881901   7.455976   7.993494   5.813835
    37  H    8.224379   9.613231   8.281364   8.781939   6.270529
    38  H    6.925370   8.528723   7.309711   8.041192   5.416724
    39  H    4.053003   5.186068   4.446967   6.546157   5.258396
    40  H    5.156279   5.605615   4.747827   7.467646   6.600711
    41  H    5.517011   5.615503   4.341346   7.305893   6.501182
    42  H    4.890421   5.184202   3.504060   6.152642   4.995429
                   26         27         28         29         30
    26  H    0.000000
    27  H    2.343869   0.000000
    28  H    2.499586   1.715535   0.000000
    29  H    4.312013   2.493477   2.459059   0.000000
    30  H    3.883884   3.027768   2.402092   1.711962   0.000000
    31  H    5.608075   5.890962   6.552049   6.065873   5.342173
    32  H    3.903150   4.254617   4.944149   4.813310   4.138769
    33  H    6.467294   5.814699   6.841005   5.600243   5.556588
    34  H    5.776363   5.543761   6.744023   6.074462   5.989800
    35  H    4.696678   2.431441   3.516905   2.086515   3.579080
    36  H    6.083202   4.053755   5.524072   4.500489   5.929747
    37  H    6.897225   5.435083   7.091945   6.142427   7.208046
    38  H    6.540264   5.638235   7.169191   6.234179   6.770972
    39  H    6.937778   7.057440   7.292284   6.449257   5.441087
    40  H    8.115374   7.910856   7.761010   6.564418   5.490860
    41  H    7.748784   7.018772   6.648338   5.076685   4.249727
    42  H    6.034276   4.823892   4.601140   2.672367   2.342059
                   31         32         33         34         35
    31  H    0.000000
    32  H    1.728876   0.000000
    33  H    2.526287   3.065025   0.000000
    34  H    2.339852   2.553968   1.735055   0.000000
    35  H    6.285098   5.047310   5.221892   5.492030   0.000000
    36  H    7.340576   6.268353   5.808021   5.794928   2.414076
    37  H    6.696948   6.028149   4.929767   4.607814   4.240078
    38  H    4.609620   4.396253   2.896270   2.345660   4.907688
    39  H    2.335922   3.470613   3.622025   4.358567   7.199273
    40  H    4.647378   5.338065   5.248543   6.409372   7.756747
    41  H    5.841452   5.891396   5.822565   7.110798   6.539033
    42  H    5.509943   4.935900   5.087317   6.159839   4.157115
                   36         37         38         39         40
    36  H    0.000000
    37  H    2.475468   0.000000
    38  H    4.257321   2.445059   0.000000
    39  H    8.657093   8.337306   6.372806   0.000000
    40  H    9.546950   9.685616   8.060145   2.456855   0.000000
    41  H    8.571996   9.293290   8.241131   4.271201   2.478117
    42  H    6.322967   7.411072   6.830861   4.925401   4.269405
                   41         42
    41  H    0.000000
    42  H    2.454339   0.000000
 Stoichiometry    C18H22N2
 Framework group  C1[X(C18H22N2)]
 Deg. of freedom   120
 Full point group                 C1      NOp   1
 Largest Abelian subgroup         C1      NOp   1
 Largest concise Abelian subgroup C1      NOp   1
                         Standard orientation:                         
 ---------------------------------------------------------------------
 Center     Atomic      Atomic             Coordinates (Angstroms)
 Number     Number       Type             X           Y           Z
 ---------------------------------------------------------------------
      1          6           0       -2.631678    2.084637   -0.945308
      2          7           0       -1.716522    3.222008   -0.955191
      3          6           0       -0.306516    2.837249   -0.930558
      4          6           0        0.265849    2.714825    0.495926
      5          6           0       -0.154368    1.487187    1.340556
      6          7           0        0.166060    0.180163    0.709967
      7          6           0       -0.943697   -0.686847    0.618432
      8          6           0       -1.300564   -1.335630   -0.580827
      9          6           0       -0.405327   -1.212501   -1.794562
     10          6           0        0.982280   -1.797563   -1.540414
     11          6           0        1.933808   -1.032162   -0.621936
     12          6           0        1.519431   -0.124833    0.397025
     13          6           0        2.540308    0.461763    1.173539
     14          6           0        3.891282    0.203960    0.966234
     15          6           0        4.273844   -0.676705   -0.031764
     16          6           0        3.300641   -1.290122   -0.808589
     17          6           0       -2.447502   -2.139872   -0.627107
     18          6           0       -3.243781   -2.317777    0.500065
     19          6           0       -2.893538   -1.699575    1.694066
     20          6           0       -1.755658   -0.897956    1.745713
     21          1           0       -2.424324    1.392658   -1.763407
     22          1           0       -3.658164    2.434171   -1.063300
     23          1           0       -2.597624    1.529026   -0.010529
     24          1           0       -1.912645    3.850132   -1.724216
     25          1           0       -0.124848    1.929928   -1.507114
     26          1           0        0.255274    3.623170   -1.438343
     27          1           0        1.352031    2.766205    0.447514
     28          1           0       -0.014133    3.613363    1.046663
     29          1           0        0.282283    1.541714    2.337934
     30          1           0       -1.223258    1.593557    1.524623
     31          1           0       -0.860637   -1.741351   -2.632985
     32          1           0       -0.350046   -0.172931   -2.114942
     33          1           0        0.876233   -2.807326   -1.139965
     34          1           0        1.468964   -1.921784   -2.509236
     35          1           0        2.296578    1.131799    1.979982
     36          1           0        4.635347    0.679964    1.587851
     37          1           0        5.319834   -0.891653   -0.198050
     38          1           0        3.619005   -1.984156   -1.573525
     39          1           0       -2.719520   -2.643593   -1.543470
     40          1           0       -4.123808   -2.943158    0.450113
     41          1           0       -3.498528   -1.837716    2.578043
     42          1           0       -1.493661   -0.425662    2.679992
 ---------------------------------------------------------------------
 Rotational constants (GHZ):           0.4456038           0.3042176           0.2360905
 Standard basis: 6-31G(d,p) (6D, 7F)
 There are   410 symmetry adapted cartesian basis functions of A   symmetry.
 There are   410 symmetry adapted basis functions of A   symmetry.
   410 basis functions,   714 primitive gaussians,   410 cartesian basis functions
    72 alpha electrons       72 beta electrons
       nuclear repulsion energy      1574.3554175016 Hartrees.
 NAtoms=   42 NActive=   42 NUniq=   42 SFac= 1.00D+00 NAtFMM=   60 NAOKFM=F Big=F
 Integral buffers will be    131072 words long.
 Raffenetti 2 integral format.
 Two-electron integral symmetry is turned on.
 Nuclear repulsion after empirical dispersion term =     1574.2598148576 Hartrees.
 One-electron integrals computed using PRISM.
 NBasis=   410 RedAO= T EigKep=  3.66D-04  NBF=   410
 NBsUse=   410 1.00D-06 EigRej= -1.00D+00 NBFU=   410
 ExpMin= 1.61D-01 ExpMax= 4.17D+03 ExpMxC= 6.27D+02 IAcc=3 IRadAn=         5 AccDes= 0.00D+00
 Harris functional with IExCor=  402 and IRadAn=       5 diagonalized for initial guess.
 HarFok:  IExCor=  402 AccDes= 0.00D+00 IRadAn=         5 IDoV= 1 UseB2=F ITyADJ=14
 ICtDFT=  3500011 ScaDFX=  1.000000  1.000000  1.000000  1.000000
 FoFCou: FMM=F IPFlag=           0 FMFlag=      100000 FMFlg1=           0
         NFxFlg=           0 DoJE=T BraDBF=F KetDBF=T FulRan=T
         wScrn=  0.000000 ICntrl=       500 IOpCl=  0 I1Cent=   200000004 NGrid=           0
         NMat0=    1 NMatS0=      1 NMatT0=    0 NMatD0=    1 NMtDS0=    0 NMtDT0=    0
 Petite list used in FoFCou.
 Requested convergence on RMS density matrix=1.00D-08 within 128 cycles.
 Requested convergence on MAX density matrix=1.00D-06.
 Requested convergence on             energy=1.00D-06.
 No special actions if energy rises.
 Integral accuracy reduced to 1.0D-05 until final iterations.
 Initial convergence to 1.0D-05 achieved.  Increase integral accuracy.
 SCF Done:  E(RB3LYP) =  -808.770512557     A.U. after   14 cycles
            NFock= 14  Conv=0.74D-08     -V/T= 2.0098

 **********************************************************************

            Population analysis using the SCF Density.

 **********************************************************************

 Orbital symmetries:
       Occupied  (A) (A) (A) (A) (A) (A) (A) (A) (A) (A) (A) (A)
                 (A) (A) (A) (A) (A) (A) (A) (A) (A) (A) (A) (A)
                 (A) (A) (A) (A) (A) (A) (A) (A) (A) (A) (A) (A)
                 (A) (A) (A) (A) (A) (A) (A) (A) (A) (A) (A) (A)
                 (A) (A) (A) (A) (A) (A) (A) (A) (A) (A) (A) (A)
                 (A) (A) (A) (A) (A) (A) (A) (A) (A) (A) (A) (A)
       Virtual   (A) (A) (A) (A) (A) (A) (A) (A) (A) (A) (A) (A)
                 (A) (A) (A) (A) (A) (A) (A) (A) (A) (A) (A) (A)
                 (A) (A) (A) (A) (A) (A) (A) (A) (A) (A) (A) (A)
                 (A) (A) (A) (A) (A) (A) (A) (A) (A) (A) (A) (A)
                 (A) (A) (A) (A) (A) (A) (A) (A) (A) (A) (A) (A)
                 (A) (A) (A) (A) (A) (A) (A) (A) (A) (A) (A) (A)
                 (A) (A) (A) (A) (A) (A) (A) (A) (A) (A) (A) (A)
                 (A) (A) (A) (A) (A) (A) (A) (A) (A) (A) (A) (A)
                 (A) (A) (A) (A) (A) (A) (A) (A) (A) (A) (A) (A)
                 (A) (A) (A) (A) (A) (A) (A) (A) (A) (A) (A) (A)
                 (A) (A) (A) (A) (A) (A) (A) (A) (A) (A) (A) (A)
                 (A) (A) (A) (A) (A) (A) (A) (A) (A) (A) (A) (A)
                 (A) (A) (A) (A) (A) (A) (A) (A) (A) (A) (A) (A)
                 (A) (A) (A) (A) (A) (A) (A) (A) (A) (A) (A) (A)
                 (A) (A) (A) (A) (A) (A) (A) (A) (A) (A) (A) (A)
                 (A) (A) (A) (A) (A) (A) (A) (A) (A) (A) (A) (A)
                 (A) (A) (A) (A) (A) (A) (A) (A) (A) (A) (A) (A)
                 (A) (A) (A) (A) (A) (A) (A) (A) (A) (A) (A) (A)
                 (A) (A) (A) (A) (A) (A) (A) (A) (A) (A) (A) (A)
                 (A) (A) (A) (A) (A) (A) (A) (A) (A) (A) (A) (A)
                 (A) (A) (A) (A) (A) (A) (A) (A) (A) (A) (A) (A)
                 (A) (A) (A) (A) (A) (A) (A) (A) (A) (A) (A) (A)
                 (A) (A) (A) (A) (A) (A) (A) (A) (A) (A) (A) (A)
                 (A) (A) (A) (A) (A) (A) (A) (A) (A) (A) (A) (A)
                 (A) (A) (A) (A) (A) (A) (A) (A) (A) (A) (A) (A)
                 (A) (A) (A) (A) (A) (A) (A) (A) (A) (A) (A) (A)
                 (A) (A) (A) (A) (A) (A) (A) (A) (A) (A) (A) (A)
                 (A) (A) (A) (A) (A) (A) (A) (A) (A) (A) (A) (A)
                 (A) (A)
 The electronic state is 1-A.
 Alpha  occ. eigenvalues --  -14.35038 -14.30785 -10.22706 -10.22021 -10.21431
 Alpha  occ. eigenvalues --  -10.19924 -10.19019 -10.18963 -10.18806 -10.18429
 Alpha  occ. eigenvalues --  -10.18320 -10.18315 -10.18258 -10.18187 -10.17987
 Alpha  occ. eigenvalues --  -10.17782 -10.17774 -10.17664 -10.17423 -10.17201
 Alpha  occ. eigenvalues --   -0.94395  -0.88908  -0.84894  -0.83795  -0.79332
 Alpha  occ. eigenvalues --   -0.76261  -0.74927  -0.74769  -0.71910  -0.70294
 Alpha  occ. eigenvalues --   -0.67943  -0.64598  -0.63778  -0.60099  -0.59626
 Alpha  occ. eigenvalues --   -0.58118  -0.57193  -0.55647  -0.51427  -0.50065
 Alpha  occ. eigenvalues --   -0.49121  -0.47156  -0.47074  -0.46460  -0.45034
 Alpha  occ. eigenvalues --   -0.44650  -0.44319  -0.42548  -0.42514  -0.41971
 Alpha  occ. eigenvalues --   -0.41202  -0.40818  -0.39202  -0.38535  -0.38471
 Alpha  occ. eigenvalues --   -0.37974  -0.36873  -0.35692  -0.35327  -0.35010
 Alpha  occ. eigenvalues --   -0.34027  -0.33878  -0.33128  -0.32562  -0.32285
 Alpha  occ. eigenvalues --   -0.32126  -0.28444  -0.24278  -0.23784  -0.23219
 Alpha  occ. eigenvalues --   -0.20830  -0.18484
 Alpha virt. eigenvalues --   -0.00130   0.00524   0.00834   0.02006   0.08050
 Alpha virt. eigenvalues --    0.09292   0.10022   0.10693   0.11467   0.12385
 Alpha virt. eigenvalues --    0.12891   0.14028   0.14555   0.14987   0.15353
 Alpha virt. eigenvalues --    0.16281   0.16484   0.17048   0.17466   0.17839
 Alpha virt. eigenvalues --    0.17988   0.18507   0.18806   0.19766   0.20390
 Alpha virt. eigenvalues --    0.21069   0.22462   0.22959   0.23091   0.24016
 Alpha virt. eigenvalues --    0.24552   0.24822   0.25781   0.27019   0.27973
 Alpha virt. eigenvalues --    0.28686   0.30248   0.31340   0.32422   0.33170
 Alpha virt. eigenvalues --    0.33671   0.35416   0.37140   0.37524   0.37870
 Alpha virt. eigenvalues --    0.41016   0.46109   0.47686   0.49811   0.50548
 Alpha virt. eigenvalues --    0.51217   0.52061   0.52236   0.53181   0.54264
 Alpha virt. eigenvalues --    0.54973   0.55549   0.56498   0.57059   0.57212
 Alpha virt. eigenvalues --    0.57883   0.58367   0.59259   0.59849   0.60493
 Alpha virt. eigenvalues --    0.60857   0.61296   0.61425   0.61670   0.62111
 Alpha virt. eigenvalues --    0.62274   0.62551   0.63251   0.64056   0.64777
 Alpha virt. eigenvalues --    0.65568   0.66598   0.68117   0.68355   0.68791
 Alpha virt. eigenvalues --    0.69992   0.71704   0.72246   0.73410   0.75036
 Alpha virt. eigenvalues --    0.75546   0.76396   0.78116   0.79828   0.80857
 Alpha virt. eigenvalues --    0.81446   0.81690   0.82041   0.82426   0.82911
 Alpha virt. eigenvalues --    0.83574   0.83898   0.84723   0.85274   0.85440
 Alpha virt. eigenvalues --    0.87068   0.88668   0.89223   0.89658   0.90235
 Alpha virt. eigenvalues --    0.90830   0.92484   0.92559   0.93539   0.94309
 Alpha virt. eigenvalues --    0.94986   0.95339   0.96290   0.96664   0.98005
 Alpha virt. eigenvalues --    0.99297   0.99726   1.00062   1.01666   1.03021
 Alpha virt. eigenvalues --    1.03074   1.04997   1.06093   1.06878   1.08691
 Alpha virt. eigenvalues --    1.10236   1.11327   1.11748   1.12985   1.14357
 Alpha virt. eigenvalues --    1.15382   1.17613   1.18746   1.21199   1.21711
 Alpha virt. eigenvalues --    1.22881   1.24116   1.26565   1.27798   1.29167
 Alpha virt. eigenvalues --    1.29771   1.31510   1.34157   1.35766   1.36290
 Alpha virt. eigenvalues --    1.37212   1.38851   1.40807   1.41594   1.42437
 Alpha virt. eigenvalues --    1.42527   1.42918   1.44192   1.45488   1.47379
 Alpha virt. eigenvalues --    1.49538   1.50382   1.51966   1.55532   1.59072
 Alpha virt. eigenvalues --    1.59836   1.61076   1.63250   1.67140   1.69539
 Alpha virt. eigenvalues --    1.70398   1.72358   1.74794   1.76672   1.76820
 Alpha virt. eigenvalues --    1.77862   1.78932   1.80066   1.81654   1.82318
 Alpha virt. eigenvalues --    1.83931   1.84274   1.85422   1.86310   1.87791
 Alpha virt. eigenvalues --    1.88780   1.89156   1.89372   1.91109   1.91345
 Alpha virt. eigenvalues --    1.93013   1.93420   1.93907   1.94238   1.94711
 Alpha virt. eigenvalues --    1.95842   1.96615   1.98549   1.99210   2.00313
 Alpha virt. eigenvalues --    2.01050   2.01074   2.01923   2.02183   2.02445
 Alpha virt. eigenvalues --    2.04644   2.05917   2.07148   2.08855   2.09278
 Alpha virt. eigenvalues --    2.09559   2.12532   2.13326   2.14604   2.15411
 Alpha virt. eigenvalues --    2.16987   2.18158   2.19327   2.20706   2.21605
 Alpha virt. eigenvalues --    2.22538   2.24288   2.25190   2.26500   2.27110
 Alpha virt. eigenvalues --    2.27792   2.29756   2.30055   2.30661   2.32245
 Alpha virt. eigenvalues --    2.32836   2.33695   2.35584   2.36564   2.37417
 Alpha virt. eigenvalues --    2.38974   2.39475   2.40488   2.40779   2.41547
 Alpha virt. eigenvalues --    2.42092   2.43629   2.44229   2.44565   2.44934
 Alpha virt. eigenvalues --    2.46482   2.47198   2.48104   2.48515   2.50380
 Alpha virt. eigenvalues --    2.52130   2.53336   2.53428   2.54600   2.55300
 Alpha virt. eigenvalues --    2.56932   2.57422   2.58627   2.59234   2.60046
 Alpha virt. eigenvalues --    2.61044   2.62406   2.63432   2.64529   2.66137
 Alpha virt. eigenvalues --    2.66378   2.67591   2.68991   2.69564   2.70968
 Alpha virt. eigenvalues --    2.71523   2.73533   2.74176   2.74585   2.75541
 Alpha virt. eigenvalues --    2.77132   2.78598   2.79721   2.80794   2.81480
 Alpha virt. eigenvalues --    2.82403   2.83868   2.87162   2.87771   2.88654
 Alpha virt. eigenvalues --    2.89881   2.90944   2.92170   2.94302   2.98116
 Alpha virt. eigenvalues --    2.98485   3.00548   3.00795   3.06479   3.07404
 Alpha virt. eigenvalues --    3.09846   3.13566   3.21894   3.23255   3.23408
 Alpha virt. eigenvalues --    3.25910   3.26647   3.29674   3.30877   3.33512
 Alpha virt. eigenvalues --    3.34643   3.36305   3.37216   3.37833   3.38462
 Alpha virt. eigenvalues --    3.39662   3.42441   3.45307   3.45555   3.47765
 Alpha virt. eigenvalues --    3.49674   3.49940   3.53326   3.55294   3.57410
 Alpha virt. eigenvalues --    3.60576   3.86141   3.87189   4.06678   4.14405
 Alpha virt. eigenvalues --    4.14937   4.17080   4.18242   4.20936   4.21741
 Alpha virt. eigenvalues --    4.24650   4.38304   4.42328   4.45244   4.46630
 Alpha virt. eigenvalues --    4.49606   4.51365   4.57078   4.63175   4.68771
 Alpha virt. eigenvalues --    4.73952   4.86072   4.88283
          Condensed to atoms (all electrons):
               1          2          3          4          5          6
     1  C    4.805712   0.319672  -0.052594  -0.001960  -0.000646   0.000939
     2  N    0.319672   6.787678   0.320719  -0.071549  -0.001807  -0.000409
     3  C   -0.052594   0.320719   4.819742   0.360673  -0.036240  -0.000614
     4  C   -0.001960  -0.071549   0.360673   5.025042   0.371160  -0.057882
     5  C   -0.000646  -0.001807  -0.036240   0.371160   4.825506   0.297761
     6  N    0.000939  -0.000409  -0.000614  -0.057882   0.297761   7.224145
     7  C   -0.001089  -0.000053   0.001098   0.002293  -0.041294   0.278404
     8  C   -0.000860   0.000024   0.000028   0.000286   0.005092  -0.074893
     9  C   -0.000420   0.000082  -0.000962   0.000003  -0.000243  -0.006322
    10  C    0.000020  -0.000001   0.000012   0.000025  -0.000024  -0.014533
    11  C   -0.000008   0.000004  -0.000066   0.000102   0.004189  -0.064830
    12  C   -0.000021   0.000020  -0.000518  -0.002051  -0.036688   0.259671
    13  C    0.000001  -0.000001   0.000068  -0.006087  -0.003322  -0.077272
    14  C   -0.000000  -0.000000   0.000004  -0.000153   0.000144   0.005904
    15  C    0.000000  -0.000000   0.000000   0.000003  -0.000007  -0.000025
    16  C   -0.000000   0.000000  -0.000003   0.000004  -0.000078   0.006089
    17  C    0.000207   0.000005  -0.000003  -0.000003  -0.000091   0.006889
    18  C    0.000070   0.000000   0.000000  -0.000001   0.000013  -0.000035
    19  C   -0.000170   0.000001  -0.000003   0.000007  -0.000117   0.006235
    20  C   -0.001198   0.000001   0.000076   0.000483  -0.012768  -0.082716
    21  H    0.377897  -0.053914  -0.010441  -0.000989  -0.000019  -0.000351
    22  H    0.379119  -0.030290   0.005442  -0.000094  -0.000015   0.000018
    23  H    0.392352  -0.044234  -0.000074   0.002998  -0.001136  -0.001718
    24  H   -0.039775   0.347541  -0.035903   0.005525  -0.000058  -0.000009
    25  H   -0.008612  -0.051727   0.374712  -0.056975  -0.009957   0.005580
    26  H    0.005858  -0.033496   0.378121  -0.033191   0.004567   0.000096
    27  H   -0.000157   0.004652  -0.031116   0.359301  -0.035651  -0.006888
    28  H    0.000176   0.002984  -0.033296   0.357870  -0.030408   0.004407
    29  H    0.000145  -0.000212   0.004943  -0.046471   0.371681  -0.042850
    30  H   -0.001839   0.005275  -0.006763  -0.037331   0.389265  -0.035816
    31  H    0.000001  -0.000002   0.000024  -0.000001  -0.000001   0.000141
    32  H    0.000135  -0.000184  -0.001071  -0.000048   0.000012   0.003341
    33  H   -0.000000   0.000000  -0.000001   0.000001   0.000000   0.000497
    34  H    0.000000  -0.000000  -0.000001  -0.000001   0.000007   0.000035
    35  H    0.000000  -0.000000   0.000033  -0.002584   0.005079  -0.012387
    36  H    0.000000  -0.000000   0.000000  -0.000006   0.000006  -0.000125
    37  H    0.000000   0.000000  -0.000000   0.000000  -0.000000   0.000006
    38  H   -0.000000  -0.000000   0.000000  -0.000000   0.000002  -0.000080
    39  H   -0.000008   0.000000  -0.000000   0.000000   0.000003  -0.000112
    40  H   -0.000000   0.000000   0.000000  -0.000000  -0.000000   0.000005
    41  H   -0.000001  -0.000000   0.000000  -0.000000  -0.000002  -0.000136
    42  H    0.000011  -0.000001   0.000005   0.000056   0.003629  -0.009428
               7          8          9         10         11         12
     1  C   -0.001089  -0.000860  -0.000420   0.000020  -0.000008  -0.000021
     2  N   -0.000053   0.000024   0.000082  -0.000001   0.000004   0.000020
     3  C    0.001098   0.000028  -0.000962   0.000012  -0.000066  -0.000518
     4  C    0.002293   0.000286   0.000003   0.000025   0.000102  -0.002051
     5  C   -0.041294   0.005092  -0.000243  -0.000024   0.004189  -0.036688
     6  N    0.278404  -0.074893  -0.006322  -0.014533  -0.064830   0.259671
     7  C    4.710785   0.519817  -0.067374  -0.000370  -0.005273  -0.014220
     8  C    0.519817   4.801148   0.363862  -0.041944  -0.003593  -0.007032
     9  C   -0.067374   0.363862   5.061097   0.336099  -0.030715  -0.002494
    10  C   -0.000370  -0.041944   0.336099   5.053124   0.353312  -0.054153
    11  C   -0.005273  -0.003593  -0.030715   0.353312   4.818709   0.517895
    12  C   -0.014220  -0.007032  -0.002494  -0.054153   0.517895   4.673622
    13  C    0.003436  -0.000146  -0.000115   0.008363  -0.042485   0.485661
    14  C   -0.000083  -0.000002   0.000005  -0.000083  -0.037469  -0.018726
    15  C    0.000039  -0.000003  -0.000179   0.006899  -0.026487  -0.042977
    16  C   -0.000379   0.000179   0.003429  -0.063232   0.519659  -0.005243
    17  C   -0.008382   0.527749  -0.059575  -0.002092  -0.000059  -0.000007
    18  C   -0.044415  -0.028499   0.007593  -0.000142   0.000001   0.000022
    19  C   -0.019954  -0.035695  -0.000153   0.000043  -0.000007  -0.000107
    20  C    0.499225  -0.052892   0.009089  -0.000020  -0.000165   0.004060
    21  H    0.000030   0.001805  -0.000226   0.000050  -0.000002   0.000016
    22  H    0.000061   0.000063   0.000010  -0.000000   0.000000   0.000000
    23  H    0.002442   0.000068  -0.000046  -0.000003   0.000001  -0.000050
    24  H   -0.000001  -0.000001  -0.000000  -0.000000   0.000000  -0.000000
    25  H   -0.000611  -0.000247  -0.001791  -0.000002   0.000160   0.001560
    26  H   -0.000002   0.000001   0.000017   0.000001  -0.000006  -0.000057
    27  H   -0.000112   0.000031  -0.000011  -0.000002   0.000223   0.005589
    28  H   -0.000126  -0.000008  -0.000001  -0.000000  -0.000004   0.000023
    29  H   -0.000326  -0.000451   0.000025  -0.000011  -0.000363  -0.006333
    30  H   -0.002635   0.000658  -0.000030  -0.000004  -0.000063   0.003602
    31  H    0.005878  -0.032008   0.361771  -0.028064   0.003966   0.000167
    32  H   -0.008291  -0.028658   0.365105  -0.039542  -0.004593  -0.000363
    33  H   -0.000445  -0.003577  -0.040941   0.372484  -0.034064  -0.001782
    34  H    0.000252   0.005006  -0.033324   0.364519  -0.033583   0.003739
    35  H   -0.000016   0.000000   0.000004  -0.000152   0.004729  -0.039220
    36  H    0.000000   0.000000  -0.000000   0.000007   0.001029   0.003673
    37  H   -0.000000   0.000000   0.000002  -0.000179   0.003968   0.001115
    38  H   -0.000003  -0.000003   0.000231  -0.010399  -0.046447   0.004393
    39  H    0.004781  -0.037491  -0.011517   0.000363   0.000006  -0.000006
    40  H    0.001131   0.003843  -0.000182   0.000001   0.000000  -0.000000
    41  H    0.003557   0.001029   0.000009  -0.000000   0.000000   0.000000
    42  H   -0.038601   0.005169  -0.000183  -0.000001   0.000025   0.000033
              13         14         15         16         17         18
     1  C    0.000001  -0.000000   0.000000  -0.000000   0.000207   0.000070
     2  N   -0.000001  -0.000000  -0.000000   0.000000   0.000005   0.000000
     3  C    0.000068   0.000004   0.000000  -0.000003  -0.000003   0.000000
     4  C   -0.006087  -0.000153   0.000003   0.000004  -0.000003  -0.000001
     5  C   -0.003322   0.000144  -0.000007  -0.000078  -0.000091   0.000013
     6  N   -0.077272   0.005904  -0.000025   0.006089   0.006889  -0.000035
     7  C    0.003436  -0.000083   0.000039  -0.000379  -0.008382  -0.044415
     8  C   -0.000146  -0.000002  -0.000003   0.000179   0.527749  -0.028499
     9  C   -0.000115   0.000005  -0.000179   0.003429  -0.059575   0.007593
    10  C    0.008363  -0.000083   0.006899  -0.063232  -0.002092  -0.000142
    11  C   -0.042485  -0.037469  -0.026487   0.519659  -0.000059   0.000001
    12  C    0.485661  -0.018726  -0.042977  -0.005243  -0.000007   0.000022
    13  C    4.964881   0.531226  -0.032689  -0.056546   0.000004  -0.000000
    14  C    0.531226   4.816642   0.545709  -0.031576  -0.000000   0.000000
    15  C   -0.032689   0.545709   4.834852   0.516015  -0.000000   0.000000
    16  C   -0.056546  -0.031576   0.516015   4.923272   0.000001  -0.000000
    17  C    0.000004  -0.000000  -0.000000   0.000001   4.929117   0.511123
    18  C   -0.000000   0.000000   0.000000  -0.000000   0.511123   4.839826
    19  C   -0.000002   0.000000   0.000000  -0.000000  -0.031488   0.544143
    20  C    0.000125  -0.000003   0.000000  -0.000009  -0.055867  -0.030904
    21  H   -0.000000  -0.000000   0.000000  -0.000000   0.000395  -0.000010
    22  H   -0.000000  -0.000000   0.000000   0.000000   0.000014  -0.000009
    23  H    0.000001   0.000000  -0.000000  -0.000000  -0.000364   0.000049
    24  H    0.000000   0.000000  -0.000000  -0.000000  -0.000000   0.000000
    25  H   -0.000072  -0.000009   0.000001  -0.000010   0.000005   0.000001
    26  H   -0.000015  -0.000001   0.000000   0.000001   0.000000  -0.000000
    27  H    0.005441  -0.000044  -0.000017  -0.000037   0.000000  -0.000000
    28  H   -0.000003   0.000002   0.000000  -0.000000   0.000000   0.000000
    29  H    0.001376   0.000039  -0.000005   0.000008   0.000006   0.000002
    30  H    0.000080  -0.000010   0.000000   0.000002  -0.000079  -0.000024
    31  H    0.000003   0.000000   0.000002  -0.000155  -0.007515   0.000244
    32  H   -0.000092  -0.000010  -0.000001   0.000342   0.002550  -0.000283
    33  H   -0.000270   0.000063  -0.000233  -0.003179   0.001831  -0.000076
    34  H   -0.000165   0.000011   0.000400  -0.007148  -0.000050   0.000004
    35  H    0.360730  -0.041437   0.005238   0.000876   0.000000   0.000000
    36  H   -0.036739   0.364289  -0.041445   0.004700   0.000000  -0.000000
    37  H    0.004943  -0.042339   0.363701  -0.038122  -0.000000  -0.000000
    38  H    0.000514   0.005432  -0.044085   0.368819  -0.000000  -0.000000
    39  H   -0.000000   0.000000  -0.000000  -0.000000   0.363194  -0.045584
    40  H    0.000000  -0.000000  -0.000000   0.000000  -0.037249   0.364684
    41  H    0.000000   0.000000  -0.000000   0.000000   0.004531  -0.041349
    42  H    0.000004   0.000001  -0.000000   0.000000   0.000762   0.004957
              19         20         21         22         23         24
     1  C   -0.000170  -0.001198   0.377897   0.379119   0.392352  -0.039775
     2  N    0.000001   0.000001  -0.053914  -0.030290  -0.044234   0.347541
     3  C   -0.000003   0.000076  -0.010441   0.005442  -0.000074  -0.035903
     4  C    0.000007   0.000483  -0.000989  -0.000094   0.002998   0.005525
     5  C   -0.000117  -0.012768  -0.000019  -0.000015  -0.001136  -0.000058
     6  N    0.006235  -0.082716  -0.000351   0.000018  -0.001718  -0.000009
     7  C   -0.019954   0.499225   0.000030   0.000061   0.002442  -0.000001
     8  C   -0.035695  -0.052892   0.001805   0.000063   0.000068  -0.000001
     9  C   -0.000153   0.009089  -0.000226   0.000010  -0.000046  -0.000000
    10  C    0.000043  -0.000020   0.000050  -0.000000  -0.000003  -0.000000
    11  C   -0.000007  -0.000165  -0.000002   0.000000   0.000001   0.000000
    12  C   -0.000107   0.004060   0.000016   0.000000  -0.000050  -0.000000
    13  C   -0.000002   0.000125  -0.000000  -0.000000   0.000001   0.000000
    14  C    0.000000  -0.000003  -0.000000  -0.000000   0.000000   0.000000
    15  C    0.000000   0.000000   0.000000   0.000000  -0.000000  -0.000000
    16  C   -0.000000  -0.000009  -0.000000   0.000000  -0.000000  -0.000000
    17  C   -0.031488  -0.055867   0.000395   0.000014  -0.000364  -0.000000
    18  C    0.544143  -0.030904  -0.000010  -0.000009   0.000049   0.000000
    19  C    4.828574   0.518718  -0.000008  -0.000012   0.000666  -0.000000
    20  C    0.518718   4.962466  -0.000133   0.000017   0.002828   0.000000
    21  H   -0.000008  -0.000133   0.676787  -0.037706  -0.051950  -0.003207
    22  H   -0.000012   0.000017  -0.037706   0.619461  -0.027957  -0.005534
    23  H    0.000666   0.002828  -0.051950  -0.027957   0.601662   0.005895
    24  H   -0.000000   0.000000  -0.003207  -0.005534   0.005895   0.497774
    25  H   -0.000000  -0.000026   0.013461   0.000133  -0.002496   0.001201
    26  H   -0.000000  -0.000001   0.000267  -0.000328  -0.000088  -0.009910
    27  H    0.000000  -0.000030   0.000059   0.000004  -0.000143  -0.000274
    28  H   -0.000000  -0.000012   0.000098  -0.000015  -0.000270   0.000105
    29  H   -0.000045   0.001853  -0.000016  -0.000002   0.000164   0.000006
    30  H   -0.000026   0.000166   0.000419   0.000086  -0.000542  -0.000131
    31  H    0.000005  -0.000192   0.000122  -0.000000  -0.000006   0.000000
    32  H    0.000036  -0.000143   0.001615  -0.000022  -0.000009  -0.000005
    33  H   -0.000009  -0.000216   0.000000   0.000000   0.000000   0.000000
    34  H   -0.000001   0.000009  -0.000000  -0.000000  -0.000000   0.000000
    35  H   -0.000000   0.000014   0.000000   0.000000  -0.000000   0.000000
    36  H    0.000000   0.000000  -0.000000   0.000000  -0.000000  -0.000000
    37  H   -0.000000   0.000000  -0.000000  -0.000000   0.000000  -0.000000
    38  H    0.000000  -0.000000   0.000000  -0.000000   0.000000   0.000000
    39  H    0.005034   0.000498   0.000018   0.000000   0.000002  -0.000000
    40  H   -0.041846   0.004617  -0.000001   0.000000   0.000001   0.000000
    41  H    0.364170  -0.035131  -0.000000   0.000000  -0.000002  -0.000000
    42  H   -0.041935   0.360669  -0.000001  -0.000000  -0.000054   0.000000
              25         26         27         28         29         30
     1  C   -0.008612   0.005858  -0.000157   0.000176   0.000145  -0.001839
     2  N   -0.051727  -0.033496   0.004652   0.002984  -0.000212   0.005275
     3  C    0.374712   0.378121  -0.031116  -0.033296   0.004943  -0.006763
     4  C   -0.056975  -0.033191   0.359301   0.357870  -0.046471  -0.037331
     5  C   -0.009957   0.004567  -0.035651  -0.030408   0.371681   0.389265
     6  N    0.005580   0.000096  -0.006888   0.004407  -0.042850  -0.035816
     7  C   -0.000611  -0.000002  -0.000112  -0.000126  -0.000326  -0.002635
     8  C   -0.000247   0.000001   0.000031  -0.000008  -0.000451   0.000658
     9  C   -0.001791   0.000017  -0.000011  -0.000001   0.000025  -0.000030
    10  C   -0.000002   0.000001  -0.000002  -0.000000  -0.000011  -0.000004
    11  C    0.000160  -0.000006   0.000223  -0.000004  -0.000363  -0.000063
    12  C    0.001560  -0.000057   0.005589   0.000023  -0.006333   0.003602
    13  C   -0.000072  -0.000015   0.005441  -0.000003   0.001376   0.000080
    14  C   -0.000009  -0.000001  -0.000044   0.000002   0.000039  -0.000010
    15  C    0.000001   0.000000  -0.000017   0.000000  -0.000005   0.000000
    16  C   -0.000010   0.000001  -0.000037  -0.000000   0.000008   0.000002
    17  C    0.000005   0.000000   0.000000   0.000000   0.000006  -0.000079
    18  C    0.000001  -0.000000  -0.000000   0.000000   0.000002  -0.000024
    19  C   -0.000000  -0.000000   0.000000  -0.000000  -0.000045  -0.000026
    20  C   -0.000026  -0.000001  -0.000030  -0.000012   0.001853   0.000166
    21  H    0.013461   0.000267   0.000059   0.000098  -0.000016   0.000419
    22  H    0.000133  -0.000328   0.000004  -0.000015  -0.000002   0.000086
    23  H   -0.002496  -0.000088  -0.000143  -0.000270   0.000164  -0.000542
    24  H    0.001201  -0.009910  -0.000274   0.000105   0.000006  -0.000131
    25  H    0.664191  -0.039023   0.002684   0.006524   0.000060   0.000652
    26  H   -0.039023   0.646403  -0.005122  -0.002712  -0.000138   0.000006
    27  H    0.002684  -0.005122   0.638940  -0.033542  -0.008622   0.006481
    28  H    0.006524  -0.002712  -0.033542   0.629439   0.000676  -0.003800
    29  H    0.000060  -0.000138  -0.008622   0.000676   0.669239  -0.044843
    30  H    0.000652   0.000006   0.006481  -0.003800  -0.044843   0.603394
    31  H    0.000000  -0.000001  -0.000000   0.000000   0.000000   0.000000
    32  H    0.007576   0.000000   0.000002   0.000004   0.000002   0.000029
    33  H    0.000001   0.000000  -0.000000  -0.000000  -0.000001   0.000000
    34  H    0.000015   0.000000   0.000000   0.000000   0.000000  -0.000000
    35  H    0.000013   0.000002   0.000442   0.000146   0.002064  -0.000040
    36  H   -0.000000   0.000000  -0.000001   0.000000   0.000013  -0.000000
    37  H    0.000000  -0.000000  -0.000000  -0.000000   0.000000  -0.000000
    38  H   -0.000000   0.000000  -0.000000   0.000000  -0.000000  -0.000000
    39  H   -0.000000  -0.000000   0.000000   0.000000  -0.000000   0.000001
    40  H    0.000000  -0.000000   0.000000  -0.000000   0.000000  -0.000000
    41  H    0.000000   0.000000  -0.000000   0.000000   0.000001   0.000002
    42  H   -0.000001  -0.000000  -0.000003   0.000003   0.000377   0.000365
              31         32         33         34         35         36
     1  C    0.000001   0.000135  -0.000000   0.000000   0.000000   0.000000
     2  N   -0.000002  -0.000184   0.000000  -0.000000  -0.000000  -0.000000
     3  C    0.000024  -0.001071  -0.000001  -0.000001   0.000033   0.000000
     4  C   -0.000001  -0.000048   0.000001  -0.000001  -0.002584  -0.000006
     5  C   -0.000001   0.000012   0.000000   0.000007   0.005079   0.000006
     6  N    0.000141   0.003341   0.000497   0.000035  -0.012387  -0.000125
     7  C    0.005878  -0.008291  -0.000445   0.000252  -0.000016   0.000000
     8  C   -0.032008  -0.028658  -0.003577   0.005006   0.000000   0.000000
     9  C    0.361771   0.365105  -0.040941  -0.033324   0.000004  -0.000000
    10  C   -0.028064  -0.039542   0.372484   0.364519  -0.000152   0.000007
    11  C    0.003966  -0.004593  -0.034064  -0.033583   0.004729   0.001029
    12  C    0.000167  -0.000363  -0.001782   0.003739  -0.039220   0.003673
    13  C    0.000003  -0.000092  -0.000270  -0.000165   0.360730  -0.036739
    14  C    0.000000  -0.000010   0.000063   0.000011  -0.041437   0.364289
    15  C    0.000002  -0.000001  -0.000233   0.000400   0.005238  -0.041445
    16  C   -0.000155   0.000342  -0.003179  -0.007148   0.000876   0.004700
    17  C   -0.007515   0.002550   0.001831  -0.000050   0.000000   0.000000
    18  C    0.000244  -0.000283  -0.000076   0.000004   0.000000  -0.000000
    19  C    0.000005   0.000036  -0.000009  -0.000001  -0.000000   0.000000
    20  C   -0.000192  -0.000143  -0.000216   0.000009   0.000014   0.000000
    21  H    0.000122   0.001615   0.000000  -0.000000   0.000000  -0.000000
    22  H   -0.000000  -0.000022   0.000000  -0.000000   0.000000   0.000000
    23  H   -0.000006  -0.000009   0.000000  -0.000000  -0.000000  -0.000000
    24  H    0.000000  -0.000005   0.000000   0.000000   0.000000  -0.000000
    25  H    0.000000   0.007576   0.000001   0.000015   0.000013  -0.000000
    26  H   -0.000001   0.000000   0.000000   0.000000   0.000002   0.000000
    27  H   -0.000000   0.000002  -0.000000   0.000000   0.000442  -0.000001
    28  H    0.000000   0.000004  -0.000000   0.000000   0.000146   0.000000
    29  H    0.000000   0.000002  -0.000001   0.000000   0.002064   0.000013
    30  H    0.000000   0.000029   0.000000  -0.000000  -0.000040  -0.000000
    31  H    0.641017  -0.036577  -0.002744  -0.005970  -0.000000   0.000000
    32  H   -0.036577   0.616373   0.005989  -0.002043   0.000004   0.000000
    33  H   -0.002744   0.005989   0.621013  -0.036847   0.000002  -0.000000
    34  H   -0.005970  -0.002043  -0.036847   0.639229   0.000003   0.000000
    35  H   -0.000000   0.000004   0.000002   0.000003   0.644253  -0.007118
    36  H    0.000000   0.000000  -0.000000   0.000000  -0.007118   0.638222
    37  H   -0.000000   0.000000   0.000002  -0.000013  -0.000240  -0.006026
    38  H   -0.000015   0.000013   0.001356   0.005019   0.000017  -0.000242
    39  H    0.006748   0.000199   0.000146  -0.000034  -0.000000  -0.000000
    40  H   -0.000012   0.000003   0.000002  -0.000000   0.000000   0.000000
    41  H   -0.000000  -0.000000  -0.000000   0.000000  -0.000000  -0.000000
    42  H    0.000003  -0.000001   0.000001  -0.000000  -0.000018  -0.000000
              37         38         39         40         41         42
     1  C    0.000000  -0.000000  -0.000008  -0.000000  -0.000001   0.000011
     2  N    0.000000  -0.000000   0.000000   0.000000  -0.000000  -0.000001
     3  C   -0.000000   0.000000  -0.000000   0.000000   0.000000   0.000005
     4  C    0.000000  -0.000000   0.000000  -0.000000  -0.000000   0.000056
     5  C   -0.000000   0.000002   0.000003  -0.000000  -0.000002   0.003629
     6  N    0.000006  -0.000080  -0.000112   0.000005  -0.000136  -0.009428
     7  C   -0.000000  -0.000003   0.004781   0.001131   0.003557  -0.038601
     8  C    0.000000  -0.000003  -0.037491   0.003843   0.001029   0.005169
     9  C    0.000002   0.000231  -0.011517  -0.000182   0.000009  -0.000183
    10  C   -0.000179  -0.010399   0.000363   0.000001  -0.000000  -0.000001
    11  C    0.003968  -0.046447   0.000006   0.000000   0.000000   0.000025
    12  C    0.001115   0.004393  -0.000006  -0.000000   0.000000   0.000033
    13  C    0.004943   0.000514  -0.000000   0.000000   0.000000   0.000004
    14  C   -0.042339   0.005432   0.000000  -0.000000   0.000000   0.000001
    15  C    0.363701  -0.044085  -0.000000  -0.000000  -0.000000  -0.000000
    16  C   -0.038122   0.368819  -0.000000   0.000000   0.000000   0.000000
    17  C   -0.000000  -0.000000   0.363194  -0.037249   0.004531   0.000762
    18  C   -0.000000  -0.000000  -0.045584   0.364684  -0.041349   0.004957
    19  C   -0.000000   0.000000   0.005034  -0.041846   0.364170  -0.041935
    20  C    0.000000  -0.000000   0.000498   0.004617  -0.035131   0.360669
    21  H   -0.000000   0.000000   0.000018  -0.000001  -0.000000  -0.000001
    22  H   -0.000000  -0.000000   0.000000   0.000000   0.000000  -0.000000
    23  H    0.000000   0.000000   0.000002   0.000001  -0.000002  -0.000054
    24  H   -0.000000   0.000000  -0.000000   0.000000  -0.000000   0.000000
    25  H    0.000000  -0.000000  -0.000000   0.000000   0.000000  -0.000001
    26  H   -0.000000   0.000000  -0.000000  -0.000000   0.000000  -0.000000
    27  H   -0.000000  -0.000000   0.000000   0.000000  -0.000000  -0.000003
    28  H   -0.000000   0.000000   0.000000  -0.000000   0.000000   0.000003
[...]
    31  H    0.000061  -0.000002  -0.000017  -0.000407  -0.002617   0.000333
    32  H    0.000398   0.000075  -0.000136  -0.000388   0.000679   0.000359
    33  H   -0.000836   0.000583  -0.000700  -0.011372  -0.000124  -0.000061
    34  H   -0.000077  -0.000013   0.001009  -0.008283   0.000507   0.000016
    35  H    0.423362  -0.019692   0.003303   0.000211  -0.000019   0.000009
    36  H   -0.028430   0.399326  -0.032703   0.003760  -0.000000   0.000000
    37  H    0.007343  -0.037985   0.415426  -0.039890  -0.000000   0.000000
    38  H   -0.000668   0.005128  -0.033968   0.406215   0.000003  -0.000000
    39  H   -0.000006   0.000001  -0.000001   0.000018   0.402232  -0.036830
    40  H    0.000001  -0.000000  -0.000000  -0.000000  -0.037521   0.412069
    41  H    0.000001  -0.000000   0.000000  -0.000000   0.002745  -0.032490
    42  H    0.000717  -0.000076   0.000001  -0.000043   0.000204   0.003524
              19         20         21         22         23         24
     1  C    0.000133   0.001176   0.452532   0.404502   0.388908  -0.048872
     2  N    0.000126  -0.000513  -0.058003  -0.029675  -0.047677   0.359604
     3  C   -0.000411   0.002045  -0.014631   0.010043  -0.000766  -0.042118
     4  C    0.000601   0.000357  -0.003574  -0.000508   0.006476   0.012047
     5  C   -0.002095  -0.014284  -0.000714   0.000402   0.011868  -0.002979
     6  N    0.012361  -0.067950   0.000193   0.000043  -0.009713  -0.000037
     7  C   -0.015544   0.398268  -0.002648   0.000322   0.004459   0.000238
     8  C   -0.063982  -0.019835   0.005566  -0.000275  -0.014292  -0.000061
     9  C   -0.009506   0.026821  -0.005303   0.000347   0.006131  -0.000040
    10  C    0.000837  -0.000971   0.000123  -0.000004  -0.000027   0.000007
    11  C    0.000488   0.002115   0.000244   0.000003  -0.001057  -0.000024
    12  C   -0.002051  -0.000224  -0.000448  -0.000040   0.003074   0.000120
    13  C   -0.000992   0.008610  -0.000059   0.000001   0.000334   0.000021
    14  C    0.000032  -0.000951   0.000002   0.000000  -0.000011  -0.000001
    15  C    0.000005   0.000220  -0.000001  -0.000000   0.000005   0.000000
    16  C    0.000122  -0.001856   0.000020   0.000000  -0.000076  -0.000001
    17  C   -0.008423  -0.109166   0.000802  -0.000088  -0.005168  -0.000004
    18  C    0.492904  -0.000248  -0.000159  -0.000014   0.001764   0.000002
    19  C    4.981758   0.408309   0.000115  -0.000015  -0.002364  -0.000002
    20  C    0.408309   5.196970  -0.000523   0.000029   0.007225  -0.000002
    21  H    0.000115  -0.000523   0.582773  -0.028704  -0.074516  -0.008432
    22  H   -0.000015   0.000029  -0.028704   0.522808  -0.014468  -0.007583
    23  H   -0.002364   0.007225  -0.074516  -0.014468   0.605620   0.011503
    24  H   -0.000002  -0.000002  -0.008432  -0.007583   0.011503   0.534636
    25  H    0.000068  -0.000758   0.008678   0.000692  -0.010122   0.002857
    26  H    0.000002   0.000003   0.002783  -0.000405  -0.001537  -0.017344
    27  H    0.000012  -0.000234   0.000297   0.000020  -0.000841  -0.000739
    28  H   -0.000005  -0.000136   0.000152   0.000028  -0.000497   0.000241
    29  H   -0.001713   0.001992  -0.000014  -0.000020   0.000402  -0.000007
    30  H    0.002140  -0.024645   0.002151  -0.000155  -0.016149  -0.000962
    31  H    0.000009  -0.000237  -0.000056  -0.000015   0.000182   0.000002
    32  H   -0.000242   0.002950  -0.001322   0.000207  -0.001000   0.000041
    33  H    0.000071  -0.000591  -0.000003   0.000000   0.000008   0.000000
    34  H   -0.000025   0.000137  -0.000006   0.000000  -0.000004  -0.000000
    35  H   -0.000110   0.000729  -0.000003  -0.000000   0.000031   0.000004
    36  H   -0.000000  -0.000002   0.000000  -0.000000  -0.000000  -0.000000
    37  H    0.000000   0.000001  -0.000000  -0.000000   0.000000   0.000000
    38  H    0.000000   0.000002  -0.000000   0.000000   0.000000   0.000000
    39  H    0.005738  -0.002251   0.000011  -0.000001  -0.000068   0.000000
    40  H   -0.034996   0.005579  -0.000002   0.000000   0.000035   0.000000
    41  H    0.399829  -0.025941  -0.000000  -0.000000  -0.000004   0.000000
    42  H   -0.025702   0.411718   0.000007  -0.000005  -0.000150  -0.000001
              25         26         27         28         29         30
     1  C   -0.006710   0.006729   0.000267  -0.000150   0.000089  -0.004367
     2  N   -0.052759  -0.034189   0.007330   0.004156  -0.000432   0.023439
     3  C    0.462683   0.441389  -0.048817  -0.014250   0.013545  -0.016480
     4  C   -0.085593  -0.084547   0.414797   0.397204  -0.078407  -0.027449
     5  C   -0.007972   0.016060  -0.027742  -0.050581   0.450031   0.433217
     6  N   -0.002398   0.000599  -0.003255   0.006415  -0.045975  -0.048543
     7  C   -0.000903  -0.000286   0.000218  -0.000651  -0.006583   0.014961
     8  C    0.001729   0.000067   0.000201  -0.000022  -0.002026   0.002998
     9  C   -0.004931   0.000005   0.000036  -0.000014   0.000695  -0.000928
    10  C    0.000477  -0.000036  -0.000086  -0.000011  -0.000220  -0.000003
    11  C   -0.000413   0.000101  -0.001021  -0.000169  -0.001510   0.000296
    12  C    0.004850  -0.000636  -0.009255  -0.000036  -0.004257  -0.001357
    13  C   -0.000715  -0.000573  -0.005647   0.000272  -0.009770   0.000971
    14  C    0.000113   0.000015   0.003401  -0.000138  -0.002293   0.000212
    15  C   -0.000140   0.000000  -0.000348   0.000018   0.000411  -0.000040
    16  C    0.000420   0.000023   0.000823  -0.000010  -0.000544   0.000160
    17  C    0.000149   0.000004   0.000004   0.000000  -0.000155   0.000845
    18  C   -0.000041  -0.000000  -0.000003   0.000001   0.000199  -0.000918
    19  C    0.000068   0.000002   0.000012  -0.000005  -0.001713   0.002140
    20  C   -0.000758   0.000003  -0.000234  -0.000136   0.001992  -0.024645
    21  H    0.008678   0.002783   0.000297   0.000152  -0.000014   0.002151
    22  H    0.000692  -0.000405   0.000020   0.000028  -0.000020  -0.000155
    23  H   -0.010122  -0.001537  -0.000841  -0.000497   0.000402  -0.016149
    24  H    0.002857  -0.017344  -0.000739   0.000241  -0.000007  -0.000962
    25  H    0.531567  -0.016149   0.006751   0.006717  -0.000911   0.005201
    26  H   -0.016149   0.545360   0.000651  -0.001857   0.000048   0.000366
    27  H    0.006751   0.000651   0.511340  -0.015204  -0.001323   0.005747
    28  H    0.006717  -0.001857  -0.015204   0.534457  -0.002047   0.001233
    29  H   -0.000911   0.000048  -0.001323  -0.002047   0.531436  -0.022768
    30  H    0.005201   0.000366   0.005747   0.001233  -0.022768   0.451110
    31  H    0.000114   0.000000  -0.000002   0.000001   0.000010  -0.000014
    32  H   -0.000663   0.000190  -0.000146   0.000002  -0.000061  -0.000124
    33  H   -0.000001  -0.000000  -0.000003  -0.000000  -0.000011   0.000002
    34  H   -0.000022   0.000004   0.000010   0.000001   0.000006  -0.000001
    35  H   -0.000106  -0.000059  -0.004600   0.000580   0.005400  -0.000103
    36  H    0.000001   0.000001   0.000113   0.000002   0.000005   0.000000
    37  H   -0.000000  -0.000000  -0.000003  -0.000000   0.000002  -0.000000
    38  H    0.000005  -0.000000  -0.000002   0.000000  -0.000002   0.000000
    39  H    0.000002  -0.000000  -0.000000   0.000000  -0.000003   0.000007
    40  H   -0.000000  -0.000000  -0.000000  -0.000000   0.000001  -0.000005
    41  H    0.000000   0.000000  -0.000000   0.000000   0.000012   0.000037
    42  H    0.000009   0.000004   0.000017   0.000045   0.000585  -0.004495
              31         32         33         34         35         36
     1  C    0.000145   0.000993   0.000004   0.000017  -0.000021   0.000000
     2  N   -0.000011  -0.000714   0.000001  -0.000005  -0.000082   0.000000
     3  C    0.000107   0.000935  -0.000043   0.000115   0.001603   0.000007
     4  C   -0.000035   0.000096   0.000049  -0.000120  -0.015141  -0.000065
     5  C   -0.000058  -0.001191  -0.000097   0.000140   0.016745   0.000171
     6  N    0.001874  -0.012756  -0.002206   0.001262  -0.009706  -0.000251
     7  C    0.011590  -0.017847   0.002187  -0.001001  -0.000604   0.000059
     8  C   -0.057836  -0.069615  -0.012221   0.014268  -0.000423  -0.000003
     9  C    0.456023   0.468627  -0.031913  -0.049292   0.000182  -0.000006
    10  C   -0.067116  -0.058048   0.436189   0.435837  -0.000242   0.000073
    11  C    0.012904  -0.012705  -0.058058  -0.061745  -0.001227   0.001148
    12  C   -0.001178   0.010370   0.003116   0.007887  -0.054798   0.006549
    13  C    0.000061   0.000398  -0.000836  -0.000077   0.423362  -0.028430
    14  C   -0.000002   0.000075   0.000583  -0.000013  -0.019692   0.399326
    15  C   -0.000017  -0.000136  -0.000700   0.001009   0.003303  -0.032703
    16  C   -0.000407  -0.000388  -0.011372  -0.008283   0.000211   0.003760
    17  C   -0.002617   0.000679  -0.000124   0.000507  -0.000019  -0.000000
    18  C    0.000333   0.000359  -0.000061   0.000016   0.000009   0.000000
    19  C    0.000009  -0.000242   0.000071  -0.000025  -0.000110  -0.000000
    20  C   -0.000237   0.002950  -0.000591   0.000137   0.000729  -0.000002
    21  H   -0.000056  -0.001322  -0.000003  -0.000006  -0.000003   0.000000
    22  H   -0.000015   0.000207   0.000000   0.000000  -0.000000  -0.000000
    23  H    0.000182  -0.001000   0.000008  -0.000004   0.000031  -0.000000
    24  H    0.000002   0.000041   0.000000  -0.000000   0.000004  -0.000000
    25  H    0.000114  -0.000663  -0.000001  -0.000022  -0.000106   0.000001
    26  H    0.000000   0.000190  -0.000000   0.000004  -0.000059   0.000001
    27  H   -0.000002  -0.000146  -0.000003   0.000010  -0.004600   0.000113
    28  H    0.000001   0.000002  -0.000000   0.000001   0.000580   0.000002
    29  H    0.000010  -0.000061  -0.000011   0.000006   0.005400   0.000005
    30  H   -0.000014  -0.000124   0.000002  -0.000001  -0.000103   0.000000
    31  H    0.515857  -0.017374  -0.001043  -0.006390   0.000001   0.000000
    32  H   -0.017374   0.532277   0.007264  -0.000216   0.000013   0.000001
    33  H   -0.001043   0.007264   0.530471  -0.031514   0.000005   0.000000
    34  H   -0.006390  -0.000216  -0.031514   0.542724   0.000018  -0.000000
    35  H    0.000001   0.000013   0.000005   0.000018   0.496592  -0.003508
    36  H    0.000000   0.000001   0.000000  -0.000000  -0.003508   0.518163
    37  H   -0.000000  -0.000001  -0.000023  -0.000036  -0.000261  -0.003643
    38  H   -0.000032   0.000023   0.000014   0.000223   0.000057  -0.000361
    39  H    0.003061  -0.000010   0.000454  -0.000077  -0.000000  -0.000000
    40  H   -0.000044   0.000014   0.000003  -0.000001   0.000000   0.000000
    41  H   -0.000000  -0.000005  -0.000003   0.000000   0.000000  -0.000000
    42  H    0.000014   0.000033  -0.000003   0.000000   0.000079   0.000000
              37         38         39         40         41         42
     1  C    0.000000  -0.000000  -0.000007   0.000001   0.000001   0.000145
     2  N    0.000000  -0.000000   0.000001  -0.000000  -0.000001   0.000067
     3  C   -0.000001   0.000001  -0.000005   0.000000   0.000001   0.000169
     4  C    0.000006  -0.000006   0.000004  -0.000000  -0.000004  -0.000131
     5  C   -0.000009   0.000035   0.000058  -0.000002   0.000097   0.001092
     6  N    0.000025  -0.000361  -0.000348   0.000022  -0.000303  -0.003592
     7  C   -0.000008   0.000064   0.017748  -0.000050   0.004414  -0.042505
     8  C   -0.000005  -0.000095  -0.040678   0.006375   0.001906   0.005921
     9  C    0.000032   0.000881  -0.006568  -0.000150   0.000111   0.000014
    10  C   -0.000232  -0.002206  -0.001087   0.000031  -0.000011  -0.000032
    11  C    0.007632  -0.050621   0.000227   0.000000   0.000006  -0.000025
    12  C   -0.001058   0.015318  -0.000091   0.000000   0.000025  -0.000818
    13  C    0.007343  -0.000668  -0.000006   0.000001   0.000001   0.000717
    14  C   -0.037985   0.005128   0.000001  -0.000000  -0.000000  -0.000076
    15  C    0.415426  -0.033968  -0.000001  -0.000000   0.000000   0.000001
    16  C   -0.039890   0.406215   0.000018  -0.000000  -0.000000  -0.000043
    17  C   -0.000000   0.000003   0.402232  -0.037521   0.002745   0.000204
    18  C    0.000000  -0.000000  -0.036830   0.412069  -0.032490   0.003524
    19  C    0.000000   0.000000   0.005738  -0.034996   0.399829  -0.025702
    20  C    0.000001   0.000002  -0.002251   0.005579  -0.025941   0.411718
    21  H   -0.000000  -0.000000   0.000011  -0.000002  -0.000000   0.000007
    22  H   -0.000000   0.000000  -0.000001   0.000000  -0.000000  -0.000005
    23  H    0.000000   0.000000  -0.000068   0.000035  -0.000004  -0.000150
    24  H    0.000000   0.000000   0.000000   0.000000   0.000000  -0.000001
    25  H   -0.000000   0.000005   0.000002  -0.000000   0.000000   0.000009
    26  H   -0.000000  -0.000000  -0.000000  -0.000000   0.000000   0.000004
    27  H   -0.000003  -0.000002  -0.000000  -0.000000  -0.000000   0.000017
    28  H   -0.000000   0.000000   0.000000  -0.000000   0.000000   0.000045
    29  H    0.000002  -0.000002  -0.000003   0.000001   0.000012   0.000585
    30  H   -0.000000   0.000000   0.000007  -0.000005   0.000037  -0.004495
    31  H   -0.000000  -0.000032   0.003061  -0.000044  -0.000000   0.000014
    32  H   -0.000001   0.000023  -0.000010   0.000014  -0.000005   0.000033
    33  H   -0.000023   0.000014   0.000454   0.000003  -0.000003  -0.000003
    34  H   -0.000036   0.000223  -0.000077  -0.000001   0.000000   0.000000
    35  H   -0.000261   0.000057  -0.000000   0.000000   0.000000   0.000079
    36  H   -0.003643  -0.000361  -0.000000   0.000000  -0.000000   0.000000
    37  H    0.518480  -0.004351  -0.000000  -0.000000   0.000000   0.000000
    38  H   -0.004351   0.526031   0.000000  -0.000000  -0.000000  -0.000000
    39  H   -0.000000   0.000000   0.527501  -0.003837  -0.000343   0.000041
    40  H   -0.000000  -0.000000  -0.003837   0.516113  -0.003748  -0.000254
    41  H    0.000000  -0.000000  -0.000343  -0.003748   0.515474  -0.003338
    42  H    0.000000  -0.000000   0.000041  -0.000254  -0.003338   0.494300
 Mulliken charges:
               1
     1  C   -0.352956
     2  N   -0.369124
     3  C   -0.251240
     4  C   -0.177224
     5  C   -0.441731
     6  N   -0.085026
     7  C    0.061257
     8  C    0.041478
     9  C   -0.408276
    10  C   -0.314154
    11  C    0.053902
    12  C    0.150176
    13  C   -0.247028
    14  C   -0.149311
    15  C   -0.167594
    16  C   -0.177910
    17  C   -0.114114
    18  C   -0.163129
    19  C   -0.137480
    20  C   -0.203941
    21  H    0.142674
    22  H    0.142525
    23  H    0.152485
    24  H    0.207886
    25  H    0.158225
    26  H    0.143212
    27  H    0.167235
    28  H    0.134252
    29  H    0.176181
    30  H    0.224412
    31  H    0.152195
    32  H    0.169017
    33  H    0.170403
    34  H    0.154646
    35  H    0.161783
    36  H    0.139593
    37  H    0.138561
    38  H    0.138671
    39  H    0.135104
    40  H    0.140368
    41  H    0.141532
    42  H    0.162463
 Sum of Mulliken charges =  -0.00000
 Mulliken charges with hydrogens summed into heavy atoms:
               1
     1  C    0.084728
     2  N   -0.161239
     3  C    0.050197
     4  C    0.124263
     5  C   -0.041138
     6  N   -0.085026
     7  C    0.061257
     8  C    0.041478
     9  C   -0.087064
    10  C    0.010896
    11  C    0.053902
    12  C    0.150176
    13  C   -0.085245
    14  C   -0.009718
    15  C   -0.029033
    16  C   -0.039239
    17  C    0.020990
    18  C   -0.022762
    19  C    0.004052
    20  C   -0.041478
 Electronic spatial extent (au):  <R**2>=           5175.6187
 Charge=             -0.0000 electrons
 Dipole moment (field-independent basis, Debye):
    X=             -0.3753    Y=              0.7255    Z=             -0.9255  Tot=              1.2344
 Quadrupole moment (field-independent basis, Debye-Ang):
   XX=           -118.6168   YY=           -117.0092   ZZ=           -114.3364
   XY=              2.1659   XZ=              1.2333   YZ=              2.0408
 Traceless Quadrupole moment (field-independent basis, Debye-Ang):
   XX=             -1.9627   YY=             -0.3551   ZZ=              2.3177
   XY=              2.1659   XZ=              1.2333   YZ=              2.0408
 Octapole moment (field-independent basis, Debye-Ang**2):
  XXX=              9.2894  YYY=             40.2435  ZZZ=              3.9265  XYY=            -19.4615
  XXY=            -10.9010  XXZ=              1.5801  XZZ=             -7.8875  YZZ=              2.6482
  YYZ=            -24.1393  XYZ=             19.5111
 Hexadecapole moment (field-independent basis, Debye-Ang**3):
 XXXX=          -3391.5554 YYYY=          -2409.7861 ZZZZ=          -1120.1131 XXXY=            -12.9742
 XXXZ=             23.7886 YYYX=            -13.4123 YYYZ=            -41.4203 ZZZX=            -16.3194
 ZZZY=             15.8471 XXYY=           -957.1869 XXZZ=           -753.5501 YYZZ=           -592.3970
 XXYZ=              1.3172 YYXZ=             21.6876 ZZXY=             12.7607
 N-N= 1.578898344632D+03 E-N=-5.033674983141D+03  KE= 8.041024660606D+02
 Unable to Open any file for archive entry.
 1\1\GINC-NOTCH161\SP\RM062X\def2TZVP\C18H22N2\U6032257\23-Sep-2022\0\\
 # M062X/def2tzvp int=(grid=ultrafine) nmr=giao guess=read geom=check\\
 SecN5.xyz\\0,1\C,0,1.6903310598,-3.7936592222,2.0142216128\N,0,0.62426
 39099,-3.2285479773,2.8343188959\C,0,-0.597419275,-2.8688536812,2.1001
 224241\C,0,-0.8313220662,-1.3543471025,2.0727845616\C,0,0.3255391899,-
 0.5810208185,1.4373291181\N,0,0.5288512936,-0.9177568488,0.0234147862\
 C,0,1.881550435,-0.9465353607,-0.4233952852\C,0,2.2974931992,-1.985145
 2455,-1.2732423345\C,0,1.2819069606,-2.9931744863,-1.724982446\C,0,0.2
 698516985,-2.3742629157,-2.6943681833\C,0,-0.6337207625,-1.2760041437,
 -2.1555992929\C,0,-0.5027542718,-0.6148918508,-0.9104545428\C,0,-1.448
 4627157,0.374746363,-0.577726571\C,0,-2.496704228,0.7104049673,-1.4257
 314268\C,0,-2.6247069557,0.0686529567,-2.6547473427\C,0,-1.6927793203,
 -0.9046205875,-2.9952706976\C,0,3.6315303986,-2.0331579519,-1.68365579
 86\C,0,4.5563755785,-1.0861584076,-1.2445850413\C,0,4.1417471048,-0.06
 79506718,-0.3870246351\C,0,2.8097784265,0.004722459,0.0170264249\H,0,1
 .3888180169,-4.6778919853,1.4235796005\H,0,2.5268670626,-4.0849495395,
 2.6569453936\H,0,2.0634476461,-3.043861923,1.3120422646\H,0,0.39650417
 89,-3.879973867,3.576606714\H,0,-0.5575113994,-3.2468064166,1.06927231
 12\H,0,-1.4676890176,-3.3438540856,2.5692333962\H,0,-1.7720018193,-1.1
 437624299,1.5532228505\H,0,-0.9407976612,-0.9945364132,3.1026989289\H,
 0,0.1957099213,0.4997909598,1.6004540989\H,0,1.2382629661,-0.866778638
 5,1.9626904491\H,0,1.7830626734,-3.8291727505,-2.2232387929\H,0,0.7541
 993959,-3.3980596174,-0.854842745\H,0,0.8249583202,-1.979351297,-3.555
 8934439\H,0,-0.3739143213,-3.1685860187,-3.0917816625\H,0,-1.355074718
 3,0.9018535293,0.3626666738\H,0,-3.2022306243,1.4792554151,-1.12531539
 75\H,0,-3.4356234495,0.3151257612,-3.3324737037\H,0,-1.7864937951,-1.4
 19030122,-3.9489037542\H,0,3.9493277346,-2.8378464864,-2.3415135206\H,
 0,5.5918300137,-1.1464504346,-1.5646427286\H,0,4.8503255384,0.67751630
 24,-0.0390587206\H,0,2.4842736782,0.8066305834,0.6708175625\\Version=E
 S64L-G16RevC.01\State=1-A\HF=-808.595988\RMSD=4.063e-09\Dipole=-0.0625
 66,-0.4502162,0.1710408\Quadrupole=-0.3276114,0.894457,-0.5668456,-0.6
 504732,-1.5722183,2.1933224\PG=C01 [X(C18H22N2)]\\@
 The archive entry for this job was punched.


 NATURE GIVES TO EVERY TIME AND SEASON SOME BEAUTY OF ITS OWN.

                                                    --DICKENS
 Job cpu time:       0 days  3 hours 13 minutes 38.6 seconds.
 Elapsed time:       0 days  0 hours  5 minutes 42.2 seconds.
 File lengths (MBytes):  RWF=    318 Int=      0 D2E=      0 Chk=     53 Scr=      1
 Normal termination of Gaussian 16 at Fri Sep 23 16:45:45 2022.
