 Entering Gaussian System, Link 0=/uufs/chpc.utah.edu/sys/installdir/gaussian16/C01/AVX2/g16/g16
 Input=SecN5_clust-3.com
 Output=SecN5_clust-3.log
 Initial command:
 /uufs/chpc.utah.edu/sys/installdir/gaussian16/C01/AVX2/g16/l1.exe "/scratch/local/u6032257/5771827/notchpeak.peaks/Gau-2416657.inp" -scrdir="/scratch/local/u6032257/5771827/notchpeak.peaks/"
 Entering Link 1 = /uufs/chpc.utah.edu/sys/installdir/gaussian16/C01/AVX2/g16/l1.exe PID=   2416659.
  
 Copyright (c) 1988-2019, Gaussian, Inc.  All Rights Reserved.
  
 This is part of the Gaussian(R) 16 program.  It is based on
 the Gaussian(R) 09 system (copyright 2009, Gaussian, Inc.),
 the Gaussian(R) 03 system (copyright 2003, Gaussian, Inc.),
 the Gaussian(R) 98 system (copyright 1998, Gaussian, Inc.),
 the Gaussian(R) 94 system (copyright 1995, Gaussian, Inc.),
 the Gaussian 92(TM) system (copyright 1992, Gaussian, Inc.),
 the Gaussian 90(TM) system (copyright 1990, Gaussian, Inc.),
 the Gaussian 88(TM) system (copyright 1988, Gaussian, Inc.),
 the Gaussian 86(TM) system (copyright 1986, Carnegie Mellon
 University), and the Gaussian 82(TM) system (copyright 1983,
 Carnegie Mellon University). Gaussian is a federally registered
 trademark of Gaussian, Inc.
  
 This software contains proprietary and confidential information,
 including trade secrets, belonging to Gaussian, Inc.
  
 This software is provided under written license and may be
 used, copied, transmitted, or stored only in accord with that
 written license.
  
 The following legend is applicable only to US Government
 contracts under FAR:
  
                    RESTRICTED RIGHTS LEGEND
  
 Use, reproduction and disclosure by the US Government is
 subject to restrictions as set forth in subparagraphs (a)
 and (c) of the Commercial Computer Software - Restricted
 Rights clause in FAR 52.227-19.
  
 Gaussian, Inc.
 340 Quinnipiac St., Bldg. 40, Wallingford CT 06492
  
  
 ---------------------------------------------------------------
 Warning -- This program may not be used in any manner that
 competes with the business of Gaussian, Inc. or will provide
 assistance to any competitor of Gaussian, Inc.  The licensee
 of this program is prohibited from giving any competitor of
 Gaussian, Inc. access to this program.  By using this program,
 the user acknowledges that Gaussian, Inc. is engaged in the
 business of creating and licensing software in the field of
 computational chemistry and represents and warrants to the
 licensee that it is not a competitor of Gaussian, Inc. and that
 it will not use this program in any manner prohibited above.
 ---------------------------------------------------------------
  

 Cite this work as:
 Gaussian 16, Revision C.01,
 M. J. Frisch, G. W. Trucks, H. B. Schlegel, G. E. Scuseria, 
 M. A. Robb, J. R. Cheeseman, G. Scalmani, V. Barone, 
 G. A. Petersson, H. Nakatsuji, X. Li, M. Caricato, A. V. Marenich, 
 J. Bloino, B. G. Janesko, R. Gomperts, B. Mennucci, H. P. Hratchian, 
 J. V. Ortiz, A. F. Izmaylov, J. L. Sonnenberg, D. Williams-Young, 
 F. Ding, F. Lipparini, F. Egidi, J. Goings, B. Peng, A. Petrone, 
 T. Henderson, D. Ranasinghe, V. G. Zakrzewski, J. Gao, N. Rega, 
 G. Zheng, W. Liang, M. Hada, M. Ehara, K. Toyota, R. Fukuda, 
 J. Hasegawa, M. Ishida, T. Nakajima, Y. Honda, O. Kitao, H. Nakai, 
 T. Vreven, K. Throssell, J. A. Montgomery, Jr., J. E. Peralta, 
 F. Ogliaro, M. J. Bearpark, J. J. Heyd, E. N. Brothers, K. N. Kudin, 
 V. N. Staroverov, T. A. Keith, R. Kobayashi, J. Normand, 
 K. Raghavachari, A. P. Rendell, J. C. Burant, S. S. Iyengar, 
 J. Tomasi, M. Cossi, J. M. Millam, M. Klene, C. Adamo, R. Cammi, 
 J. W. Ochterski, R. L. Martin, K. Morokuma, O. Farkas, 
 J. B. Foresman, and D. J. Fox, Gaussian, Inc., Wallingford CT, 2019.
 
 ******************************************
 Gaussian 16:  ES64L-G16RevC.01  3-Jul-2019
                23-Sep-2022 
 ******************************************
 %NProcShared=64
 Will use up to   64 processors via shared memory.
 %mem=16GB
 %chk=SecN5_clust-3.chk
 ----------------------------------------------------------------------
 # B3LYP/6-31G(d,p) empiricaldispersion=GD3BJ int=(grid=ultrafine) opt 
 freq=noraman
 ----------------------------------------------------------------------
 1/18=20,19=15,26=4,38=1/1,3;
 2/9=110,12=2,17=6,18=5,40=1/2;
 3/5=1,6=6,7=101,11=2,25=1,30=1,71=1,74=-5,75=-5,124=41/1,2,3;
 4//1;
 5/5=2,38=5/2;
 6/7=2,8=2,9=2,10=2,28=1/1;
 7//1,2,3,16;
 1/18=20,19=15,26=4/3(2);
 2/9=110/2;
 99//99;
 2/9=110/2;
 3/5=1,6=6,7=101,11=2,25=1,30=1,71=1,74=-5,75=-5,124=41/1,2,3;
 4/5=5,16=3,69=1/1;
 5/5=2,38=5/2;
 7//1,2,3,16;
 1/18=20,19=15,26=4/3(-5);
 2/9=110/2;
 6/7=2,8=2,9=2,10=2,19=2,28=1/1;
 99/9=1/99;
 ---------
 SecN5.xyz
 ---------
 Symbolic Z-matrix:
 Charge =  0 Multiplicity = 1
 C                    -1.0649   -1.8925    4.5272 
 N                    -0.2254   -3.0127    4.1139 
 C                    -0.2848   -3.2919    2.6825 
 C                     0.4099   -2.1982    1.855 
 C                     0.5461   -2.5713    0.3629 
 N                     0.7022   -1.3868   -0.5115 
 C                     2.0586   -1.1096   -0.7742 
 C                     2.6886   -1.3952   -2.0031 
 C                     1.863    -1.8556   -3.1849 
 C                     0.7884   -0.8351   -3.5606 
 C                    -0.4545   -0.7875   -2.6785 
 C                    -0.4456   -1.0798   -1.2861 
 C                    -1.6773   -1.0071   -0.6077 
 C                    -2.8663   -0.6655   -1.244 
 C                    -2.8562   -0.3714   -2.5985 
 C                    -1.6595   -0.4289   -3.3021 
 C                     4.0667   -1.1815   -2.1453 
 C                     4.8285   -0.6894   -1.0896 
 C                     4.2159   -0.3965    0.1229 
 C                     2.8476   -0.6098    0.2717 
 H                    -1.0474   -1.7951    5.6138 
 H                    -0.7046   -0.9472    4.1187 
 H                    -2.1042   -2.0324    4.2237 
 H                    -0.3957   -3.8446    4.6668 
 H                     0.2226   -4.2413    2.4993 
 H                    -1.3153   -3.4405    2.3524 
 H                    -0.0297   -1.21      1.9857 
 H                     1.4175   -2.1153    2.2627 
 H                     1.4062   -3.2367    0.2485 
 H                    -0.2946   -3.1946    0.0489 
 H                     2.5182   -2.0108   -4.0432 
 H                     1.4319   -2.8362   -2.9763 
 H                     1.2215    0.1661   -3.595 
 H                     0.4775   -1.0424   -4.5858 
 H                    -1.7156   -1.2025    0.4515 
 H                    -3.7875   -0.6184   -0.6821 
 H                    -3.7716   -0.0967   -3.1031 
 H                    -1.6728   -0.1947   -4.357 
 H                     4.5529   -1.3879   -3.0878 
 H                     5.8897   -0.5274   -1.2148 
 H                     4.7953   -0.0086    0.9479 
 H                     2.3834   -0.3758    1.2164 
 

 GradGradGradGradGradGradGradGradGradGradGradGradGradGradGradGradGradGrad
 Berny optimization.
 Initialization pass.
                           ----------------------------
                           !    Initial Parameters    !
                           ! (Angstroms and Degrees)  !
 --------------------------                            --------------------------
 ! Name  Definition              Value          Derivative Info.                !
 --------------------------------------------------------------------------------
 ! R1    R(1,2)                  1.4596         estimate D2E/DX2                !
 ! R2    R(1,21)                 1.0911         estimate D2E/DX2                !
 ! R3    R(1,22)                 1.091          estimate D2E/DX2                !
 ! R4    R(1,23)                 1.0917         estimate D2E/DX2                !
 ! R5    R(2,3)                  1.4596         estimate D2E/DX2                !
 ! R6    R(2,24)                 1.0133         estimate D2E/DX2                !
 ! R7    R(3,4)                  1.5374         estimate D2E/DX2                !
 ! R8    R(3,25)                 1.092          estimate D2E/DX2                !
 ! R9    R(3,26)                 1.0922         estimate D2E/DX2                !
 ! R10   R(4,5)                  1.5441         estimate D2E/DX2                !
 ! R11   R(4,27)                 1.0894         estimate D2E/DX2                !
 ! R12   R(4,28)                 1.0901         estimate D2E/DX2                !
 ! R13   R(5,6)                  1.4805         estimate D2E/DX2                !
 ! R14   R(5,29)                 1.0934         estimate D2E/DX2                !
 ! R15   R(5,30)                 1.0926         estimate D2E/DX2                !
 ! R16   R(6,7)                  1.4091         estimate D2E/DX2                !
 ! R17   R(6,12)                 1.4183         estimate D2E/DX2                !
 ! R18   R(7,8)                  1.4102         estimate D2E/DX2                !
 ! R19   R(7,20)                 1.4022         estimate D2E/DX2                !
 ! R20   R(8,9)                  1.5134         estimate D2E/DX2                !
 ! R21   R(8,17)                 1.4018         estimate D2E/DX2                !
 ! R22   R(9,10)                 1.5288         estimate D2E/DX2                !
 ! R23   R(9,31)                 1.0909         estimate D2E/DX2                !
 ! R24   R(9,32)                 1.0913         estimate D2E/DX2                !
 ! R25   R(10,11)                1.5248         estimate D2E/DX2                !
 ! R26   R(10,33)                1.0914         estimate D2E/DX2                !
 ! R27   R(10,34)                1.0912         estimate D2E/DX2                !
 ! R28   R(11,12)                1.4228         estimate D2E/DX2                !
 ! R29   R(11,16)                1.4034         estimate D2E/DX2                !
 ! R30   R(12,13)                1.408          estimate D2E/DX2                !
 ! R31   R(13,14)                1.3911         estimate D2E/DX2                !
 ! R32   R(13,35)                1.0778         estimate D2E/DX2                !
 ! R33   R(14,15)                1.3861         estimate D2E/DX2                !
 ! R34   R(14,36)                1.0801         estimate D2E/DX2                !
 ! R35   R(15,16)                1.3894         estimate D2E/DX2                !
 ! R36   R(15,37)                1.0808         estimate D2E/DX2                !
 ! R37   R(16,38)                1.0807         estimate D2E/DX2                !
 ! R38   R(17,18)                1.3918         estimate D2E/DX2                !
 ! R39   R(17,39)                1.0804         estimate D2E/DX2                !
 ! R40   R(18,19)                1.3897         estimate D2E/DX2                !
 ! R41   R(18,40)                1.0808         estimate D2E/DX2                !
 ! R42   R(19,20)                1.3928         estimate D2E/DX2                !
 ! R43   R(19,41)                1.0802         estimate D2E/DX2                !
 ! R44   R(20,42)                1.0783         estimate D2E/DX2                !
 ! A1    A(2,1,21)             109.9548         estimate D2E/DX2                !
 ! A2    A(2,1,22)             111.6546         estimate D2E/DX2                !
 ! A3    A(2,1,23)             111.7451         estimate D2E/DX2                !
 ! A4    A(21,1,22)            106.8724         estimate D2E/DX2                !
 ! A5    A(21,1,23)            107.672          estimate D2E/DX2                !
 ! A6    A(22,1,23)            108.7437         estimate D2E/DX2                !
 ! A7    A(1,2,3)              113.6465         estimate D2E/DX2                !
 ! A8    A(1,2,24)             112.2665         estimate D2E/DX2                !
 ! A9    A(3,2,24)             111.7913         estimate D2E/DX2                !
 ! A10   A(2,3,4)              111.9246         estimate D2E/DX2                !
 ! A11   A(2,3,25)             108.1759         estimate D2E/DX2                !
 ! A12   A(2,3,26)             111.1499         estimate D2E/DX2                !
 ! A13   A(4,3,25)             108.5573         estimate D2E/DX2                !
 ! A14   A(4,3,26)             111.1276         estimate D2E/DX2                !
 ! A15   A(25,3,26)            105.6292         estimate D2E/DX2                !
 ! A16   A(3,4,5)              112.8362         estimate D2E/DX2                !
 ! A17   A(3,4,27)             113.4774         estimate D2E/DX2                !
 ! A18   A(3,4,28)             105.6918         estimate D2E/DX2                !
 ! A19   A(5,4,27)             111.7593         estimate D2E/DX2                !
 ! A20   A(5,4,28)             107.3529         estimate D2E/DX2                !
 ! A21   A(27,4,28)            105.0178         estimate D2E/DX2                !
 ! A22   A(4,5,6)              112.7495         estimate D2E/DX2                !
 ! A23   A(4,5,29)             108.5138         estimate D2E/DX2                !
 ! A24   A(4,5,30)             110.3453         estimate D2E/DX2                !
 ! A25   A(6,5,29)             110.0069         estimate D2E/DX2                !
 ! A26   A(6,5,30)             111.5793         estimate D2E/DX2                !
 ! A27   A(29,5,30)            103.1803         estimate D2E/DX2                !
 ! A28   A(5,6,7)              111.6523         estimate D2E/DX2                !
 ! A29   A(5,6,12)             114.2293         estimate D2E/DX2                !
 ! A30   A(7,6,12)             129.3884         estimate D2E/DX2                !
 ! A31   A(6,7,8)              123.5486         estimate D2E/DX2                !
 ! A32   A(6,7,20)             118.2086         estimate D2E/DX2                !
 ! A33   A(8,7,20)             118.0867         estimate D2E/DX2                !
 ! A34   A(7,8,9)              119.895          estimate D2E/DX2                !
 ! A35   A(7,8,17)             119.783          estimate D2E/DX2                !
 ! A36   A(9,8,17)             120.2306         estimate D2E/DX2                !
 ! A37   A(8,9,10)             111.8569         estimate D2E/DX2                !
 ! A38   A(8,9,31)             109.271          estimate D2E/DX2                !
 ! A39   A(8,9,32)             109.8526         estimate D2E/DX2                !
 ! A40   A(10,9,31)            108.8915         estimate D2E/DX2                !
 ! A41   A(10,9,32)            111.6601         estimate D2E/DX2                !
 ! A42   A(31,9,32)            105.0591         estimate D2E/DX2                !
 ! A43   A(9,10,11)            116.8464         estimate D2E/DX2                !
 ! A44   A(9,10,33)            109.9471         estimate D2E/DX2                !
 ! A45   A(9,10,34)            107.7185         estimate D2E/DX2                !
 ! A46   A(11,10,33)           108.2432         estimate D2E/DX2                !
 ! A47   A(11,10,34)           108.4935         estimate D2E/DX2                !
 ! A48   A(33,10,34)           104.9353         estimate D2E/DX2                !
 ! A49   A(10,11,12)           123.6846         estimate D2E/DX2                !
 ! A50   A(10,11,16)           116.7949         estimate D2E/DX2                !
 ! A51   A(12,11,16)           119.5204         estimate D2E/DX2                !
 ! A52   A(6,12,11)            125.7324         estimate D2E/DX2                !
 ! A53   A(6,12,13)            117.1261         estimate D2E/DX2                !
 ! A54   A(11,12,13)           117.093          estimate D2E/DX2                !
 ! A55   A(12,13,14)           122.6804         estimate D2E/DX2                !
 ! A56   A(12,13,35)           119.6851         estimate D2E/DX2                !
 ! A57   A(14,13,35)           117.6238         estimate D2E/DX2                !
 ! A58   A(13,14,15)           119.5273         estimate D2E/DX2                !
 ! A59   A(13,14,36)           120.114          estimate D2E/DX2                !
 ! A60   A(15,14,36)           120.3542         estimate D2E/DX2                !
 ! A61   A(14,15,16)           119.4954         estimate D2E/DX2                !
 ! A62   A(14,15,37)           120.2656         estimate D2E/DX2                !
 ! A63   A(16,15,37)           120.2387         estimate D2E/DX2                !
 ! A64   A(11,16,15)           121.6749         estimate D2E/DX2                !
 ! A65   A(11,16,38)           119.9803         estimate D2E/DX2                !
 ! A66   A(15,16,38)           118.3437         estimate D2E/DX2                !
 ! A67   A(8,17,18)            121.0017         estimate D2E/DX2                !
 ! A68   A(8,17,39)            120.1173         estimate D2E/DX2                !
 ! A69   A(18,17,39)           118.8772         estimate D2E/DX2                !
 ! A70   A(17,18,19)           119.6734         estimate D2E/DX2                !
 ! A71   A(17,18,40)           120.1708         estimate D2E/DX2                !
 ! A72   A(19,18,40)           120.1535         estimate D2E/DX2                !
 ! A73   A(18,19,20)           119.604          estimate D2E/DX2                !
 ! A74   A(18,19,41)           120.3723         estimate D2E/DX2                !
 ! A75   A(20,19,41)           120.0235         estimate D2E/DX2                !
 ! A76   A(7,20,19)            121.8489         estimate D2E/DX2                !
 ! A77   A(7,20,42)            119.2487         estimate D2E/DX2                !
 ! A78   A(19,20,42)           118.9007         estimate D2E/DX2                !
 ! D1    D(21,1,2,3)           174.7967         estimate D2E/DX2                !
 ! D2    D(21,1,2,24)           46.6857         estimate D2E/DX2                !
 ! D3    D(22,1,2,3)           -66.7542         estimate D2E/DX2                !
 ! D4    D(22,1,2,24)          165.1349         estimate D2E/DX2                !
 ! D5    D(23,1,2,3)            55.2906         estimate D2E/DX2                !
 ! D6    D(23,1,2,24)          -72.8204         estimate D2E/DX2                !
 ! D7    D(1,2,3,4)             70.5163         estimate D2E/DX2                !
 ! D8    D(1,2,3,25)          -169.9307         estimate D2E/DX2                !
 ! D9    D(1,2,3,26)           -54.3961         estimate D2E/DX2                !
 ! D10   D(24,2,3,4)          -161.1287         estimate D2E/DX2                !
 ! D11   D(24,2,3,25)          -41.5757         estimate D2E/DX2                !
 ! D12   D(24,2,3,26)           73.9589         estimate D2E/DX2                !
 ! D13   D(2,3,4,5)            171.4273         estimate D2E/DX2                !
 ! D14   D(2,3,4,27)           -60.151          estimate D2E/DX2                !
 ! D15   D(2,3,4,28)            54.3976         estimate D2E/DX2                !
 ! D16   D(25,3,4,5)            52.0986         estimate D2E/DX2                !
 ! D17   D(25,3,4,27)         -179.4796         estimate D2E/DX2                !
 ! D18   D(25,3,4,28)          -64.9311         estimate D2E/DX2                !
 ! D19   D(26,3,4,5)           -63.6479         estimate D2E/DX2                !
 ! D20   D(26,3,4,27)           64.7738         estimate D2E/DX2                !
 ! D21   D(26,3,4,28)          179.3224         estimate D2E/DX2                !
 ! D22   D(3,4,5,6)            157.3926         estimate D2E/DX2                !
 ! D23   D(3,4,5,29)           -80.4897         estimate D2E/DX2                !
 ! D24   D(3,4,5,30)            31.883          estimate D2E/DX2                !
 ! D25   D(27,4,5,6)            28.0827         estimate D2E/DX2                !
 ! D26   D(27,4,5,29)          150.2004         estimate D2E/DX2                !
 ! D27   D(27,4,5,30)          -97.4269         estimate D2E/DX2                !
 ! D28   D(28,4,5,6)           -86.5643         estimate D2E/DX2                !
 ! D29   D(28,4,5,29)           35.5533         estimate D2E/DX2                !
 ! D30   D(28,4,5,30)          147.926          estimate D2E/DX2                !
 ! D31   D(4,5,6,7)             95.0093         estimate D2E/DX2                !
 ! D32   D(4,5,6,12)          -106.9639         estimate D2E/DX2                !
 ! D33   D(29,5,6,7)           -26.2634         estimate D2E/DX2                !
 ! D34   D(29,5,6,12)          131.7634         estimate D2E/DX2                !
 ! D35   D(30,5,6,7)          -140.1518         estimate D2E/DX2                !
 ! D36   D(30,5,6,12)           17.875          estimate D2E/DX2                !
 ! D37   D(5,6,7,8)            104.6439         estimate D2E/DX2                !
 ! D38   D(5,6,7,20)           -70.7202         estimate D2E/DX2                !
 ! D39   D(12,6,7,8)           -49.157          estimate D2E/DX2                !
 ! D40   D(12,6,7,20)          135.4789         estimate D2E/DX2                !
 ! D41   D(5,6,12,11)         -132.7021         estimate D2E/DX2                !
 ! D42   D(5,6,12,13)           49.917          estimate D2E/DX2                !
 ! D43   D(7,6,12,11)           20.5556         estimate D2E/DX2                !
 ! D44   D(7,6,12,13)         -156.8254         estimate D2E/DX2                !
 ! D45   D(6,7,8,9)              8.3663         estimate D2E/DX2                !
 ! D46   D(6,7,8,17)          -175.1008         estimate D2E/DX2                !
 ! D47   D(20,7,8,9)          -176.2643         estimate D2E/DX2                !
 ! D48   D(20,7,8,17)            0.2686         estimate D2E/DX2                !
 ! D49   D(6,7,20,19)          175.5116         estimate D2E/DX2                !
 ! D50   D(6,7,20,42)           -4.9789         estimate D2E/DX2                !
 ! D51   D(8,7,20,19)           -0.1095         estimate D2E/DX2                !
 ! D52   D(8,7,20,42)          179.4            estimate D2E/DX2                !
 ! D53   D(7,8,9,10)            58.4843         estimate D2E/DX2                !
 ! D54   D(7,8,9,31)           179.1351         estimate D2E/DX2                !
 ! D55   D(7,8,9,32)           -66.1019         estimate D2E/DX2                !
 ! D56   D(17,8,9,10)         -118.033          estimate D2E/DX2                !
 ! D57   D(17,8,9,31)            2.6179         estimate D2E/DX2                !
 ! D58   D(17,8,9,32)          117.3808         estimate D2E/DX2                !
 ! D59   D(7,8,17,18)           -0.0188         estimate D2E/DX2                !
 ! D60   D(7,8,17,39)         -179.3083         estimate D2E/DX2                !
 ! D61   D(9,8,17,18)          176.5023         estimate D2E/DX2                !
 ! D62   D(9,8,17,39)           -2.7872         estimate D2E/DX2                !
 ! D63   D(8,9,10,11)          -77.1122         estimate D2E/DX2                !
 ! D64   D(8,9,10,33)           46.7334         estimate D2E/DX2                !
 ! D65   D(8,9,10,34)          160.5484         estimate D2E/DX2                !
 ! D66   D(31,9,10,11)         162.0164         estimate D2E/DX2                !
 ! D67   D(31,9,10,33)         -74.138          estimate D2E/DX2                !
 ! D68   D(31,9,10,34)          39.677          estimate D2E/DX2                !
 ! D69   D(32,9,10,11)          46.4614         estimate D2E/DX2                !
 ! D70   D(32,9,10,33)         170.307          estimate D2E/DX2                !
 ! D71   D(32,9,10,34)         -75.878          estimate D2E/DX2                !
 ! D72   D(9,10,11,12)          31.5772         estimate D2E/DX2                !
 ! D73   D(9,10,11,16)        -148.5891         estimate D2E/DX2                !
 ! D74   D(33,10,11,12)        -93.1338         estimate D2E/DX2                !
 ! D75   D(33,10,11,16)         86.6999         estimate D2E/DX2                !
 ! D76   D(34,10,11,12)        153.5133         estimate D2E/DX2                !
 ! D77   D(34,10,11,16)        -26.653          estimate D2E/DX2                !
 ! D78   D(10,11,12,6)           3.2931         estimate D2E/DX2                !
 ! D79   D(10,11,12,13)       -179.3252         estimate D2E/DX2                !
 ! D80   D(16,11,12,6)        -176.5363         estimate D2E/DX2                !
 ! D81   D(16,11,12,13)          0.8454         estimate D2E/DX2                !
 ! D82   D(10,11,16,15)        179.1086         estimate D2E/DX2                !
 ! D83   D(10,11,16,38)         -0.5189         estimate D2E/DX2                !
 ! D84   D(12,11,16,15)         -1.0504         estimate D2E/DX2                !
 ! D85   D(12,11,16,38)        179.3221         estimate D2E/DX2                !
 ! D86   D(6,12,13,14)         177.5269         estimate D2E/DX2                !
 ! D87   D(6,12,13,35)          -1.2594         estimate D2E/DX2                !
 ! D88   D(11,12,13,14)         -0.0852         estimate D2E/DX2                !
 ! D89   D(11,12,13,35)       -178.8715         estimate D2E/DX2                !
 ! D90   D(12,13,14,15)         -0.5103         estimate D2E/DX2                !
 ! D91   D(12,13,14,36)       -179.7523         estimate D2E/DX2                !
 ! D92   D(35,13,14,15)        178.2997         estimate D2E/DX2                !
 ! D93   D(35,13,14,36)         -0.9424         estimate D2E/DX2                !
 ! D94   D(13,14,15,16)          0.3297         estimate D2E/DX2                !
 ! D95   D(13,14,15,37)       -179.4977         estimate D2E/DX2                !
 ! D96   D(36,14,15,16)        179.5699         estimate D2E/DX2                !
 ! D97   D(36,14,15,37)         -0.2575         estimate D2E/DX2                !
 ! D98   D(14,15,16,11)          0.4488         estimate D2E/DX2                !
 ! D99   D(14,15,16,38)       -179.9179         estimate D2E/DX2                !
 ! D100  D(37,15,16,11)       -179.7238         estimate D2E/DX2                !
 ! D101  D(37,15,16,38)         -0.0904         estimate D2E/DX2                !
 ! D102  D(8,17,18,19)          -0.3986         estimate D2E/DX2                !
 ! D103  D(8,17,18,40)        -179.85           estimate D2E/DX2                !
 ! D104  D(39,17,18,19)        178.8995         estimate D2E/DX2                !
 ! D105  D(39,17,18,40)         -0.5518         estimate D2E/DX2                !
 ! D106  D(17,18,19,20)          0.5546         estimate D2E/DX2                !
 ! D107  D(17,18,19,41)       -179.6408         estimate D2E/DX2                !
 ! D108  D(40,18,19,20)       -179.9939         estimate D2E/DX2                !
 ! D109  D(40,18,19,41)         -0.1893         estimate D2E/DX2                !
 ! D110  D(18,19,20,7)          -0.3041         estimate D2E/DX2                !
 ! D111  D(18,19,20,42)       -179.8152         estimate D2E/DX2                !
 ! D112  D(41,19,20,7)         179.8906         estimate D2E/DX2                !
 ! D113  D(41,19,20,42)          0.3795         estimate D2E/DX2                !
 --------------------------------------------------------------------------------
 Trust Radius=3.00D-01 FncErr=1.00D-07 GrdErr=1.00D-06 EigMax=2.50D+02 EigMin=1.00D-04
 Number of steps in this run=    245 maximum allowed number of steps=    252.
 GradGradGradGradGradGradGradGradGradGradGradGradGradGradGradGradGradGrad

                          Input orientation:                          
 ---------------------------------------------------------------------
 Center     Atomic      Atomic             Coordinates (Angstroms)
 Number     Number       Type             X           Y           Z
 ---------------------------------------------------------------------
      1          6           0       -1.064900   -1.892500    4.527200
      2          7           0       -0.225400   -3.012700    4.113900
      3          6           0       -0.284800   -3.291900    2.682500
      4          6           0        0.409900   -2.198200    1.855000
      5          6           0        0.546100   -2.571300    0.362900
      6          7           0        0.702200   -1.386800   -0.511500
      7          6           0        2.058600   -1.109600   -0.774200
      8          6           0        2.688600   -1.395200   -2.003100
      9          6           0        1.863000   -1.855600   -3.184900
     10          6           0        0.788400   -0.835100   -3.560600
     11          6           0       -0.454500   -0.787500   -2.678500
     12          6           0       -0.445600   -1.079800   -1.286100
     13          6           0       -1.677300   -1.007100   -0.607700
     14          6           0       -2.866300   -0.665500   -1.244000
     15          6           0       -2.856200   -0.371400   -2.598500
     16          6           0       -1.659500   -0.428900   -3.302100
     17          6           0        4.066700   -1.181500   -2.145300
     18          6           0        4.828500   -0.689400   -1.089600
     19          6           0        4.215900   -0.396500    0.122900
     20          6           0        2.847600   -0.609800    0.271700
     21          1           0       -1.047400   -1.795100    5.613800
     22          1           0       -0.704600   -0.947200    4.118700
     23          1           0       -2.104200   -2.032400    4.223700
     24          1           0       -0.395700   -3.844600    4.666800
     25          1           0        0.222600   -4.241300    2.499300
     26          1           0       -1.315300   -3.440500    2.352400
     27          1           0       -0.029700   -1.210000    1.985700
     28          1           0        1.417500   -2.115300    2.262700
     29          1           0        1.406200   -3.236700    0.248500
     30          1           0       -0.294600   -3.194600    0.048900
     31          1           0        2.518200   -2.010800   -4.043200
     32          1           0        1.431900   -2.836200   -2.976300
     33          1           0        1.221500    0.166100   -3.595000
     34          1           0        0.477500   -1.042400   -4.585800
     35          1           0       -1.715600   -1.202500    0.451500
     36          1           0       -3.787500   -0.618400   -0.682100
     37          1           0       -3.771600   -0.096700   -3.103100
     38          1           0       -1.672800   -0.194700   -4.357000
     39          1           0        4.552900   -1.387900   -3.087800
     40          1           0        5.889700   -0.527400   -1.214800
     41          1           0        4.795300   -0.008600    0.947900
     42          1           0        2.383400   -0.375800    1.216400
 ---------------------------------------------------------------------
                    Distance matrix (angstroms):
                    1          2          3          4          5
     1  C    0.000000
     2  N    1.459598   0.000000
     3  C    2.443316   1.459585   0.000000
     4  C    3.067432   2.483877   1.537382   0.000000
     5  C    4.516357   3.854873   2.567139   1.544058   0.000000
     6  N    5.363476   4.989821   3.847754   2.518756   1.480535
     7  C    6.202743   5.721186   4.711977   3.288762   2.391071
     8  C    7.548569   6.966017   5.864591   4.552166   3.401687
     9  C    8.249269   7.679373   6.411114   5.256374   3.851407
    10  C    8.364528   8.041622   6.794404   5.597323   4.297319
    11  C    7.315444   7.151273   5.919556   4.825959   3.665141
    12  C    5.902412   5.739738   4.546320   3.442268   2.434593
    13  C    5.246538   5.331412   4.240847   3.440932   2.886571
    14  C    6.169062   6.418005   5.383263   4.763030   4.225953
    15  C    7.503206   7.678144   6.559755   5.817067   5.018475
    16  C    7.987090   7.983090   6.775102   5.831682   4.784012
    17  C    8.447550   7.807240   6.833520   5.514369   4.540621
    18  C    8.229706   7.616826   6.866410   5.520070   4.897985
    19  C    7.037238   6.519028   5.932217   4.553233   4.272562
    20  C    5.921339   5.475377   4.776772   3.312436   3.025343
    21  H    1.091097   2.099508   3.378534   4.051517   5.541992
    22  H    1.091000   2.120365   2.781460   2.816283   4.278783
    23  H    1.091709   2.122012   2.696638   3.458168   4.713839
    24  H    2.068335   1.013291   2.062819   3.356463   4.586048
    25  H    3.359598   2.077762   1.091960   2.150456   2.730889
    26  H    2.681186   2.115131   1.092235   2.183353   2.859795
    27  H    2.827838   2.795937   2.210184   1.089436   2.195031
    28  H    3.367478   2.632753   2.111503   1.090114   2.139279
    29  H    5.120594   4.201620   2.964268   2.156835   1.093443
    30  H    4.726944   4.069656   2.635415   2.179709   1.092646
    31  H    9.290014   8.664261   7.398180   6.266483   4.859738
    32  H    7.964113   7.283456   5.930998   4.979256   3.464833
    33  H    8.685367   8.463181   7.323504   5.995924   4.859475
    34  H    9.281618   8.947677   7.646538   6.544031   5.179949
    35  H    4.184596   4.348643   3.374928   2.734773   2.645137
    36  H    6.014373   6.436058   5.544100   5.152748   4.866820
    37  H    8.292925   8.553577   7.472633   6.817918   6.064597
    38  H    9.065378   9.043906   7.814970   6.851321   5.731422
    39  H    9.476419   8.794124   7.766912   6.500177   5.418691
    40  H    9.121432   8.483290   7.807423   6.499496   5.934705
    41  H    7.120563   6.652488   6.292560   4.984868   4.996534
    42  H    5.015232   4.706866   4.215730   2.761097   2.987366
                    6          7          8          9         10
     6  N    0.000000
     7  C    1.409139   0.000000
     8  C    2.484095   1.410199   0.000000
     9  C    2.951999   2.531057   1.513352   0.000000
    10  C    3.099809   3.074538   2.519976   1.528835   0.000000
    11  C    2.528439   3.169508   3.271780   2.601554   1.524850
    12  C    1.418344   2.556159   3.230600   3.088194   2.599228
    13  C    2.411524   3.741013   4.599875   4.460452   3.850828
    14  C    3.713627   4.967150   5.653814   5.248782   4.330385
    15  C    4.248390   5.294173   5.669874   4.981723   3.797863
    16  C    3.779239   4.547296   4.639732   3.802264   2.494802
    17  C    3.745839   2.432602   1.401802   2.528136   3.587523
    18  C    4.224561   2.819289   2.431421   3.813725   4.738088
    19  C    3.705300   2.442794   2.801771   4.313543   5.050574
    20  C    2.412441   1.402222   2.411815   3.803885   4.356327
    21  H    6.383346   7.136084   8.493220   9.267751   9.405391
    22  H    4.859124   5.621576   7.013626   7.794891   7.823891
    23  H    5.542093   6.569587   7.883527   8.405789   8.390232
    24  H    5.836177   6.565691   7.745969   8.408748   8.840209
    25  H    4.176494   4.888174   5.869672   6.379076   6.974576
    26  H    4.060777   5.156736   6.259780   6.578388   6.795383
    27  H    2.608245   3.462387   4.830526   5.543845   5.618833
    28  H    2.956104   3.262699   4.509023   5.471952   5.995457
    29  H    2.120223   2.448693   3.178895   3.728852   4.545174
    30  H    2.139112   3.249964   4.043269   4.111645   4.446192
    31  H    4.019967   3.421952   2.137758   1.090895   2.146481
    32  H    2.951010   2.867603   2.145436   1.091301   2.181719
    33  H    3.491295   3.207033   2.669117   2.160318   1.091403
    34  H    4.095000   4.127068   3.418153   2.131531   1.091177
    35  H    2.609040   3.969327   5.045708   5.143571   4.743622
    36  H    4.558174   5.867422   6.654948   6.302604   5.410322
    37  H    5.328755   6.359322   6.680590   5.903316   4.641998
    38  H    4.674355   5.253270   5.099398   4.078516   2.664934
    39  H    4.633057   3.413463   2.156906   2.731983   3.834135
    40  H    5.305031   3.900053   3.409037   4.675438   5.623230
    41  H    4.558810   3.415751   3.881913   5.393499   6.088097
    42  H    2.614229   2.146263   3.390797   4.672480   5.057144
                   11         12         13         14         15
    11  C    0.000000
    12  C    1.422778   0.000000
    13  C    2.414886   1.408047   0.000000
    14  C    2.808817   2.456258   1.391147   0.000000
    15  C    2.438791   2.834646   2.399418   1.386098   0.000000
    16  C    1.403387   2.441614   2.755798   2.397524   1.389406
    17  C    4.569550   4.594499   5.948795   7.010356   6.984855
    18  C    5.517637   5.292179   6.531355   7.696386   7.837890
    19  C    5.460161   4.917496   5.969624   7.217918   7.577681
    20  C    4.431605   3.673256   4.626652   5.911777   6.389696
    21  H    8.374308   6.962933   6.302760   7.184275   8.528807
    22  H    6.803674   5.412627   4.825825   5.788856   7.076843
    23  H    7.204974   5.832349   4.957410   5.687263   7.061646
    24  H    7.956303   6.563812   6.124888   7.151790   8.420318
    25  H    6.260736   4.977030   4.870638   6.028262   7.102302
    26  H    5.752333   4.423569   3.848983   4.800033   6.025376
    27  H    4.702523   3.300697   3.079201   4.332868   5.450435
    28  H    5.448201   4.139732   4.364068   5.722745   6.703504
    29  H    4.245953   3.230538   3.900278   5.205082   5.872257
    30  H    3.641210   2.505475   2.669858   3.831655   4.641226
    31  H    3.492251   4.153609   5.514734   6.215963   5.801635
    32  H    2.800779   3.076804   4.315437   5.117355   4.960421
    33  H    2.135018   3.108458   4.324743   4.788410   4.231968
    34  H    2.138081   3.426592   4.524344   4.742434   3.938675
    35  H    3.399926   2.155739   1.077754   2.118301   3.360684
    36  H    3.888843   3.427244   2.146990   1.080074   2.144975
    37  H    3.414768   3.915386   3.382594   2.144611   1.080758
    38  H    2.157088   3.423426   3.836309   3.367026   2.126965
    39  H    5.059848   5.322222   6.716494   7.678931   7.494495
    40  H    6.516053   6.359737   7.606456   8.757138   8.856056
    41  H    6.427897   5.797004   6.731378   7.996003   8.441210
    42  H    4.836674   3.842052   4.496128   5.804898   6.481272
                   16         17         18         19         20
    16  C    0.000000
    17  C    5.890158   0.000000
    18  C    6.859822   1.391763   0.000000
    19  C    6.800882   2.404832   1.389685   0.000000
    20  C    5.754887   2.766755   2.404878   1.392797   0.000000
    21  H    9.040710   9.313117   8.982446   7.733589   6.716695
    22  H    7.499916   7.877683   7.603160   6.362469   5.247035
    23  H    7.707570   8.908883   8.837258   7.709500   6.493259
    24  H    8.761710   8.567953   8.389499   7.335072   6.348215
    25  H    7.192561   6.761049   6.834509   6.031269   5.004060
    26  H    6.415729   7.368739   7.560568   6.695579   5.447193
    27  H    5.588130   5.817772   5.773266   4.707114   3.402483
    28  H    6.578668   5.226921   4.990594   3.919702   2.876769
    29  H    5.467085   4.127031   4.471173   3.997115   2.996461
    30  H    4.554256   5.280911   5.815356   5.308432   4.074831
    31  H    4.528224   2.586042   3.975844   4.779596   4.548590
    32  H    3.931665   3.220367   4.439063   4.827819   4.184563
    33  H    2.956345   3.465951   4.474300   4.806842   4.265863
    34  H    2.567301   4.342551   5.592783   6.046873   5.422160
    35  H    3.832899   6.338675   6.742663   5.995023   4.605042
    36  H    3.380635   8.009151   8.625923   8.046843   6.703310
    37  H    2.147306   7.970767   8.852525   8.619577   7.447574
    38  H    1.080667   6.229547   7.292978   7.401825   6.483146
    39  H    6.289636   1.080415   2.134634   3.377135   3.847041
    40  H    7.833067   2.148722   1.080770   2.146668   3.386864
    41  H    7.739741   3.387394   2.148487   1.080183   2.147609
    42  H    6.063390   3.844955   3.375573   2.134063   1.078284
                   21         22         23         24         25
    21  H    0.000000
    22  H    1.752647   0.000000
    23  H    1.762247   1.774138   0.000000
    24  H    2.349888   2.964922   2.529699   0.000000
    25  H    4.158955   3.785928   3.642361   2.288607   0.000000
    26  H    3.662764   3.115977   2.471209   2.522976   1.740114
    27  H    3.813288   2.252608   3.160465   3.776688   3.084837
    28  H    4.172305   3.051639   4.031720   3.472444   2.450233
    29  H    6.073286   4.967468   5.438333   4.810173   2.734270
    30  H    5.787350   4.667138   4.696202   4.664517   2.714321
    31  H   10.296489   8.839361   9.471467   9.365775   7.283489
    32  H    9.001146   7.646697   8.061644   7.923003   5.780909
    33  H    9.684844   8.028105   8.776432   9.325148   7.587059
    34  H   10.340393   8.784916   9.233232   9.706977   7.777955
    35  H    5.238989   3.812565   3.881911   5.146997   4.145408
    36  H    6.966429   5.714898   5.375850   7.107982   6.271173
    37  H    9.289250   7.892036   7.759456   9.263628   8.032324
    38  H   10.117769   8.563945   8.785878   9.817419   8.183909
    39  H   10.356013   8.931359   9.909107   9.521441   7.622931
    40  H    9.816323   8.491599   9.784924   9.225144   7.726811
    41  H    7.687610   6.417464   7.901249   7.449268   6.421229
    42  H    5.755165   4.276165   5.650374   5.626831   4.610529
                   26         27         28         29         30
    26  H    0.000000
    27  H    2.600455   0.000000
    28  H    3.038486   1.729360   0.000000
    29  H    3.445938   3.031037   2.305356   0.000000
    30  H    2.531483   2.785678   2.999514   1.712990   0.000000
    31  H    7.592329   6.593990   6.402096   4.599790   5.104754
    32  H    6.025556   5.422384   5.288386   3.249676   3.501584
    33  H    7.403680   5.882463   6.289344   5.136697   5.183712
    34  H    7.556695   6.593175   6.995475   5.389610   5.168031
    35  H    2.963495   2.279492   3.732287   3.731597   2.479877
    36  H    4.825372   4.646311   6.164786   5.890334   4.401309
    37  H    6.853969   6.413824   7.732614   6.921159   5.623310
    38  H    7.461841   6.630268   7.553747   6.320177   5.505524
    39  H    8.261036   6.839026   6.244013   4.944763   6.049901
    40  H    8.551204   6.763759   5.883452   5.439056   6.852478
    41  H    7.147726   5.079470   4.192424   4.732419   6.071728
    42  H    4.935916   2.666602   2.248014   3.174350   4.059603
                   31         32         33         34         35
    31  H    0.000000
    32  H    1.731938   0.000000
    33  H    2.573171   3.072599   0.000000
    34  H    2.323073   2.592120   1.730807   0.000000
    35  H    6.227418   4.932093   5.183993   5.496336   0.000000
    36  H    7.279947   6.117526   5.847265   5.797316   2.432898
    37  H    6.641472   5.881951   5.024149   4.598652   4.252659
    38  H    4.578337   4.303837   3.014597   2.322657   4.913162
    39  H    2.332552   3.442477   3.710848   4.355716   7.201049
    40  H    4.644064   5.320284   5.285677   6.396935   7.814915
    41  H    5.839954   5.891275   5.782777   7.094644   6.638044
    42  H    5.509518   4.953550   4.979281   6.143479   4.250918
                   36         37         38         39         40
    36  H    0.000000
    37  H    2.476624   0.000000
    38  H    4.261029   2.446800   0.000000
    39  H    8.714459   8.424057   6.464823   0.000000
    40  H    9.692278   9.853522   8.196067   2.456751   0.000000
    41  H    8.757466   9.476821   8.367372   4.271780   2.478737
    42  H    6.460895   7.524626   6.895531   4.925161   4.269409
                   41         42
    41  H    0.000000
    42  H    2.454422   0.000000
 Stoichiometry    C18H22N2
 Framework group  C1[X(C18H22N2)]
 Deg. of freedom   120
 Full point group                 C1      NOp   1
 Largest Abelian subgroup         C1      NOp   1
 Largest concise Abelian subgroup C1      NOp   1
                         Standard orientation:                         
 ---------------------------------------------------------------------
 Center     Atomic      Atomic             Coordinates (Angstroms)
 Number     Number       Type             X           Y           Z
 ---------------------------------------------------------------------
      1          6           0        5.188805   -0.201187   -0.760510
      2          7           0        4.774289   -0.932542    0.432688
      3          6           0        3.569632   -0.396650    1.058794
      4          6           0        2.315409   -0.660718    0.209832
      5          6           0        1.007162   -0.293691    0.943248
      6          7           0       -0.115665   -0.031538    0.014530
      7          6           0       -0.908625   -1.180062   -0.179840
      8          6           0       -2.178634   -1.358643    0.406545
      9          6           0       -2.838285   -0.211687    1.141112
     10          6           0       -3.027222    1.008250    0.239229
     11          6           0       -1.792526    1.860221   -0.034332
     12          6           0       -0.470957    1.337004   -0.097540
     13          6           0        0.570011    2.252378   -0.344668
     14          6           0        0.346318    3.613539   -0.524918
     15          6           0       -0.948354    4.105852   -0.472759
     16          6           0       -2.002949    3.233257   -0.234311
     17          6           0       -2.855854   -2.575175    0.243843
     18          6           0       -2.294310   -3.615586   -0.490470
     19          6           0       -1.047106   -3.446835   -1.079733
     20          6           0       -0.367572   -2.241729   -0.918997
     21          1           0        6.140091   -0.591918   -1.125034
     22          1           0        4.468443   -0.313582   -1.572130
     23          1           0        5.323948    0.862690   -0.556227
     24          1           0        5.529608   -1.038552    1.099781
     25          1           0        3.442960   -0.885076    2.027180
     26          1           0        3.679626    0.667657    1.278177
     27          1           0        2.361082   -0.213738   -0.782636
     28          1           0        2.299107   -1.736538    0.034630
     29          1           0        0.748389   -1.111195    1.621731
     30          1           0        1.174129    0.548044    1.619620
     31          1           0       -3.813562   -0.533275    1.509171
     32          1           0       -2.264395    0.034122    2.036190
     33          1           0       -3.449481    0.700970   -0.719122
     34          1           0       -3.791162    1.641599    0.693026
     35          1           0        1.585334    1.898648   -0.419146
     36          1           0        1.175762    4.278346   -0.716265
     37          1           0       -1.136594    5.159966   -0.619208
     38          1           0       -3.004798    3.636839   -0.198815
     39          1           0       -3.833938   -2.713891    0.681346
     40          1           0       -2.829367   -4.547058   -0.609374
     41          1           0       -0.603291   -4.244761   -1.656914
     42          1           0        0.598070   -2.121970   -1.383637
 ---------------------------------------------------------------------
 Rotational constants (GHZ):           0.3702978           0.2829399           0.1736000
 Standard basis: 6-31G(d,p) (6D, 7F)
 There are   410 symmetry adapted cartesian basis functions of A   symmetry.
 There are   410 symmetry adapted basis functions of A   symmetry.
   410 basis functions,   714 primitive gaussians,   410 cartesian basis functions
    72 alpha electrons       72 beta electrons
       nuclear repulsion energy      1514.0750269559 Hartrees.
 NAtoms=   42 NActive=   42 NUniq=   42 SFac= 1.00D+00 NAtFMM=   60 NAOKFM=F Big=F
 Integral buffers will be    131072 words long.
 Raffenetti 2 integral format.
 Two-electron integral symmetry is turned on.
 Nuclear repulsion after empirical dispersion term =     1513.9844404284 Hartrees.
 One-electron integrals computed using PRISM.
 NBasis=   410 RedAO= T EigKep=  3.66D-04  NBF=   410
 NBsUse=   410 1.00D-06 EigRej= -1.00D+00 NBFU=   410
 ExpMin= 1.61D-01 ExpMax= 4.17D+03 ExpMxC= 6.27D+02 IAcc=3 IRadAn=         5 AccDes= 0.00D+00
 Harris functional with IExCor=  402 and IRadAn=       5 diagonalized for initial guess.
 HarFok:  IExCor=  402 AccDes= 0.00D+00 IRadAn=         5 IDoV= 1 UseB2=F ITyADJ=14
 ICtDFT=  3500011 ScaDFX=  1.000000  1.000000  1.000000  1.000000
 FoFCou: FMM=F IPFlag=           0 FMFlag=      100000 FMFlg1=           0
         NFxFlg=           0 DoJE=T BraDBF=F KetDBF=T FulRan=T
         wScrn=  0.000000 ICntrl=       500 IOpCl=  0 I1Cent=   200000004 NGrid=           0
         NMat0=    1 NMatS0=      1 NMatT0=    0 NMatD0=    1 NMtDS0=    0 NMtDT0=    0
 Petite list used in FoFCou.
 Requested convergence on RMS density matrix=1.00D-08 within 128 cycles.
 Requested convergence on MAX density matrix=1.00D-06.
 Requested convergence on             energy=1.00D-06.
 No special actions if energy rises.
 Integral accuracy reduced to 1.0D-05 until final iterations.
 Initial convergence to 1.0D-05 achieved.  Increase integral accuracy.
 SCF Done:  E(RB3LYP) =  -808.763576497     A.U. after   14 cycles
            NFock= 14  Conv=0.68D-08     -V/T= 2.0097

 **********************************************************************

            Population analysis using the SCF Density.

 **********************************************************************

 Orbital symmetries:
       Occupied  (A) (A) (A) (A) (A) (A) (A) (A) (A) (A) (A) (A)
                 (A) (A) (A) (A) (A) (A) (A) (A) (A) (A) (A) (A)
                 (A) (A) (A) (A) (A) (A) (A) (A) (A) (A) (A) (A)
                 (A) (A) (A) (A) (A) (A) (A) (A) (A) (A) (A) (A)
                 (A) (A) (A) (A) (A) (A) (A) (A) (A) (A) (A) (A)
                 (A) (A) (A) (A) (A) (A) (A) (A) (A) (A) (A) (A)
       Virtual   (A) (A) (A) (A) (A) (A) (A) (A) (A) (A) (A) (A)
                 (A) (A) (A) (A) (A) (A) (A) (A) (A) (A) (A) (A)
                 (A) (A) (A) (A) (A) (A) (A) (A) (A) (A) (A) (A)
                 (A) (A) (A) (A) (A) (A) (A) (A) (A) (A) (A) (A)
                 (A) (A) (A) (A) (A) (A) (A) (A) (A) (A) (A) (A)
                 (A) (A) (A) (A) (A) (A) (A) (A) (A) (A) (A) (A)
                 (A) (A) (A) (A) (A) (A) (A) (A) (A) (A) (A) (A)
                 (A) (A) (A) (A) (A) (A) (A) (A) (A) (A) (A) (A)
                 (A) (A) (A) (A) (A) (A) (A) (A) (A) (A) (A) (A)
                 (A) (A) (A) (A) (A) (A) (A) (A) (A) (A) (A) (A)
                 (A) (A) (A) (A) (A) (A) (A) (A) (A) (A) (A) (A)
                 (A) (A) (A) (A) (A) (A) (A) (A) (A) (A) (A) (A)
                 (A) (A) (A) (A) (A) (A) (A) (A) (A) (A) (A) (A)
                 (A) (A) (A) (A) (A) (A) (A) (A) (A) (A) (A) (A)
                 (A) (A) (A) (A) (A) (A) (A) (A) (A) (A) (A) (A)
                 (A) (A) (A) (A) (A) (A) (A) (A) (A) (A) (A) (A)
                 (A) (A) (A) (A) (A) (A) (A) (A) (A) (A) (A) (A)
                 (A) (A) (A) (A) (A) (A) (A) (A) (A) (A) (A) (A)
                 (A) (A) (A) (A) (A) (A) (A) (A) (A) (A) (A) (A)
                 (A) (A) (A) (A) (A) (A) (A) (A) (A) (A) (A) (A)
                 (A) (A) (A) (A) (A) (A) (A) (A) (A) (A) (A) (A)
                 (A) (A) (A) (A) (A) (A) (A) (A) (A) (A) (A) (A)
                 (A) (A) (A) (A) (A) (A) (A) (A) (A) (A) (A) (A)
                 (A) (A) (A) (A) (A) (A) (A) (A) (A) (A) (A) (A)
                 (A) (A) (A) (A) (A) (A) (A) (A) (A) (A) (A) (A)
                 (A) (A) (A) (A) (A) (A) (A) (A) (A) (A) (A) (A)
                 (A) (A) (A) (A) (A) (A) (A) (A) (A) (A) (A) (A)
                 (A) (A) (A) (A) (A) (A) (A) (A) (A) (A) (A) (A)
                 (A) (A)
 The electronic state is 1-A.
 Alpha  occ. eigenvalues --  -14.34234 -14.31191 -10.22176 -10.21748 -10.21245
 Alpha  occ. eigenvalues --  -10.20380 -10.19762 -10.18962 -10.18753 -10.18501
 Alpha  occ. eigenvalues --  -10.18411 -10.18276 -10.18233 -10.18133 -10.18020
 Alpha  occ. eigenvalues --  -10.17712 -10.17709 -10.17493 -10.17319 -10.17198
 Alpha  occ. eigenvalues --   -0.94407  -0.89365  -0.84871  -0.83740  -0.79326
 Alpha  occ. eigenvalues --   -0.76568  -0.74933  -0.74746  -0.71909  -0.70033
 Alpha  occ. eigenvalues --   -0.67782  -0.64462  -0.63812  -0.60117  -0.59267
 Alpha  occ. eigenvalues --   -0.58523  -0.57566  -0.55936  -0.51391  -0.49997
 Alpha  occ. eigenvalues --   -0.48823  -0.47477  -0.46773  -0.46273  -0.46044
 Alpha  occ. eigenvalues --   -0.45071  -0.43180  -0.42643  -0.42320  -0.41966
 Alpha  occ. eigenvalues --   -0.41090  -0.40459  -0.39950  -0.39081  -0.38250
 Alpha  occ. eigenvalues --   -0.38083  -0.37141  -0.36234  -0.35444  -0.34891
 Alpha  occ. eigenvalues --   -0.34260  -0.34047  -0.33359  -0.32510  -0.32109
 Alpha  occ. eigenvalues --   -0.31938  -0.27136  -0.24258  -0.23677  -0.23264
 Alpha  occ. eigenvalues --   -0.21149  -0.18891
 Alpha virt. eigenvalues --    0.00022   0.00418   0.00920   0.01747   0.08196
 Alpha virt. eigenvalues --    0.09269   0.10263   0.10538   0.11382   0.12006
 Alpha virt. eigenvalues --    0.13044   0.13789   0.14302   0.14462   0.15218
 Alpha virt. eigenvalues --    0.16004   0.16107   0.17011   0.17101   0.17727
 Alpha virt. eigenvalues --    0.18031   0.18604   0.18640   0.19256   0.19983
 Alpha virt. eigenvalues --    0.20300   0.21938   0.22110   0.22730   0.23111
 Alpha virt. eigenvalues --    0.23793   0.25545   0.26201   0.26654   0.27633
 Alpha virt. eigenvalues --    0.28165   0.29751   0.30599   0.31962   0.33118
 Alpha virt. eigenvalues --    0.33905   0.34979   0.35427   0.36676   0.38581
 Alpha virt. eigenvalues --    0.41737   0.46514   0.49920   0.50538   0.51280
 Alpha virt. eigenvalues --    0.51681   0.52424   0.52744   0.53176   0.54255
 Alpha virt. eigenvalues --    0.54376   0.54747   0.55369   0.56757   0.57412
 Alpha virt. eigenvalues --    0.57813   0.58232   0.59099   0.59419   0.59919
 Alpha virt. eigenvalues --    0.60592   0.60864   0.61409   0.61693   0.61923
 Alpha virt. eigenvalues --    0.62447   0.62723   0.62990   0.63213   0.64281
 Alpha virt. eigenvalues --    0.65812   0.67132   0.67561   0.68216   0.68721
 Alpha virt. eigenvalues --    0.70464   0.70931   0.72096   0.73598   0.74514
 Alpha virt. eigenvalues --    0.75302   0.76196   0.78173   0.78325   0.78980
 Alpha virt. eigenvalues --    0.80461   0.81772   0.81898   0.82289   0.82621
 Alpha virt. eigenvalues --    0.83118   0.83465   0.84235   0.85037   0.85505
 Alpha virt. eigenvalues --    0.86062   0.86573   0.87937   0.88773   0.89254
 Alpha virt. eigenvalues --    0.89448   0.90533   0.91261   0.91752   0.92691
 Alpha virt. eigenvalues --    0.93349   0.93812   0.94090   0.95262   0.96053
 Alpha virt. eigenvalues --    0.96544   0.96932   0.99316   0.99644   1.01815
 Alpha virt. eigenvalues --    1.02561   1.03823   1.05588   1.06309   1.07069
 Alpha virt. eigenvalues --    1.08124   1.09810   1.11610   1.12965   1.13139
 Alpha virt. eigenvalues --    1.15880   1.17366   1.17636   1.20178   1.20655
 Alpha virt. eigenvalues --    1.23896   1.24558   1.24761   1.25643   1.28535
 Alpha virt. eigenvalues --    1.31083   1.31432   1.33193   1.35303   1.35904
 Alpha virt. eigenvalues --    1.36414   1.38111   1.40721   1.41429   1.42160
 Alpha virt. eigenvalues --    1.42768   1.43197   1.43444   1.43982   1.47660
 Alpha virt. eigenvalues --    1.49203   1.51861   1.52930   1.54940   1.57127
 Alpha virt. eigenvalues --    1.58699   1.61868   1.63960   1.68272   1.69948
 Alpha virt. eigenvalues --    1.71057   1.71300   1.73144   1.74724   1.76640
 Alpha virt. eigenvalues --    1.77981   1.78337   1.78688   1.81166   1.83794
 Alpha virt. eigenvalues --    1.83970   1.84626   1.85062   1.87316   1.87388
 Alpha virt. eigenvalues --    1.88554   1.88592   1.89580   1.90367   1.91439
 Alpha virt. eigenvalues --    1.92344   1.92830   1.93479   1.94021   1.94726
 Alpha virt. eigenvalues --    1.95264   1.96486   1.97871   1.98667   1.99495
 Alpha virt. eigenvalues --    2.00578   2.01101   2.01464   2.02343   2.03119
 Alpha virt. eigenvalues --    2.03606   2.05345   2.07266   2.08292   2.08525
 Alpha virt. eigenvalues --    2.09589   2.11276   2.12270   2.14627   2.15226
 Alpha virt. eigenvalues --    2.16293   2.18812   2.20319   2.21348   2.21945
 Alpha virt. eigenvalues --    2.22797   2.23892   2.24845   2.25899   2.27789
 Alpha virt. eigenvalues --    2.28048   2.29146   2.29553   2.31090   2.31951
 Alpha virt. eigenvalues --    2.32508   2.33435   2.34139   2.35130   2.36808
 Alpha virt. eigenvalues --    2.39388   2.39856   2.40560   2.41305   2.41734
 Alpha virt. eigenvalues --    2.42772   2.42935   2.44137   2.44402   2.45767
 Alpha virt. eigenvalues --    2.47123   2.47440   2.47765   2.47845   2.51229
 Alpha virt. eigenvalues --    2.51378   2.51798   2.54162   2.55799   2.56253
 Alpha virt. eigenvalues --    2.57757   2.58678   2.59208   2.60556   2.61225
 Alpha virt. eigenvalues --    2.61683   2.62882   2.63841   2.64671   2.66580
 Alpha virt. eigenvalues --    2.66940   2.67472   2.68916   2.70793   2.71096
 Alpha virt. eigenvalues --    2.71952   2.73451   2.74224   2.75175   2.76217
 Alpha virt. eigenvalues --    2.77881   2.78476   2.80019   2.81302   2.81512
 Alpha virt. eigenvalues --    2.82682   2.83061   2.85491   2.87307   2.88229
 Alpha virt. eigenvalues --    2.89660   2.91224   2.92696   2.94448   2.96688
 Alpha virt. eigenvalues --    2.97467   2.99352   3.00906   3.05676   3.07771
 Alpha virt. eigenvalues --    3.08306   3.16951   3.20587   3.22528   3.23491
 Alpha virt. eigenvalues --    3.26009   3.26706   3.28630   3.30151   3.30634
 Alpha virt. eigenvalues --    3.31450   3.35304   3.35583   3.37531   3.39340
 Alpha virt. eigenvalues --    3.40730   3.42303   3.42811   3.44725   3.46677
 Alpha virt. eigenvalues --    3.49524   3.50638   3.50705   3.53770   3.56477
 Alpha virt. eigenvalues --    3.59491   3.86332   3.87703   4.06577   4.14421
 Alpha virt. eigenvalues --    4.14795   4.17145   4.17554   4.21533   4.23655
 Alpha virt. eigenvalues --    4.30728   4.34860   4.40968   4.45338   4.47086
 Alpha virt. eigenvalues --    4.47916   4.50183   4.56323   4.57270   4.65834
 Alpha virt. eigenvalues --    4.75052   4.84788   4.89080
          Condensed to atoms (all electrons):
               1          2          3          4          5          6
     1  C    4.788954   0.328352  -0.053214  -0.005261   0.000116  -0.000004
     2  N    0.328352   6.780942   0.320533  -0.060213   0.002932  -0.000046
     3  C   -0.053214   0.320533   4.828346   0.342639  -0.027757   0.003165
     4  C   -0.005261  -0.060213   0.342639   5.037581   0.348454  -0.058083
     5  C    0.000116   0.002932  -0.027757   0.348454   4.874868   0.289192
     6  N   -0.000004  -0.000046   0.003165  -0.058083   0.289192   7.222512
     7  C   -0.000000  -0.000001   0.000150  -0.004106  -0.038651   0.267301
     8  C   -0.000000  -0.000000   0.000008  -0.000290  -0.003659  -0.074274
     9  C    0.000000   0.000000  -0.000000   0.000032   0.000144  -0.007371
    10  C   -0.000000  -0.000000   0.000000  -0.000012   0.000034  -0.015484
    11  C    0.000000  -0.000000   0.000006  -0.000265   0.002461  -0.064148
    12  C    0.000002  -0.000002   0.000114  -0.003147  -0.030090   0.258966
    13  C   -0.000022   0.000013  -0.000464  -0.000530  -0.010323  -0.076491
    14  C   -0.000000   0.000000  -0.000002   0.000107  -0.000472   0.005359
    15  C    0.000000  -0.000000  -0.000000  -0.000001   0.000029   0.000005
    16  C   -0.000000   0.000000  -0.000000   0.000006  -0.000048   0.006769
    17  C    0.000000   0.000000  -0.000000   0.000014  -0.000028   0.007488
    18  C    0.000000  -0.000000  -0.000000   0.000002   0.000045  -0.000027
    19  C   -0.000000  -0.000000  -0.000000  -0.000084  -0.000114   0.005896
    20  C   -0.000000   0.000004   0.000058  -0.001690  -0.004934  -0.081078
    21  H    0.386808  -0.030507   0.005193   0.000178  -0.000003  -0.000000
    22  H    0.394364  -0.042400  -0.003558   0.003901  -0.000181   0.000008
    23  H    0.370384  -0.056742  -0.007598  -0.001863   0.000054  -0.000001
    24  H   -0.039829   0.344915  -0.033877   0.005512  -0.000148   0.000001
    25  H    0.005970  -0.034594   0.381847  -0.032093  -0.003346   0.000081
    26  H   -0.008314  -0.055292   0.369916  -0.061106  -0.000660  -0.000169
    27  H    0.001944  -0.003126  -0.033534   0.393144  -0.041155   0.001518
    28  H   -0.000511   0.007146  -0.036414   0.364245  -0.029583   0.000509
    29  H    0.000000  -0.000155   0.001122  -0.045238   0.370338  -0.041171
    30  H   -0.000016   0.000076  -0.003243  -0.056712   0.377657  -0.036866
    31  H   -0.000000   0.000000  -0.000000  -0.000000  -0.000011   0.000092
    32  H    0.000000  -0.000000  -0.000000   0.000011   0.001028   0.002993
    33  H   -0.000000  -0.000000   0.000000   0.000000  -0.000011   0.000569
    34  H    0.000000  -0.000000  -0.000000   0.000000   0.000015  -0.000019
    35  H    0.000097  -0.000088   0.000599  -0.001319   0.002494  -0.010054
    36  H   -0.000000   0.000000  -0.000001  -0.000000   0.000006  -0.000129
    37  H    0.000000  -0.000000   0.000000   0.000000  -0.000000   0.000005
    38  H   -0.000000  -0.000000   0.000000  -0.000000   0.000001  -0.000093
    39  H   -0.000000  -0.000000   0.000000  -0.000000  -0.000001  -0.000123
    40  H    0.000000   0.000000  -0.000000   0.000000   0.000000   0.000005
    41  H    0.000000   0.000000  -0.000000   0.000002   0.000004  -0.000140
    42  H   -0.000001  -0.000023   0.000075   0.001140  -0.002057  -0.004077
               7          8          9         10         11         12
     1  C   -0.000000  -0.000000   0.000000  -0.000000   0.000000   0.000002
     2  N   -0.000001  -0.000000   0.000000  -0.000000  -0.000000  -0.000002
     3  C    0.000150   0.000008  -0.000000   0.000000   0.000006   0.000114
     4  C   -0.004106  -0.000290   0.000032  -0.000012  -0.000265  -0.003147
     5  C   -0.038651  -0.003659   0.000144   0.000034   0.002461  -0.030090
     6  N    0.267301  -0.074274  -0.007371  -0.015484  -0.064148   0.258966
     7  C    4.727443   0.510474  -0.068537   0.000802  -0.003922  -0.013388
     8  C    0.510474   4.820142   0.363329  -0.040414  -0.006320  -0.005640
     9  C   -0.068537   0.363329   5.047898   0.338549  -0.032402  -0.001150
    10  C    0.000802  -0.040414   0.338549   5.052248   0.357448  -0.058370
    11  C   -0.003922  -0.006320  -0.032402   0.357448   4.818985   0.517622
    12  C   -0.013388  -0.005640  -0.001150  -0.058370   0.517622   4.690033
    13  C    0.004293  -0.000027  -0.000129   0.007957  -0.046927   0.490313
    14  C   -0.000108   0.000002   0.000006  -0.000022  -0.036354  -0.021545
    15  C    0.000032  -0.000002  -0.000174   0.007150  -0.026596  -0.043436
    16  C   -0.000547   0.000182   0.002994  -0.062328   0.511131  -0.005415
    17  C   -0.008226   0.515486  -0.058994  -0.002221   0.000042  -0.000208
    18  C   -0.043761  -0.027466   0.007451  -0.000135   0.000003   0.000019
    19  C   -0.022467  -0.035607  -0.000067   0.000028  -0.000004  -0.000160
    20  C    0.511125  -0.055930   0.008585   0.000014  -0.000040   0.005169
    21  H    0.000000  -0.000000   0.000000  -0.000000  -0.000000  -0.000000
    22  H    0.000000   0.000000  -0.000000   0.000000   0.000000   0.000003
    23  H   -0.000000  -0.000000  -0.000000   0.000000   0.000000   0.000001
    24  H    0.000000   0.000000  -0.000000   0.000000   0.000000   0.000000
    25  H    0.000001  -0.000001   0.000000  -0.000000  -0.000000  -0.000013
    26  H   -0.000007   0.000000  -0.000000  -0.000000   0.000002   0.000097
    27  H   -0.000081  -0.000015   0.000000   0.000000  -0.000081  -0.000843
    28  H    0.000667   0.000107  -0.000002  -0.000000   0.000011   0.000240
    29  H    0.003152   0.003457   0.000064  -0.000002   0.000028   0.002845
    30  H    0.002674   0.000555  -0.000149   0.000019   0.001568   0.001193
    31  H    0.005794  -0.031264   0.364496  -0.028424   0.004053   0.000153
    32  H   -0.007791  -0.027518   0.366669  -0.040713  -0.003535   0.000209
    33  H   -0.000563  -0.003194  -0.041422   0.370699  -0.032227  -0.002346
    34  H    0.000274   0.004936  -0.033179   0.365543  -0.033064   0.004143
    35  H    0.000100  -0.000006   0.000005  -0.000164   0.004783  -0.038821
    36  H    0.000001  -0.000000  -0.000000   0.000008   0.000995   0.003803
    37  H   -0.000000   0.000000   0.000002  -0.000182   0.004037   0.001087
    38  H    0.000001  -0.000007   0.000208  -0.011141  -0.043357   0.004461
    39  H    0.004525  -0.036410  -0.011307   0.000353  -0.000001  -0.000002
    40  H    0.001078   0.003910  -0.000181   0.000001   0.000000  -0.000000
    41  H    0.003757   0.000933   0.000008  -0.000000   0.000000   0.000001
    42  H   -0.035957   0.005610  -0.000186   0.000008   0.000014   0.000223
              13         14         15         16         17         18
     1  C   -0.000022  -0.000000   0.000000  -0.000000   0.000000   0.000000
     2  N    0.000013   0.000000  -0.000000   0.000000   0.000000  -0.000000
     3  C   -0.000464  -0.000002  -0.000000  -0.000000  -0.000000  -0.000000
     4  C   -0.000530   0.000107  -0.000001   0.000006   0.000014   0.000002
     5  C   -0.010323  -0.000472   0.000029  -0.000048  -0.000028   0.000045
     6  N   -0.076491   0.005359   0.000005   0.006769   0.007488  -0.000027
     7  C    0.004293  -0.000108   0.000032  -0.000547  -0.008226  -0.043761
     8  C   -0.000027   0.000002  -0.000002   0.000182   0.515486  -0.027466
     9  C   -0.000129   0.000006  -0.000174   0.002994  -0.058994   0.007451
    10  C    0.007957  -0.000022   0.007150  -0.062328  -0.002221  -0.000135
    11  C   -0.046927  -0.036354  -0.026596   0.511131   0.000042   0.000003
    12  C    0.490313  -0.021545  -0.043436  -0.005415  -0.000208   0.000019
    13  C    4.959343   0.536265  -0.032795  -0.054434   0.000003  -0.000000
    14  C    0.536265   4.810520   0.544970  -0.032394  -0.000000   0.000000
    15  C   -0.032795   0.544970   4.836338   0.516654  -0.000000   0.000000
    16  C   -0.054434  -0.032394   0.516654   4.935414   0.000006  -0.000000
    17  C    0.000003  -0.000000  -0.000000   0.000006   4.941863   0.511281
    18  C   -0.000000   0.000000   0.000000  -0.000000   0.511281   4.834917
    19  C    0.000001   0.000000  -0.000000   0.000000  -0.032479   0.544814
    20  C   -0.000157  -0.000001   0.000000  -0.000007  -0.054053  -0.030801
    21  H    0.000000   0.000000  -0.000000   0.000000  -0.000000   0.000000
    22  H    0.000001  -0.000000  -0.000000  -0.000000  -0.000000   0.000000
    23  H   -0.000041  -0.000000   0.000000  -0.000000   0.000000  -0.000000
    24  H   -0.000000  -0.000000   0.000000  -0.000000  -0.000000   0.000000
    25  H    0.000030   0.000001  -0.000000  -0.000000  -0.000000   0.000000
    26  H   -0.000229  -0.000023   0.000000  -0.000000   0.000000  -0.000000
    27  H   -0.000048   0.000081   0.000002  -0.000001  -0.000001   0.000001
    28  H   -0.000072  -0.000003   0.000000  -0.000000  -0.000007  -0.000010
    29  H    0.000544   0.000008  -0.000001  -0.000001  -0.000377  -0.000028
    30  H    0.002596   0.000029  -0.000049  -0.000077  -0.000003  -0.000001
    31  H    0.000003   0.000000   0.000003  -0.000152  -0.008084   0.000256
    32  H   -0.000143  -0.000014  -0.000012   0.000552   0.002600  -0.000293
    33  H   -0.000238   0.000053  -0.000265  -0.002011   0.001648  -0.000080
    34  H   -0.000171   0.000009   0.000416  -0.007836  -0.000064   0.000003
    35  H    0.358955  -0.040586   0.005159   0.000838  -0.000000   0.000000
    36  H   -0.037234   0.364538  -0.041706   0.004715   0.000000  -0.000000
    37  H    0.004860  -0.042620   0.363831  -0.037954  -0.000000  -0.000000
    38  H    0.000508   0.005365  -0.044613   0.366521  -0.000000  -0.000000
    39  H   -0.000000   0.000000  -0.000000  -0.000000   0.361991  -0.045411
    40  H    0.000000  -0.000000  -0.000000   0.000000  -0.037519   0.364810
    41  H   -0.000000  -0.000000  -0.000000   0.000000   0.004619  -0.041840
    42  H   -0.000018   0.000000   0.000000  -0.000000   0.000658   0.004984
              19         20         21         22         23         24
     1  C   -0.000000  -0.000000   0.386808   0.394364   0.370384  -0.039829
     2  N   -0.000000   0.000004  -0.030507  -0.042400  -0.056742   0.344915
     3  C   -0.000000   0.000058   0.005193  -0.003558  -0.007598  -0.033877
     4  C   -0.000084  -0.001690   0.000178   0.003901  -0.001863   0.005512
     5  C   -0.000114  -0.004934  -0.000003  -0.000181   0.000054  -0.000148
     6  N    0.005896  -0.081078  -0.000000   0.000008  -0.000001   0.000001
     7  C   -0.022467   0.511125   0.000000   0.000000  -0.000000   0.000000
     8  C   -0.035607  -0.055930  -0.000000   0.000000  -0.000000   0.000000
     9  C   -0.000067   0.008585   0.000000  -0.000000  -0.000000  -0.000000
    10  C    0.000028   0.000014  -0.000000   0.000000   0.000000   0.000000
    11  C   -0.000004  -0.000040  -0.000000   0.000000   0.000000   0.000000
    12  C   -0.000160   0.005169  -0.000000   0.000003   0.000001   0.000000
    13  C    0.000001  -0.000157   0.000000   0.000001  -0.000041  -0.000000
    14  C    0.000000  -0.000001   0.000000  -0.000000  -0.000000  -0.000000
    15  C   -0.000000   0.000000  -0.000000  -0.000000   0.000000   0.000000
    16  C    0.000000  -0.000007   0.000000  -0.000000  -0.000000  -0.000000
    17  C   -0.032479  -0.054053  -0.000000  -0.000000   0.000000  -0.000000
    18  C    0.544814  -0.030801   0.000000   0.000000  -0.000000   0.000000
    19  C    4.831396   0.516361   0.000000   0.000000  -0.000000   0.000000
    20  C    0.516361   4.948710   0.000000  -0.000003   0.000000  -0.000000
    21  H    0.000000   0.000000   0.606704  -0.028016  -0.038996  -0.004755
    22  H    0.000000  -0.000003  -0.028016   0.605075  -0.051044   0.005721
    23  H   -0.000000   0.000000  -0.038996  -0.051044   0.691177  -0.002992
    24  H    0.000000  -0.000000  -0.004755   0.005721  -0.002992   0.496218
    25  H    0.000000   0.000000  -0.000259   0.000025  -0.000159  -0.006025
    26  H    0.000000  -0.000004  -0.000141  -0.001885   0.015846  -0.001534
    27  H    0.000016  -0.000408  -0.000091   0.002341  -0.000188  -0.000024
    28  H    0.000292   0.000520  -0.000059  -0.000286   0.000292  -0.000002
    29  H   -0.000005  -0.000041   0.000000  -0.000000   0.000000   0.000007
    30  H    0.000012   0.000209  -0.000000   0.000003   0.000012  -0.000000
    31  H    0.000005  -0.000200   0.000000  -0.000000   0.000000  -0.000000
    32  H    0.000040  -0.000162   0.000000   0.000000   0.000000   0.000000
    33  H   -0.000008  -0.000242   0.000000   0.000000   0.000000   0.000000
    34  H   -0.000000   0.000007   0.000000   0.000000   0.000000   0.000000
    35  H   -0.000000   0.000016  -0.000002  -0.000039   0.000217   0.000000
    36  H    0.000000  -0.000000   0.000000  -0.000000  -0.000000  -0.000000
    37  H   -0.000000   0.000000  -0.000000  -0.000000   0.000000   0.000000
    38  H    0.000000  -0.000000   0.000000   0.000000  -0.000000   0.000000
    39  H    0.004978   0.000522  -0.000000   0.000000  -0.000000   0.000000
    40  H   -0.041699   0.004557   0.000000  -0.000000   0.000000  -0.000000
    41  H    0.365050  -0.035288  -0.000000  -0.000000   0.000000  -0.000000
    42  H   -0.041511   0.357824   0.000000   0.000028  -0.000000   0.000000
              25         26         27         28         29         30
     1  C    0.005970  -0.008314   0.001944  -0.000511   0.000000  -0.000016
     2  N   -0.034594  -0.055292  -0.003126   0.007146  -0.000155   0.000076
     3  C    0.381847   0.369916  -0.033534  -0.036414   0.001122  -0.003243
     4  C   -0.032093  -0.061106   0.393144   0.364245  -0.045238  -0.056712
     5  C   -0.003346  -0.000660  -0.041155  -0.029583   0.370338   0.377657
     6  N    0.000081  -0.000169   0.001518   0.000509  -0.041171  -0.036866
     7  C    0.000001  -0.000007  -0.000081   0.000667   0.003152   0.002674
     8  C   -0.000001   0.000000  -0.000015   0.000107   0.003457   0.000555
     9  C    0.000000  -0.000000   0.000000  -0.000002   0.000064  -0.000149
    10  C   -0.000000  -0.000000   0.000000  -0.000000  -0.000002   0.000019
    11  C   -0.000000   0.000002  -0.000081   0.000011   0.000028   0.001568
    12  C   -0.000013   0.000097  -0.000843   0.000240   0.002845   0.001193
    13  C    0.000030  -0.000229  -0.000048  -0.000072   0.000544   0.002596
    14  C    0.000001  -0.000023   0.000081  -0.000003   0.000008   0.000029
    15  C   -0.000000   0.000000   0.000002   0.000000  -0.000001  -0.000049
    16  C   -0.000000  -0.000000  -0.000001  -0.000000  -0.000001  -0.000077
    17  C   -0.000000   0.000000  -0.000001  -0.000007  -0.000377  -0.000003
    18  C    0.000000  -0.000000   0.000001  -0.000010  -0.000028  -0.000001
    19  C    0.000000   0.000000   0.000016   0.000292  -0.000005   0.000012
    20  C    0.000000  -0.000004  -0.000408   0.000520  -0.000041   0.000209
    21  H   -0.000259  -0.000141  -0.000091  -0.000059   0.000000  -0.000000
    22  H    0.000025  -0.001885   0.002341  -0.000286  -0.000000   0.000003
    23  H   -0.000159   0.015846  -0.000188   0.000292   0.000000   0.000012
    24  H   -0.006025  -0.001534  -0.000024  -0.000002   0.000007  -0.000000
    25  H    0.645391  -0.048599   0.005520  -0.007779   0.003066  -0.000393
    26  H   -0.048599   0.709623  -0.006447   0.007482  -0.000210   0.006368
    27  H    0.005520  -0.006447   0.604930  -0.040946   0.005050  -0.000474
    28  H   -0.007779   0.007482  -0.040946   0.624211  -0.010577   0.006163
    29  H    0.003066  -0.000210   0.005050  -0.010577   0.626776  -0.029880
    30  H   -0.000393   0.006368  -0.000474   0.006163  -0.029880   0.619030
    31  H    0.000000  -0.000000   0.000000  -0.000000   0.000000  -0.000002
    32  H    0.000000  -0.000000   0.000001   0.000001   0.000122  -0.000003
    33  H    0.000000  -0.000000   0.000000   0.000000   0.000004   0.000002
    34  H   -0.000000   0.000000  -0.000000   0.000000  -0.000002  -0.000003
    35  H   -0.000032   0.001539   0.001957   0.000008   0.000151  -0.000860
    36  H   -0.000000  -0.000002  -0.000003  -0.000000  -0.000000  -0.000002
    37  H   -0.000000  -0.000000   0.000000  -0.000000  -0.000000   0.000000
    38  H    0.000000   0.000000  -0.000000   0.000000  -0.000000   0.000001
    39  H   -0.000000  -0.000000   0.000000   0.000000   0.000007  -0.000000
    40  H    0.000000   0.000000   0.000000   0.000000  -0.000000   0.000000
    41  H   -0.000000   0.000000  -0.000002  -0.000002  -0.000006  -0.000000
    42  H    0.000014  -0.000000   0.001770   0.002691   0.000598   0.000036
              31         32         33         34         35         36
     1  C   -0.000000   0.000000  -0.000000   0.000000   0.000097  -0.000000
     2  N    0.000000  -0.000000  -0.000000  -0.000000  -0.000088   0.000000
     3  C   -0.000000  -0.000000   0.000000  -0.000000   0.000599  -0.000001
     4  C   -0.000000   0.000011   0.000000   0.000000  -0.001319  -0.000000
     5  C   -0.000011   0.001028  -0.000011   0.000015   0.002494   0.000006
     6  N    0.000092   0.002993   0.000569  -0.000019  -0.010054  -0.000129
     7  C    0.005794  -0.007791  -0.000563   0.000274   0.000100   0.000001
     8  C   -0.031264  -0.027518  -0.003194   0.004936  -0.000006  -0.000000
     9  C    0.364496   0.366669  -0.041422  -0.033179   0.000005  -0.000000
    10  C   -0.028424  -0.040713   0.370699   0.365543  -0.000164   0.000008
    11  C    0.004053  -0.003535  -0.032227  -0.033064   0.004783   0.000995
    12  C    0.000153   0.000209  -0.002346   0.004143  -0.038821   0.003803
    13  C    0.000003  -0.000143  -0.000238  -0.000171   0.358955  -0.037234
    14  C    0.000000  -0.000014   0.000053   0.000009  -0.040586   0.364538
    15  C    0.000003  -0.000012  -0.000265   0.000416   0.005159  -0.041706
    16  C   -0.000152   0.000552  -0.002011  -0.007836   0.000838   0.004715
    17  C   -0.008084   0.002600   0.001648  -0.000064  -0.000000   0.000000
    18  C    0.000256  -0.000293  -0.000080   0.000003   0.000000  -0.000000
    19  C    0.000005   0.000040  -0.000008  -0.000000  -0.000000   0.000000
    20  C   -0.000200  -0.000162  -0.000242   0.000007   0.000016  -0.000000
    21  H    0.000000   0.000000   0.000000   0.000000  -0.000002   0.000000
    22  H   -0.000000   0.000000   0.000000   0.000000  -0.000039  -0.000000
    23  H    0.000000   0.000000   0.000000   0.000000   0.000217  -0.000000
    24  H   -0.000000   0.000000   0.000000   0.000000   0.000000  -0.000000
    25  H    0.000000   0.000000   0.000000  -0.000000  -0.000032  -0.000000
    26  H   -0.000000  -0.000000  -0.000000   0.000000   0.001539  -0.000002
    27  H    0.000000   0.000001   0.000000  -0.000000   0.001957  -0.000003
    28  H   -0.000000   0.000001   0.000000   0.000000   0.000008  -0.000000
    29  H    0.000000   0.000122   0.000004  -0.000002   0.000151  -0.000000
    30  H   -0.000002  -0.000003   0.000002  -0.000003  -0.000860  -0.000002
    31  H    0.636293  -0.037328  -0.001482  -0.006895  -0.000000   0.000000
    32  H   -0.037328   0.626514   0.006059  -0.001418   0.000004   0.000000
    33  H   -0.001482   0.006059   0.619316  -0.036692   0.000002  -0.000000
    34  H   -0.006895  -0.001418  -0.036692   0.638369   0.000003  -0.000000
    35  H   -0.000000   0.000004   0.000002   0.000003   0.640137  -0.006922
    36  H    0.000000   0.000000  -0.000000  -0.000000  -0.006922   0.639291
    37  H   -0.000000   0.000000   0.000003  -0.000015  -0.000229  -0.006102
    38  H   -0.000016   0.000021   0.001048   0.005709   0.000017  -0.000239
    39  H    0.006849   0.000219   0.000136  -0.000031  -0.000000  -0.000000
    40  H   -0.000013   0.000003   0.000001  -0.000000   0.000000   0.000000
    41  H   -0.000000  -0.000000  -0.000000   0.000000  -0.000000  -0.000000
    42  H    0.000003  -0.000002   0.000002  -0.000000  -0.000001  -0.000000
              37         38         39         40         41         42
     1  C    0.000000  -0.000000  -0.000000   0.000000   0.000000  -0.000001
     2  N   -0.000000  -0.000000  -0.000000   0.000000   0.000000  -0.000023
     3  C    0.000000   0.000000   0.000000  -0.000000  -0.000000   0.000075
     4  C    0.000000  -0.000000  -0.000000   0.000000   0.000002   0.001140
     5  C   -0.000000   0.000001  -0.000001   0.000000   0.000004  -0.002057
     6  N    0.000005  -0.000093  -0.000123   0.000005  -0.000140  -0.004077
     7  C   -0.000000   0.000001   0.004525   0.001078   0.003757  -0.035957
     8  C    0.000000  -0.000007  -0.036410   0.003910   0.000933   0.005610
     9  C    0.000002   0.000208  -0.011307  -0.000181   0.000008  -0.000186
    10  C   -0.000182  -0.011141   0.000353   0.000001  -0.000000   0.000008
    11  C    0.004037  -0.043357  -0.000001   0.000000   0.000000   0.000014
    12  C    0.001087   0.004461  -0.000002  -0.000000   0.000001   0.000223
    13  C    0.004860   0.000508  -0.000000   0.000000  -0.000000  -0.000018
    14  C   -0.042620   0.005365   0.000000  -0.000000  -0.000000   0.000000
    15  C    0.363831  -0.044613  -0.000000  -0.000000  -0.000000   0.000000
    16  C   -0.037954   0.366521  -0.000000   0.000000   0.000000  -0.000000
    17  C   -0.000000  -0.000000   0.361991  -0.037519   0.004619   0.000658
    18  C   -0.000000  -0.000000  -0.045411   0.364810  -0.041840   0.004984
    19  C   -0.000000   0.000000   0.004978  -0.041699   0.365050  -0.041511
    20  C    0.000000  -0.000000   0.000522   0.004557  -0.035288   0.357824
    21  H   -0.000000   0.000000  -0.000000   0.000000  -0.000000   0.000000
    22  H   -0.000000   0.000000   0.000000  -0.000000  -0.000000   0.000028
    23  H    0.000000  -0.000000  -0.000000   0.000000   0.000000  -0.000000
    24  H    0.000000   0.000000   0.000000  -0.000000  -0.000000   0.000000
    25  H   -0.000000   0.000000  -0.000000   0.000000  -0.000000   0.000014
    26  H   -0.000000   0.000000  -0.000000   0.000000   0.000000  -0.000000
    27  H    0.000000  -0.000000   0.000000   0.000000  -0.000002   0.001770
    28  H   -0.000000   0.000000   0.000000   0.000000  -0.000002   0.002691
[...]
    31  H   -0.000018   0.000012  -0.000050  -0.000265  -0.002245   0.000230
    32  H    0.000212   0.000058  -0.000107   0.000808   0.000454   0.000329
    33  H   -0.000960   0.000589  -0.000983  -0.003373  -0.002737   0.000372
    34  H    0.000045  -0.000093   0.001696  -0.009798   0.000713  -0.000022
    35  H    0.407418  -0.003675   0.001395   0.001712  -0.000009   0.000001
    36  H   -0.030405   0.400684  -0.033221   0.004216   0.000000   0.000000
    37  H    0.008002  -0.039780   0.417241  -0.041272  -0.000000   0.000000
    38  H   -0.000781   0.005269  -0.031804   0.411421  -0.000009  -0.000001
    39  H   -0.000006   0.000000  -0.000001   0.000013   0.401701  -0.035433
    40  H    0.000000  -0.000000  -0.000000  -0.000000  -0.040600   0.416494
    41  H   -0.000001  -0.000000  -0.000000   0.000000   0.004015  -0.033916
    42  H    0.000565  -0.000057   0.000009  -0.000015   0.001497   0.000030
              19         20         21         22         23         24
     1  C    0.000009   0.000069   0.406695   0.418461   0.409902  -0.043914
     2  N   -0.000015  -0.000245  -0.029305  -0.038012  -0.067914   0.370115
     3  C   -0.000136   0.001562   0.007916  -0.032997   0.025368  -0.067407
     4  C    0.000223  -0.011977   0.000879   0.027199  -0.024768   0.021537
     5  C   -0.002327   0.017104  -0.000042  -0.002190   0.002239  -0.001412
     6  N    0.007762  -0.063352  -0.000001   0.000112  -0.000056   0.000028
     7  C   -0.008439   0.383626   0.000001  -0.000071   0.000011  -0.000007
     8  C   -0.088790   0.031989  -0.000000  -0.000005   0.000001  -0.000000
     9  C   -0.005607   0.014174  -0.000000  -0.000000   0.000000  -0.000000
    10  C   -0.000040   0.002031   0.000000  -0.000000   0.000000  -0.000000
    11  C    0.000918   0.001363   0.000000  -0.000001  -0.000005   0.000000
    12  C   -0.000730  -0.001008  -0.000002   0.000191  -0.000095   0.000013
    13  C   -0.000602   0.006212  -0.000028   0.000403   0.000084   0.000010
    14  C    0.000001  -0.000550   0.000001  -0.000071   0.000101  -0.000003
    15  C    0.000006   0.000140   0.000000  -0.000002   0.000001  -0.000000
    16  C    0.000046  -0.000976  -0.000000   0.000001  -0.000000   0.000000
    17  C    0.003497  -0.127448   0.000000   0.000000  -0.000000   0.000000
    18  C    0.489753   0.003464  -0.000000  -0.000001   0.000000  -0.000000
    19  C    4.967360   0.437654  -0.000000   0.000016  -0.000001   0.000001
    20  C    0.437654   5.151922   0.000001   0.000201  -0.000024   0.000012
    21  H   -0.000000   0.000001   0.528167  -0.017608  -0.031606  -0.008566
    22  H    0.000016   0.000201  -0.017608   0.554388  -0.056167   0.009349
    23  H   -0.000001  -0.000024  -0.031606  -0.056167   0.608836  -0.007690
    24  H    0.000001   0.000012  -0.008566   0.009349  -0.007690   0.531227
    25  H    0.000022   0.000039  -0.000276  -0.000382   0.000315  -0.009989
    26  H   -0.000006  -0.000176  -0.000253  -0.001839   0.013103  -0.002508
    27  H    0.000197  -0.002309   0.000095  -0.005996   0.001321  -0.000430
    28  H    0.000004  -0.002523  -0.000163  -0.002262   0.001357  -0.000408
    29  H    0.001136  -0.007293   0.000000  -0.000035   0.000014   0.000039
    30  H    0.000153   0.000119   0.000001   0.000032  -0.000060   0.000034
    31  H    0.000177  -0.000642  -0.000000  -0.000000   0.000000  -0.000000
    32  H   -0.000226   0.000962   0.000000  -0.000000   0.000000  -0.000000
    33  H    0.000039  -0.000976   0.000000   0.000000  -0.000000   0.000000
    34  H   -0.000014   0.000074  -0.000000  -0.000000   0.000000  -0.000000
    35  H   -0.000014   0.000296   0.000079  -0.000817  -0.000144  -0.000056
    36  H   -0.000000  -0.000004  -0.000001  -0.000003   0.000051  -0.000000
    37  H    0.000000   0.000000  -0.000000   0.000000  -0.000000   0.000000
    38  H    0.000001   0.000002  -0.000000   0.000000  -0.000000   0.000000
    39  H    0.005786  -0.002250   0.000000   0.000000  -0.000000   0.000000
    40  H   -0.039450   0.007829  -0.000000  -0.000000   0.000000  -0.000000
    41  H    0.402969  -0.029106   0.000000   0.000000  -0.000000  -0.000000
    42  H   -0.008620   0.380063  -0.000003   0.000107  -0.000004   0.000014
              25         26         27         28         29         30
     1  C    0.010385  -0.019968   0.001318  -0.002034  -0.000122   0.000045
     2  N   -0.029058  -0.059284  -0.001341   0.012571  -0.000343   0.000214
     3  C    0.404850   0.533053  -0.050819   0.007980   0.002123  -0.002804
     4  C   -0.015692  -0.168664   0.460879   0.350399  -0.069855  -0.075540
     5  C   -0.007894   0.025448  -0.085348  -0.006474   0.405313   0.436692
     6  N    0.000680  -0.001409   0.008335  -0.004314  -0.039431  -0.040408
     7  C   -0.000040  -0.000043   0.003537   0.005657   0.000421   0.013878
     8  C    0.000008   0.000019   0.000252  -0.000029   0.006821   0.000038
     9  C   -0.000005   0.000002  -0.000046   0.000012  -0.000432  -0.000044
    10  C    0.000001   0.000001   0.000087  -0.000011   0.000460  -0.000267
    11  C    0.000029  -0.000148   0.001300  -0.000306   0.002349   0.003167
    12  C    0.000240  -0.000976   0.003702  -0.001312   0.010423   0.000921
    13  C    0.000237   0.000194  -0.004613  -0.000071   0.001384  -0.023766
    14  C    0.000005   0.000313   0.000824   0.000127   0.000074   0.000690
    15  C   -0.000000  -0.000005   0.000007  -0.000014  -0.000020  -0.000646
    16  C   -0.000000  -0.000003  -0.000054   0.000013   0.000020   0.000639
    17  C    0.000003  -0.000002  -0.000016  -0.000168   0.000148  -0.000042
    18  C   -0.000002   0.000001   0.000006   0.000043  -0.000330  -0.000035
    19  C    0.000022  -0.000006   0.000197   0.000004   0.001136   0.000153
    20  C    0.000039  -0.000176  -0.002309  -0.002523  -0.007293   0.000119
    21  H   -0.000276  -0.000253   0.000095  -0.000163   0.000000   0.000001
    22  H   -0.000382  -0.001839  -0.005996  -0.002262  -0.000035   0.000032
    23  H    0.000315   0.013103   0.001321   0.001357   0.000014  -0.000060
    24  H   -0.009989  -0.002508  -0.000430  -0.000408   0.000039   0.000034
    25  H    0.529335  -0.029010   0.004239  -0.005180   0.000349   0.001778
    26  H   -0.029010   0.549816  -0.000417   0.008802   0.001597  -0.001073
    27  H    0.004239  -0.000417   0.502567  -0.022669   0.004581   0.005526
    28  H   -0.005180   0.008802  -0.022669   0.516856  -0.003232   0.003942
    29  H    0.000349   0.001597   0.004581  -0.003232   0.502886  -0.003184
    30  H    0.001778  -0.001073   0.005526   0.003942  -0.003184   0.490999
    31  H   -0.000000  -0.000000  -0.000001  -0.000000  -0.000081  -0.000032
    32  H    0.000000  -0.000001  -0.000004   0.000009  -0.000308  -0.000139
    33  H    0.000000  -0.000000   0.000004   0.000001   0.000025   0.000021
    34  H   -0.000000   0.000000  -0.000002   0.000000  -0.000021  -0.000022
    35  H   -0.000016   0.000877  -0.011716   0.000558   0.000057  -0.007334
    36  H   -0.000000   0.000069   0.000044   0.000003  -0.000002  -0.000012
    37  H    0.000000  -0.000000   0.000002  -0.000000   0.000000   0.000000
    38  H    0.000000   0.000000  -0.000001   0.000000  -0.000000   0.000005
    39  H    0.000000  -0.000000   0.000000  -0.000001   0.000025   0.000001
    40  H   -0.000000   0.000000   0.000000   0.000002  -0.000003   0.000000
    41  H    0.000000  -0.000000  -0.000009   0.000056  -0.000028  -0.000001
    42  H   -0.000050  -0.000092  -0.001421  -0.010237   0.000870  -0.000303
              31         32         33         34         35         36
     1  C    0.000000   0.000000  -0.000000   0.000000  -0.002685   0.000037
     2  N    0.000000  -0.000000   0.000000  -0.000000   0.000164  -0.000006
     3  C   -0.000000  -0.000003   0.000000   0.000000   0.000140   0.000038
     4  C    0.000013   0.000269   0.000014  -0.000001  -0.007348  -0.000041
     5  C    0.000091   0.000348  -0.000484   0.000269   0.012299   0.000167
     6  N    0.001651   0.003651  -0.001993   0.000880  -0.008974  -0.000224
     7  C    0.012724  -0.014475   0.002856  -0.000916  -0.000362   0.000036
     8  C   -0.058123  -0.061055  -0.010970   0.011728  -0.000151  -0.000004
     9  C    0.444527   0.461204  -0.036127  -0.046878  -0.000047  -0.000003
    10  C   -0.059848  -0.052080   0.435106   0.435138  -0.000162   0.000075
    11  C    0.009318  -0.011772  -0.055547  -0.066088  -0.000138   0.000604
    12  C   -0.000461   0.003109  -0.000296   0.011253  -0.061703   0.007936
    13  C   -0.000018   0.000212  -0.000960   0.000045   0.407418  -0.030405
    14  C    0.000012   0.000058   0.000589  -0.000093  -0.003675   0.400684
    15  C   -0.000050  -0.000107  -0.000983   0.001696   0.001395  -0.033221
    16  C   -0.000265   0.000808  -0.003373  -0.009798   0.001712   0.004216
    17  C   -0.002245   0.000454  -0.002737   0.000713  -0.000009   0.000000
    18  C    0.000230   0.000329   0.000372  -0.000022   0.000001   0.000000
    19  C    0.000177  -0.000226   0.000039  -0.000014  -0.000014  -0.000000
    20  C   -0.000642   0.000962  -0.000976   0.000074   0.000296  -0.000004
    21  H   -0.000000   0.000000   0.000000  -0.000000   0.000079  -0.000001
    22  H   -0.000000  -0.000000   0.000000  -0.000000  -0.000817  -0.000003
    23  H    0.000000   0.000000  -0.000000   0.000000  -0.000144   0.000051
    24  H   -0.000000  -0.000000   0.000000  -0.000000  -0.000056  -0.000000
    25  H   -0.000000   0.000000   0.000000  -0.000000  -0.000016  -0.000000
    26  H   -0.000000  -0.000001  -0.000000   0.000000   0.000877   0.000069
    27  H   -0.000001  -0.000004   0.000004  -0.000002  -0.011716   0.000044
    28  H   -0.000000   0.000009   0.000001   0.000000   0.000558   0.000003
    29  H   -0.000081  -0.000308   0.000025  -0.000021   0.000057  -0.000002
    30  H   -0.000032  -0.000139   0.000021  -0.000022  -0.007334  -0.000012
    31  H    0.522097  -0.015595   0.001057  -0.008162   0.000000   0.000000
    32  H   -0.015595   0.499581   0.005110   0.002060   0.000008   0.000001
    33  H    0.001057   0.005110   0.525865  -0.029427   0.000006  -0.000000
    34  H   -0.008162   0.002060  -0.029427   0.547524   0.000018  -0.000001
    35  H    0.000000   0.000008   0.000006   0.000018   0.527148  -0.005180
    36  H    0.000000   0.000001  -0.000000  -0.000001  -0.005180   0.522133
    37  H   -0.000001  -0.000002  -0.000015  -0.000049  -0.000331  -0.003773
    38  H   -0.000034   0.000016   0.000447   0.001234   0.000081  -0.000388
    39  H    0.002412  -0.000063   0.000542  -0.000114   0.000000  -0.000000
    40  H   -0.000048   0.000012   0.000009  -0.000001   0.000000   0.000000
    41  H   -0.000000  -0.000002  -0.000004   0.000000   0.000000  -0.000000
    42  H    0.000006  -0.000015  -0.000008  -0.000002   0.000067  -0.000001
              37         38         39         40         41         42
     1  C    0.000000   0.000000  -0.000000  -0.000000   0.000000   0.000017
     2  N    0.000000   0.000000  -0.000000   0.000000  -0.000000  -0.000137
     3  C   -0.000000   0.000000   0.000000  -0.000000  -0.000005   0.001154
     4  C    0.000001  -0.000003   0.000001   0.000001   0.000176  -0.005962
     5  C   -0.000010   0.000041  -0.000020  -0.000005   0.000075  -0.001277
     6  N    0.000029  -0.000277  -0.000383   0.000016  -0.000267   0.003588
     7  C   -0.000007   0.000123   0.015972  -0.001856   0.006666  -0.022039
     8  C   -0.000004  -0.000139  -0.041101   0.008440   0.000620   0.001985
     9  C    0.000031   0.000803  -0.004696  -0.000146   0.000090  -0.000453
    10  C   -0.000237  -0.006327  -0.000669   0.000041  -0.000016   0.000135
    11  C    0.007951  -0.054923   0.000148  -0.000001   0.000002   0.000228
    12  C   -0.001143   0.014618  -0.000063  -0.000008   0.000007   0.000025
    13  C    0.008002  -0.000781  -0.000006   0.000000  -0.000001   0.000565
    14  C   -0.039780   0.005269   0.000000  -0.000000  -0.000000  -0.000057
    15  C    0.417241  -0.031804  -0.000001  -0.000000  -0.000000   0.000009
    16  C   -0.041272   0.411421   0.000013  -0.000000   0.000000  -0.000015
    17  C   -0.000000  -0.000009   0.401701  -0.040600   0.004015   0.001497
    18  C    0.000000  -0.000001  -0.035433   0.416494  -0.033916   0.000030
    19  C    0.000000   0.000001   0.005786  -0.039450   0.402969  -0.008620
    20  C    0.000000   0.000002  -0.002250   0.007829  -0.029106   0.380063
    21  H   -0.000000  -0.000000   0.000000  -0.000000   0.000000  -0.000003
    22  H    0.000000   0.000000   0.000000  -0.000000   0.000000   0.000107
    23  H   -0.000000  -0.000000  -0.000000   0.000000  -0.000000  -0.000004
    24  H    0.000000   0.000000   0.000000  -0.000000  -0.000000   0.000014
    25  H    0.000000   0.000000   0.000000  -0.000000   0.000000  -0.000050
    26  H   -0.000000   0.000000  -0.000000   0.000000  -0.000000  -0.000092
    27  H    0.000002  -0.000001   0.000000   0.000000  -0.000009  -0.001421
    28  H   -0.000000   0.000000  -0.000001   0.000002   0.000056  -0.010237
    29  H    0.000000  -0.000000   0.000025  -0.000003  -0.000028   0.000870
    30  H    0.000000   0.000005   0.000001   0.000000  -0.000001  -0.000303
    31  H   -0.000001  -0.000034   0.002412  -0.000048  -0.000000   0.000006
    32  H   -0.000002   0.000016  -0.000063   0.000012  -0.000002  -0.000015
    33  H   -0.000015   0.000447   0.000542   0.000009  -0.000004  -0.000008
    34  H   -0.000049   0.001234  -0.000114  -0.000001   0.000000  -0.000002
    35  H   -0.000331   0.000081   0.000000   0.000000   0.000000   0.000067
    36  H   -0.003773  -0.000388  -0.000000   0.000000  -0.000000  -0.000001
    37  H    0.520629  -0.004458  -0.000000   0.000000   0.000000   0.000000
    38  H   -0.004458   0.529564   0.000000  -0.000000   0.000000   0.000000
    39  H   -0.000000   0.000000   0.525254  -0.003977  -0.000344   0.000063
    40  H    0.000000  -0.000000  -0.003977   0.516660  -0.003974  -0.000220
    41  H    0.000000   0.000000  -0.000344  -0.003974   0.514418  -0.003191
    42  H    0.000000   0.000000   0.000063  -0.000220  -0.003191   0.472462
 Mulliken charges:
               1
     1  C   -0.334676
     2  N   -0.353046
     3  C   -0.237372
     4  C   -0.335754
     5  C   -0.324861
     6  N   -0.178933
     7  C    0.072121
     8  C    0.082750
     9  C   -0.392874
    10  C   -0.311631
    11  C    0.063667
    12  C    0.167204
    13  C   -0.198278
    14  C   -0.186679
    15  C   -0.168044
    16  C   -0.190426
    17  C   -0.144991
    18  C   -0.151921
    19  C   -0.162714
    20  C   -0.190049
    21  H    0.144018
    22  H    0.148002
    23  H    0.125832
    24  H    0.210012
    25  H    0.145079
    26  H    0.152581
    27  H    0.188390
    28  H    0.153018
    29  H    0.183604
    30  H    0.196816
    31  H    0.151287
    32  H    0.177645
    33  H    0.171837
    34  H    0.148982
    35  H    0.158538
    36  H    0.137175
    37  H    0.137195
    38  H    0.135519
    39  H    0.137202
    40  H    0.140785
    41  H    0.141770
    42  H    0.191222
 Sum of Mulliken charges =  -0.00000
 Mulliken charges with hydrogens summed into heavy atoms:
               1
     1  C    0.083176
     2  N   -0.143034
     3  C    0.060288
     4  C    0.005653
     5  C    0.055558
     6  N   -0.178933
     7  C    0.072121
     8  C    0.082750
     9  C   -0.063941
    10  C    0.009188
    11  C    0.063667
    12  C    0.167204
    13  C   -0.039741
    14  C   -0.049504
    15  C   -0.030849
    16  C   -0.054907
    17  C   -0.007789
    18  C   -0.011136
    19  C   -0.020944
    20  C    0.001173
 Electronic spatial extent (au):  <R**2>=           6316.9197
 Charge=              0.0000 electrons
 Dipole moment (field-independent basis, Debye):
    X=              0.6875    Y=              0.0676    Z=              0.8920  Tot=              1.1282
 Quadrupole moment (field-independent basis, Debye-Ang):
   XX=           -105.4984   YY=           -121.3450   ZZ=           -122.6051
   XY=              3.3948   XZ=              0.1812   YZ=              0.6531
 Traceless Quadrupole moment (field-independent basis, Debye-Ang):
   XX=             10.9844   YY=             -4.8621   ZZ=             -6.1223
   XY=              3.3948   XZ=              0.1812   YZ=              0.6531
 Octapole moment (field-independent basis, Debye-Ang**2):
  XXX=             40.4589  YYY=              5.3072  ZZZ=             12.3063  XYY=            -17.1721
  XXY=             10.8529  XXZ=             20.2263  XZZ=             19.0885  YZZ=            -12.2646
  YYZ=            -21.2909  XYZ=             -5.7491
 Hexadecapole moment (field-independent basis, Debye-Ang**3):
 XXXX=          -4361.5059 YYYY=          -3209.6470 ZZZZ=           -561.8521 XXXY=             33.3771
 XXXZ=             35.1893 YYYX=             48.0097 YYYZ=             11.6195 ZZZX=              0.7777
 ZZZY=              8.2257 XXYY=          -1362.8385 XXZZ=           -878.3787 YYZZ=           -667.8886
 XXYZ=            -20.1655 YYXZ=             22.7836 ZZXY=            -22.6290
 N-N= 1.517734681089D+03 E-N=-4.911060687047D+03  KE= 8.040951213081D+02
 Unable to Open any file for archive entry.
 1\1\GINC-NOTCH288\SP\RM062X\def2TZVP\C18H22N2\U6032257\23-Sep-2022\0\\
 # M062X/def2tzvp int=(grid=ultrafine) nmr=giao guess=read geom=check\\
 SecN5.xyz\\0,1\C,0,-1.1697593199,-1.8183203642,4.4835739184\N,0,-0.296
 3705777,-2.9389183418,4.1531958238\C,0,-0.303922842,-3.2897313998,2.73
 59170605\C,0,0.4442778039,-2.2650711957,1.879899831\C,0,0.5715386723,-
 2.7531602302,0.4222610978\N,0,0.7655651478,-1.7467722238,-0.6237844801
 \C,0,2.0929674168,-1.2743192701,-0.829006777\C,0,2.7067633555,-1.41919
 48355,-2.0843888926\C,0,1.8889224453,-1.9302696544,-3.233227383\C,0,0.
 8062651681,-0.9052401265,-3.6031153465\C,0,-0.3655545606,-0.8014557194
 ,-2.6426457133\C,0,-0.3648714028,-1.2180450825,-1.2871832234\C,0,-1.57
 76709703,-1.140521145,-0.569210478\C,0,-2.7456951615,-0.6513848405,-1.
 1399842435\C,0,-2.739536331,-0.2037829333,-2.4584374164\C,0,-1.5548198
 153,-0.2911413545,-3.1804382043\C,0,4.0300749171,-1.0039640079,-2.2494
 598445\C,0,4.7586117428,-0.4730444813,-1.1859349734\C,0,4.147553187,-0
 .3295005936,0.0583820368\C,0,2.8201310753,-0.7181265409,0.2318035788\H
 ,0,-1.2203584744,-1.7050073754,5.5700562\H,0,-0.7597592934,-0.88808906
 31,4.0784829146\H,0,-2.2011227861,-1.9220900141,4.09767446\H,0,-0.5868
 3945,-3.7500476353,4.6912760978\H,0,0.1880945634,-4.2647146845,2.63026
 35361\H,0,-1.3303402235,-3.4076298672,2.3323486358\H,0,-0.0722122009,-
 1.3006357546,1.9003163779\H,0,1.4304906865,-2.1063327625,2.3245403194\
 H,0,1.407983763,-3.4585270483,0.3568039148\H,0,-0.3305282999,-3.313691
 8342,0.1538211866\H,0,2.5331891347,-2.104886565,-4.1004096492\H,0,1.41
 62294586,-2.8849862082,-2.9747161593\H,0,1.2908739846,0.0744428884,-3.
 7120679388\H,0,0.3987356799,-1.1520402877,-4.5900298519\H,0,-1.6016076
 13,-1.4527407961,0.4662855731\H,0,-3.6528012963,-0.6091815369,-0.54437
 18156\H,0,-3.6389176307,0.1894566943,-2.9209270005\H,0,-1.5445407717,0
 .022162868,-4.2217273326\H,0,4.4953649523,-1.1122144838,-3.2257216429\
 H,0,5.7904658174,-0.1682802839,-1.3302724186\H,0,4.69502952,0.09861398
 84,0.8924945986\H,0,2.336800529,-0.5709158974,1.1888636237\\Version=ES
 64L-G16RevC.01\State=1-A\HF=-808.5900962\RMSD=4.649e-09\Dipole=-0.1332
 928,-0.3997575,0.1394835\Quadrupole=0.2121239,-4.0055496,3.7934257,2.0
 339922,-5.7405566,-2.1291239\PG=C01 [X(C18H22N2)]\\@
 The archive entry for this job was punched.


 JUST WHEN YOU THINK YOU'VE GOT THE WORLD ON A STRING,
 YOU FIND OUT IT'S YOUR LEASH.
 Job cpu time:       0 days  3 hours  1 minutes 10.8 seconds.
 Elapsed time:       0 days  0 hours  3 minutes 22.0 seconds.
 File lengths (MBytes):  RWF=    318 Int=      0 D2E=      0 Chk=     53 Scr=      1
 Normal termination of Gaussian 16 at Fri Sep 23 16:33:44 2022.
