 Entering Gaussian System, Link 0=/uufs/chpc.utah.edu/sys/installdir/gaussian16/C01/AVX2/g16/g16
 Input=SecN5_clust-1.com
 Output=SecN5_clust-1.log
 Initial command:
 /uufs/chpc.utah.edu/sys/installdir/gaussian16/C01/AVX2/g16/l1.exe "/scratch/local/u6032257/5771825/notchpeak.peaks/Gau-1805522.inp" -scrdir="/scratch/local/u6032257/5771825/notchpeak.peaks/"
 Entering Link 1 = /uufs/chpc.utah.edu/sys/installdir/gaussian16/C01/AVX2/g16/l1.exe PID=   1805524.
  
 Copyright (c) 1988-2019, Gaussian, Inc.  All Rights Reserved.
  
 This is part of the Gaussian(R) 16 program.  It is based on
 the Gaussian(R) 09 system (copyright 2009, Gaussian, Inc.),
 the Gaussian(R) 03 system (copyright 2003, Gaussian, Inc.),
 the Gaussian(R) 98 system (copyright 1998, Gaussian, Inc.),
 the Gaussian(R) 94 system (copyright 1995, Gaussian, Inc.),
 the Gaussian 92(TM) system (copyright 1992, Gaussian, Inc.),
 the Gaussian 90(TM) system (copyright 1990, Gaussian, Inc.),
 the Gaussian 88(TM) system (copyright 1988, Gaussian, Inc.),
 the Gaussian 86(TM) system (copyright 1986, Carnegie Mellon
 University), and the Gaussian 82(TM) system (copyright 1983,
 Carnegie Mellon University). Gaussian is a federally registered
 trademark of Gaussian, Inc.
  
 This software contains proprietary and confidential information,
 including trade secrets, belonging to Gaussian, Inc.
  
 This software is provided under written license and may be
 used, copied, transmitted, or stored only in accord with that
 written license.
  
 The following legend is applicable only to US Government
 contracts under FAR:
  
                    RESTRICTED RIGHTS LEGEND
  
 Use, reproduction and disclosure by the US Government is
 subject to restrictions as set forth in subparagraphs (a)
 and (c) of the Commercial Computer Software - Restricted
 Rights clause in FAR 52.227-19.
  
 Gaussian, Inc.
 340 Quinnipiac St., Bldg. 40, Wallingford CT 06492
  
  
 ---------------------------------------------------------------
 Warning -- This program may not be used in any manner that
 competes with the business of Gaussian, Inc. or will provide
 assistance to any competitor of Gaussian, Inc.  The licensee
 of this program is prohibited from giving any competitor of
 Gaussian, Inc. access to this program.  By using this program,
 the user acknowledges that Gaussian, Inc. is engaged in the
 business of creating and licensing software in the field of
 computational chemistry and represents and warrants to the
 licensee that it is not a competitor of Gaussian, Inc. and that
 it will not use this program in any manner prohibited above.
 ---------------------------------------------------------------
  

 Cite this work as:
 Gaussian 16, Revision C.01,
 M. J. Frisch, G. W. Trucks, H. B. Schlegel, G. E. Scuseria, 
 M. A. Robb, J. R. Cheeseman, G. Scalmani, V. Barone, 
 G. A. Petersson, H. Nakatsuji, X. Li, M. Caricato, A. V. Marenich, 
 J. Bloino, B. G. Janesko, R. Gomperts, B. Mennucci, H. P. Hratchian, 
 J. V. Ortiz, A. F. Izmaylov, J. L. Sonnenberg, D. Williams-Young, 
 F. Ding, F. Lipparini, F. Egidi, J. Goings, B. Peng, A. Petrone, 
 T. Henderson, D. Ranasinghe, V. G. Zakrzewski, J. Gao, N. Rega, 
 G. Zheng, W. Liang, M. Hada, M. Ehara, K. Toyota, R. Fukuda, 
 J. Hasegawa, M. Ishida, T. Nakajima, Y. Honda, O. Kitao, H. Nakai, 
 T. Vreven, K. Throssell, J. A. Montgomery, Jr., J. E. Peralta, 
 F. Ogliaro, M. J. Bearpark, J. J. Heyd, E. N. Brothers, K. N. Kudin, 
 V. N. Staroverov, T. A. Keith, R. Kobayashi, J. Normand, 
 K. Raghavachari, A. P. Rendell, J. C. Burant, S. S. Iyengar, 
 J. Tomasi, M. Cossi, J. M. Millam, M. Klene, C. Adamo, R. Cammi, 
 J. W. Ochterski, R. L. Martin, K. Morokuma, O. Farkas, 
 J. B. Foresman, and D. J. Fox, Gaussian, Inc., Wallingford CT, 2019.
 
 ******************************************
 Gaussian 16:  ES64L-G16RevC.01  3-Jul-2019
                23-Sep-2022 
 ******************************************
 %NProcShared=40
 Will use up to   40 processors via shared memory.
 %mem=16GB
 %chk=SecN5_clust-1.chk
 ----------------------------------------------------------------------
 # B3LYP/6-31G(d,p) empiricaldispersion=GD3BJ int=(grid=ultrafine) opt 
 freq=noraman
 ----------------------------------------------------------------------
 1/18=20,19=15,26=4,38=1/1,3;
 2/9=110,12=2,17=6,18=5,40=1/2;
 3/5=1,6=6,7=101,11=2,25=1,30=1,71=1,74=-5,75=-5,124=41/1,2,3;
 4//1;
 5/5=2,38=5/2;
 6/7=2,8=2,9=2,10=2,28=1/1;
 7//1,2,3,16;
 1/18=20,19=15,26=4/3(2);
 2/9=110/2;
 99//99;
 2/9=110/2;
 3/5=1,6=6,7=101,11=2,25=1,30=1,71=1,74=-5,75=-5,124=41/1,2,3;
 4/5=5,16=3,69=1/1;
 5/5=2,38=5/2;
 7//1,2,3,16;
 1/18=20,19=15,26=4/3(-5);
 2/9=110/2;
 6/7=2,8=2,9=2,10=2,19=2,28=1/1;
 99/9=1/99;
 ---------
 SecN5.xyz
 ---------
 Symbolic Z-matrix:
 Charge =  0 Multiplicity = 1
 C                     0.743    -1.055     3.8026 
 N                    -0.2208   -1.5015    2.8019 
 C                    -0.2643   -2.9511    2.7018 
 C                     0.7908   -3.4543    1.6983 
 C                     0.5069   -3.1796    0.1991 
 N                     0.551    -1.7523   -0.1989 
 C                     1.8789   -1.3629   -0.4588 
 C                     2.5261   -1.5801   -1.6931 
 C                     1.7241   -2.0539   -2.8873 
 C                     0.5982   -1.0797   -3.2395 
 C                    -0.6268   -1.0578   -2.3282 
 C                    -0.5938   -1.3769   -0.9418 
 C                    -1.8093   -1.3395   -0.2381 
 C                    -3.0092   -0.9748   -0.8398 
 C                    -3.0249   -0.6361   -2.1843 
 C                    -1.8434   -0.6771   -2.915 
 C                     3.8866   -1.2716   -1.8283 
 C                     4.6127   -0.7537   -0.7596 
 C                     3.981    -0.5308    0.4584 
 C                     2.63     -0.8392    0.5995 
 H                     0.4429   -1.3772    4.8015 
 H                     0.7937    0.0349    3.8125 
 H                     1.7482   -1.4336    3.6116 
 H                     0.0486   -1.1829    1.8678 
 H                    -0.1481   -3.4272    3.6783 
 H                    -1.2534   -3.2409    2.3427 
 H                     1.7966   -3.1381    1.9732 
 H                     0.8199   -4.5384    1.809 
 H                     1.2117   -3.7599   -0.4014 
 H                    -0.4632   -3.6237   -0.0385 
 H                     2.3865   -2.1532   -3.7484 
 H                     1.3424   -3.06     -2.7084 
 H                     0.9961   -0.0648   -3.2927 
 H                     0.267    -1.3078   -4.254 
 H                    -1.8297   -1.5867    0.8104 
 H                    -3.9192   -0.95     -0.2582 
 H                    -3.9501   -0.3443   -2.6608 
 H                    -1.8782   -0.4132   -3.9624 
 H                     4.385    -1.4209   -2.7754 
 H                     5.6605   -0.5172   -0.8793 
 H                     4.5338   -0.1251    1.293 
 H                     2.1524   -0.6692    1.5484 
 

 GradGradGradGradGradGradGradGradGradGradGradGradGradGradGradGradGradGrad
 Berny optimization.
 Initialization pass.
                           ----------------------------
                           !    Initial Parameters    !
                           ! (Angstroms and Degrees)  !
 --------------------------                            --------------------------
 ! Name  Definition              Value          Derivative Info.                !
 --------------------------------------------------------------------------------
 ! R1    R(1,2)                  1.4593         estimate D2E/DX2                !
 ! R2    R(1,21)                 1.0916         estimate D2E/DX2                !
 ! R3    R(1,22)                 1.0911         estimate D2E/DX2                !
 ! R4    R(1,23)                 1.091          estimate D2E/DX2                !
 ! R5    R(2,3)                  1.4537         estimate D2E/DX2                !
 ! R6    R(2,24)                 1.023          estimate D2E/DX2                !
 ! R7    R(3,4)                  1.5406         estimate D2E/DX2                !
 ! R8    R(3,25)                 1.0926         estimate D2E/DX2                !
 ! R9    R(3,26)                 1.0914         estimate D2E/DX2                !
 ! R10   R(4,5)                  1.5504         estimate D2E/DX2                !
 ! R11   R(4,27)                 1.0896         estimate D2E/DX2                !
 ! R12   R(4,28)                 1.0901         estimate D2E/DX2                !
 ! R13   R(5,6)                  1.4824         estimate D2E/DX2                !
 ! R14   R(5,29)                 1.0927         estimate D2E/DX2                !
 ! R15   R(5,30)                 1.0931         estimate D2E/DX2                !
 ! R16   R(6,7)                  1.408          estimate D2E/DX2                !
 ! R17   R(6,12)                 1.4154         estimate D2E/DX2                !
 ! R18   R(7,8)                  1.4105         estimate D2E/DX2                !
 ! R19   R(7,20)                 1.3994         estimate D2E/DX2                !
 ! R20   R(8,9)                  1.5145         estimate D2E/DX2                !
 ! R21   R(8,17)                 1.4016         estimate D2E/DX2                !
 ! R22   R(9,10)                 1.53           estimate D2E/DX2                !
 ! R23   R(9,31)                 1.0909         estimate D2E/DX2                !
 ! R24   R(9,32)                 1.0908         estimate D2E/DX2                !
 ! R25   R(10,11)                1.5269         estimate D2E/DX2                !
 ! R26   R(10,33)                1.0914         estimate D2E/DX2                !
 ! R27   R(10,34)                1.0913         estimate D2E/DX2                !
 ! R28   R(11,12)                1.423          estimate D2E/DX2                !
 ! R29   R(11,16)                1.4033         estimate D2E/DX2                !
 ! R30   R(12,13)                1.405          estimate D2E/DX2                !
 ! R31   R(13,14)                1.391          estimate D2E/DX2                !
 ! R32   R(13,35)                1.0774         estimate D2E/DX2                !
 ! R33   R(14,15)                1.3866         estimate D2E/DX2                !
 ! R34   R(14,36)                1.0803         estimate D2E/DX2                !
 ! R35   R(15,16)                1.3898         estimate D2E/DX2                !
 ! R36   R(15,37)                1.0808         estimate D2E/DX2                !
 ! R37   R(16,38)                1.0807         estimate D2E/DX2                !
 ! R38   R(17,18)                1.392          estimate D2E/DX2                !
 ! R39   R(17,39)                1.0806         estimate D2E/DX2                !
 ! R40   R(18,19)                1.3901         estimate D2E/DX2                !
 ! R41   R(18,40)                1.0808         estimate D2E/DX2                !
 ! R42   R(19,20)                1.3929         estimate D2E/DX2                !
 ! R43   R(19,41)                1.0802         estimate D2E/DX2                !
 ! R44   R(20,42)                1.0758         estimate D2E/DX2                !
 ! A1    A(2,1,21)             110.8304         estimate D2E/DX2                !
 ! A2    A(2,1,22)             110.0309         estimate D2E/DX2                !
 ! A3    A(2,1,23)             112.4749         estimate D2E/DX2                !
 ! A4    A(21,1,22)            107.4152         estimate D2E/DX2                !
 ! A5    A(21,1,23)            108.1234         estimate D2E/DX2                !
 ! A6    A(22,1,23)            107.783          estimate D2E/DX2                !
 ! A7    A(1,2,3)              111.8438         estimate D2E/DX2                !
 ! A8    A(1,2,24)             110.9103         estimate D2E/DX2                !
 ! A9    A(3,2,24)             104.8063         estimate D2E/DX2                !
 ! A10   A(2,3,4)              110.4911         estimate D2E/DX2                !
 ! A11   A(2,3,25)             111.7035         estimate D2E/DX2                !
 ! A12   A(2,3,26)             108.3332         estimate D2E/DX2                !
 ! A13   A(4,3,25)             111.5306         estimate D2E/DX2                !
 ! A14   A(4,3,26)             108.6392         estimate D2E/DX2                !
 ! A15   A(25,3,26)            105.9463         estimate D2E/DX2                !
 ! A16   A(3,4,5)              116.5248         estimate D2E/DX2                !
 ! A17   A(3,4,27)             111.9053         estimate D2E/DX2                !
 ! A18   A(3,4,28)             106.0786         estimate D2E/DX2                !
 ! A19   A(5,4,27)             111.1978         estimate D2E/DX2                !
 ! A20   A(5,4,28)             106.2177         estimate D2E/DX2                !
 ! A21   A(27,4,28)            103.7884         estimate D2E/DX2                !
 ! A22   A(4,5,6)              115.136          estimate D2E/DX2                !
 ! A23   A(4,5,29)             108.6142         estimate D2E/DX2                !
 ! A24   A(4,5,30)             107.5013         estimate D2E/DX2                !
 ! A25   A(6,5,29)             110.1561         estimate D2E/DX2                !
 ! A26   A(6,5,30)             111.0529         estimate D2E/DX2                !
 ! A27   A(29,5,30)            103.7222         estimate D2E/DX2                !
 ! A28   A(5,6,7)              110.1143         estimate D2E/DX2                !
 ! A29   A(5,6,12)             111.8525         estimate D2E/DX2                !
 ! A30   A(7,6,12)             126.3387         estimate D2E/DX2                !
 ! A31   A(6,7,8)              123.4819         estimate D2E/DX2                !
 ! A32   A(6,7,20)             118.0398         estimate D2E/DX2                !
 ! A33   A(8,7,20)             118.2369         estimate D2E/DX2                !
 ! A34   A(7,8,9)              119.6823         estimate D2E/DX2                !
 ! A35   A(7,8,17)             119.7299         estimate D2E/DX2                !
 ! A36   A(9,8,17)             120.452          estimate D2E/DX2                !
 ! A37   A(8,9,10)             111.8392         estimate D2E/DX2                !
 ! A38   A(8,9,31)             109.2279         estimate D2E/DX2                !
 ! A39   A(8,9,32)             110.1519         estimate D2E/DX2                !
 ! A40   A(10,9,31)            108.8497         estimate D2E/DX2                !
 ! A41   A(10,9,32)            111.5637         estimate D2E/DX2                !
 ! A42   A(31,9,32)            104.9492         estimate D2E/DX2                !
 ! A43   A(9,10,11)            117.5244         estimate D2E/DX2                !
 ! A44   A(9,10,33)            109.5751         estimate D2E/DX2                !
 ! A45   A(9,10,34)            107.7131         estimate D2E/DX2                !
 ! A46   A(11,10,33)           107.9529         estimate D2E/DX2                !
 ! A47   A(11,10,34)           108.3205         estimate D2E/DX2                !
 ! A48   A(33,10,34)           105.052          estimate D2E/DX2                !
 ! A49   A(10,11,12)           124.0301         estimate D2E/DX2                !
 ! A50   A(10,11,16)           116.733          estimate D2E/DX2                !
 ! A51   A(12,11,16)           119.2299         estimate D2E/DX2                !
 ! A52   A(6,12,11)            126.1274         estimate D2E/DX2                !
 ! A53   A(6,12,13)            116.353          estimate D2E/DX2                !
 ! A54   A(11,12,13)           117.5117         estimate D2E/DX2                !
 ! A55   A(12,13,14)           122.4529         estimate D2E/DX2                !
 ! A56   A(12,13,35)           119.8462         estimate D2E/DX2                !
 ! A57   A(14,13,35)           117.6958         estimate D2E/DX2                !
 ! A58   A(13,14,15)           119.5547         estimate D2E/DX2                !
 ! A59   A(13,14,36)           119.9865         estimate D2E/DX2                !
 ! A60   A(15,14,36)           120.4573         estimate D2E/DX2                !
 ! A61   A(14,15,16)           119.5357         estimate D2E/DX2                !
 ! A62   A(14,15,37)           120.2066         estimate D2E/DX2                !
 ! A63   A(16,15,37)           120.2575         estimate D2E/DX2                !
 ! A64   A(11,16,15)           121.6786         estimate D2E/DX2                !
 ! A65   A(11,16,38)           119.9618         estimate D2E/DX2                !
 ! A66   A(15,16,38)           118.3582         estimate D2E/DX2                !
 ! A67   A(8,17,18)            120.943          estimate D2E/DX2                !
 ! A68   A(8,17,39)            120.1221         estimate D2E/DX2                !
 ! A69   A(18,17,39)           118.9291         estimate D2E/DX2                !
 ! A70   A(17,18,19)           119.6923         estimate D2E/DX2                !
 ! A71   A(17,18,40)           120.1384         estimate D2E/DX2                !
 ! A72   A(19,18,40)           120.1667         estimate D2E/DX2                !
 ! A73   A(18,19,20)           119.6054         estimate D2E/DX2                !
 ! A74   A(18,19,41)           120.3103         estimate D2E/DX2                !
 ! A75   A(20,19,41)           120.0838         estimate D2E/DX2                !
 ! A76   A(7,20,19)            121.7905         estimate D2E/DX2                !
 ! A77   A(7,20,42)            119.2011         estimate D2E/DX2                !
 ! A78   A(19,20,42)           119.0083         estimate D2E/DX2                !
 ! D1    D(21,1,2,3)           -64.6195         estimate D2E/DX2                !
 ! D2    D(21,1,2,24)          178.7724         estimate D2E/DX2                !
 ! D3    D(22,1,2,3)           176.7242         estimate D2E/DX2                !
 ! D4    D(22,1,2,24)           60.1161         estimate D2E/DX2                !
 ! D5    D(23,1,2,3)            56.5504         estimate D2E/DX2                !
 ! D6    D(23,1,2,24)          -60.0577         estimate D2E/DX2                !
 ! D7    D(1,2,3,4)            -87.6293         estimate D2E/DX2                !
 ! D8    D(1,2,3,25)            37.1505         estimate D2E/DX2                !
 ! D9    D(1,2,3,26)           153.4714         estimate D2E/DX2                !
 ! D10   D(24,2,3,4)            32.6143         estimate D2E/DX2                !
 ! D11   D(24,2,3,25)          157.3941         estimate D2E/DX2                !
 ! D12   D(24,2,3,26)          -86.285          estimate D2E/DX2                !
 ! D13   D(2,3,4,5)            -71.8594         estimate D2E/DX2                !
 ! D14   D(2,3,4,27)            57.6551         estimate D2E/DX2                !
 ! D15   D(2,3,4,28)           170.1897         estimate D2E/DX2                !
 ! D16   D(25,3,4,5)           163.2623         estimate D2E/DX2                !
 ! D17   D(25,3,4,27)          -67.2231         estimate D2E/DX2                !
 ! D18   D(25,3,4,28)           45.3115         estimate D2E/DX2                !
 ! D19   D(26,3,4,5)            46.8539         estimate D2E/DX2                !
 ! D20   D(26,3,4,27)          176.3685         estimate D2E/DX2                !
 ! D21   D(26,3,4,28)          -71.097          estimate D2E/DX2                !
 ! D22   D(3,4,5,6)             67.5806         estimate D2E/DX2                !
 ! D23   D(3,4,5,29)          -168.3866         estimate D2E/DX2                !
 ! D24   D(3,4,5,30)           -56.7534         estimate D2E/DX2                !
 ! D25   D(27,4,5,6)           -62.2707         estimate D2E/DX2                !
 ! D26   D(27,4,5,29)           61.762          estimate D2E/DX2                !
 ! D27   D(27,4,5,30)          173.3952         estimate D2E/DX2                !
 ! D28   D(28,4,5,6)          -174.5445         estimate D2E/DX2                !
 ! D29   D(28,4,5,29)          -50.5118         estimate D2E/DX2                !
 ! D30   D(28,4,5,30)           61.1214         estimate D2E/DX2                !
 ! D31   D(4,5,6,7)             83.836          estimate D2E/DX2                !
 ! D32   D(4,5,6,12)          -130.3955         estimate D2E/DX2                !
 ! D33   D(29,5,6,7)           -39.3809         estimate D2E/DX2                !
 ! D34   D(29,5,6,12)          106.3876         estimate D2E/DX2                !
 ! D35   D(30,5,6,7)          -153.7148         estimate D2E/DX2                !
 ! D36   D(30,5,6,12)           -7.9463         estimate D2E/DX2                !
 ! D37   D(5,6,7,8)             83.4464         estimate D2E/DX2                !
 ! D38   D(5,6,7,20)           -90.8008         estimate D2E/DX2                !
 ! D39   D(12,6,7,8)           -56.1501         estimate D2E/DX2                !
 ! D40   D(12,6,7,20)          129.6027         estimate D2E/DX2                !
 ! D41   D(5,6,12,11)         -110.0755         estimate D2E/DX2                !
 ! D42   D(5,6,12,13)           68.8705         estimate D2E/DX2                !
 ! D43   D(7,6,12,11)           28.9477         estimate D2E/DX2                !
 ! D44   D(7,6,12,13)         -152.1063         estimate D2E/DX2                !
 ! D45   D(6,7,8,9)             10.0209         estimate D2E/DX2                !
 ! D46   D(6,7,8,17)          -174.1955         estimate D2E/DX2                !
 ! D47   D(20,7,8,9)          -175.7425         estimate D2E/DX2                !
 ! D48   D(20,7,8,17)            0.041          estimate D2E/DX2                !
 ! D49   D(6,7,20,19)          174.7006         estimate D2E/DX2                !
 ! D50   D(6,7,20,42)           -5.3247         estimate D2E/DX2                !
 ! D51   D(8,7,20,19)            0.1459         estimate D2E/DX2                !
 ! D52   D(8,7,20,42)         -179.8793         estimate D2E/DX2                !
 ! D53   D(7,8,9,10)            58.7395         estimate D2E/DX2                !
 ! D54   D(7,8,9,31)           179.2975         estimate D2E/DX2                !
 ! D55   D(7,8,9,32)           -65.9302         estimate D2E/DX2                !
 ! D56   D(17,8,9,10)         -117.0131         estimate D2E/DX2                !
 ! D57   D(17,8,9,31)            3.545          estimate D2E/DX2                !
 ! D58   D(17,8,9,32)          118.3173         estimate D2E/DX2                !
 ! D59   D(7,8,17,18)            0.073          estimate D2E/DX2                !
 ! D60   D(7,8,17,39)         -179.0394         estimate D2E/DX2                !
 ! D61   D(9,8,17,18)          175.8236         estimate D2E/DX2                !
 ! D62   D(9,8,17,39)           -3.2889         estimate D2E/DX2                !
 ! D63   D(8,9,10,11)          -74.3427         estimate D2E/DX2                !
 ! D64   D(8,9,10,33)           49.313          estimate D2E/DX2                !
 ! D65   D(8,9,10,34)          163.0737         estimate D2E/DX2                !
 ! D66   D(31,9,10,11)         164.8792         estimate D2E/DX2                !
 ! D67   D(31,9,10,33)         -71.4652         estimate D2E/DX2                !
 ! D68   D(31,9,10,34)          42.2956         estimate D2E/DX2                !
 ! D69   D(32,9,10,11)          49.5377         estimate D2E/DX2                !
 ! D70   D(32,9,10,33)         173.1933         estimate D2E/DX2                !
 ! D71   D(32,9,10,34)         -73.0459         estimate D2E/DX2                !
 ! D72   D(9,10,11,12)          29.0078         estimate D2E/DX2                !
 ! D73   D(9,10,11,16)        -151.9653         estimate D2E/DX2                !
 ! D74   D(33,10,11,12)        -95.4631         estimate D2E/DX2                !
 ! D75   D(33,10,11,16)         83.5638         estimate D2E/DX2                !
 ! D76   D(34,10,11,12)        151.2805         estimate D2E/DX2                !
 ! D77   D(34,10,11,16)        -29.6927         estimate D2E/DX2                !
 ! D78   D(10,11,12,6)           0.2415         estimate D2E/DX2                !
 ! D79   D(10,11,12,13)       -178.6936         estimate D2E/DX2                !
 ! D80   D(16,11,12,6)        -178.7626         estimate D2E/DX2                !
 ! D81   D(16,11,12,13)          2.3023         estimate D2E/DX2                !
 ! D82   D(10,11,16,15)        179.2695         estimate D2E/DX2                !
 ! D83   D(10,11,16,38)         -0.2943         estimate D2E/DX2                !
 ! D84   D(12,11,16,15)         -1.6546         estimate D2E/DX2                !
 ! D85   D(12,11,16,38)        178.7815         estimate D2E/DX2                !
 ! D86   D(6,12,13,14)         179.3421         estimate D2E/DX2                !
 ! D87   D(6,12,13,35)           0.1795         estimate D2E/DX2                !
 ! D88   D(11,12,13,14)         -1.6177         estimate D2E/DX2                !
 ! D89   D(11,12,13,35)        179.2197         estimate D2E/DX2                !
 ! D90   D(12,13,14,15)          0.183          estimate D2E/DX2                !
 ! D91   D(12,13,14,36)       -179.377          estimate D2E/DX2                !
 ! D92   D(35,13,14,15)        179.3627         estimate D2E/DX2                !
 ! D93   D(35,13,14,36)         -0.1973         estimate D2E/DX2                !
 ! D94   D(13,14,15,16)          0.5644         estimate D2E/DX2                !
 ! D95   D(13,14,15,37)       -179.5627         estimate D2E/DX2                !
 ! D96   D(36,14,15,16)       -179.8778         estimate D2E/DX2                !
 ! D97   D(36,14,15,37)         -0.0049         estimate D2E/DX2                !
 ! D98   D(14,15,16,11)          0.1865         estimate D2E/DX2                !
 ! D99   D(14,15,16,38)        179.7571         estimate D2E/DX2                !
 ! D100  D(37,15,16,11)       -179.6864         estimate D2E/DX2                !
 ! D101  D(37,15,16,38)         -0.1157         estimate D2E/DX2                !
 ! D102  D(8,17,18,19)          -0.3714         estimate D2E/DX2                !
 ! D103  D(8,17,18,40)        -179.788          estimate D2E/DX2                !
 ! D104  D(39,17,18,19)        178.7514         estimate D2E/DX2                !
 ! D105  D(39,17,18,40)         -0.6651         estimate D2E/DX2                !
 ! D106  D(17,18,19,20)          0.5505         estimate D2E/DX2                !
 ! D107  D(17,18,19,41)       -179.7245         estimate D2E/DX2                !
 ! D108  D(40,18,19,20)        179.9669         estimate D2E/DX2                !
 ! D109  D(40,18,19,41)         -0.3081         estimate D2E/DX2                !
 ! D110  D(18,19,20,7)          -0.4449         estimate D2E/DX2                !
 ! D111  D(18,19,20,42)        179.5803         estimate D2E/DX2                !
 ! D112  D(41,19,20,7)         179.8294         estimate D2E/DX2                !
 ! D113  D(41,19,20,42)         -0.1454         estimate D2E/DX2                !
 --------------------------------------------------------------------------------
 Trust Radius=3.00D-01 FncErr=1.00D-07 GrdErr=1.00D-06 EigMax=2.50D+02 EigMin=1.00D-04
 Number of steps in this run=    245 maximum allowed number of steps=    252.
 GradGradGradGradGradGradGradGradGradGradGradGradGradGradGradGradGradGrad

                          Input orientation:                          
 ---------------------------------------------------------------------
 Center     Atomic      Atomic             Coordinates (Angstroms)
 Number     Number       Type             X           Y           Z
 ---------------------------------------------------------------------
      1          6           0        0.743000   -1.055000    3.802600
      2          7           0       -0.220800   -1.501500    2.801900
      3          6           0       -0.264300   -2.951100    2.701800
      4          6           0        0.790800   -3.454300    1.698300
      5          6           0        0.506900   -3.179600    0.199100
      6          7           0        0.551000   -1.752300   -0.198900
      7          6           0        1.878900   -1.362900   -0.458800
      8          6           0        2.526100   -1.580100   -1.693100
      9          6           0        1.724100   -2.053900   -2.887300
     10          6           0        0.598200   -1.079700   -3.239500
     11          6           0       -0.626800   -1.057800   -2.328200
     12          6           0       -0.593800   -1.376900   -0.941800
     13          6           0       -1.809300   -1.339500   -0.238100
     14          6           0       -3.009200   -0.974800   -0.839800
     15          6           0       -3.024900   -0.636100   -2.184300
     16          6           0       -1.843400   -0.677100   -2.915000
     17          6           0        3.886600   -1.271600   -1.828300
     18          6           0        4.612700   -0.753700   -0.759600
     19          6           0        3.981000   -0.530800    0.458400
     20          6           0        2.630000   -0.839200    0.599500
     21          1           0        0.442900   -1.377200    4.801500
     22          1           0        0.793700    0.034900    3.812500
     23          1           0        1.748200   -1.433600    3.611600
     24          1           0        0.048600   -1.182900    1.867800
     25          1           0       -0.148100   -3.427200    3.678300
     26          1           0       -1.253400   -3.240900    2.342700
     27          1           0        1.796600   -3.138100    1.973200
     28          1           0        0.819900   -4.538400    1.809000
     29          1           0        1.211700   -3.759900   -0.401400
     30          1           0       -0.463200   -3.623700   -0.038500
     31          1           0        2.386500   -2.153200   -3.748400
     32          1           0        1.342400   -3.060000   -2.708400
     33          1           0        0.996100   -0.064800   -3.292700
     34          1           0        0.267000   -1.307800   -4.254000
     35          1           0       -1.829700   -1.586700    0.810400
     36          1           0       -3.919200   -0.950000   -0.258200
     37          1           0       -3.950100   -0.344300   -2.660800
     38          1           0       -1.878200   -0.413200   -3.962400
     39          1           0        4.385000   -1.420900   -2.775400
     40          1           0        5.660500   -0.517200   -0.879300
     41          1           0        4.533800   -0.125100    1.293000
     42          1           0        2.152400   -0.669200    1.548400
 ---------------------------------------------------------------------
                    Distance matrix (angstroms):
                    1          2          3          4          5
     1  C    0.000000
     2  N    1.459340   0.000000
     3  C    2.412801   1.453703   0.000000
     4  C    3.191709   2.460629   1.540603   0.000000
     5  C    4.189854   3.181216   2.628777   1.550374   0.000000
     6  N    4.066337   3.108597   3.242822   2.560015   1.482408
     7  C    4.420928   3.880736   4.135829   3.195465   2.369729
     8  C    5.801542   5.268459   5.383411   4.245643   3.196246
     9  C    6.834846   6.037779   5.999728   4.884659   3.503518
    10  C    7.043632   6.111235   6.288489   5.482489   4.030122
    11  C    6.281964   5.165233   5.386733   4.895458   3.489206
    12  C    4.939634   3.764299   3.982775   3.633571   2.400608
    13  C    4.787738   3.433828   3.691516   3.870729   2.990300
    14  C    5.969700   4.616770   4.897261   5.199026   4.278249
    15  C    7.086291   5.785679   6.070759   6.129959   4.962217
    16  C    7.208219   5.999618   6.262034   5.994530   4.635087
    17  C    6.452610   6.193734   6.369654   5.175429   4.378720
    18  C    5.989911   6.050307   6.371419   5.285966   4.864328
    19  C    4.684347   4.908093   5.377106   4.501287   4.376385
    20  C    3.723867   3.662822   4.154126   3.380646   3.185176
    21  H    1.091638   2.110533   2.717726   3.750364   4.943160
    22  H    1.091124   2.100249   3.356965   4.079751   4.844783
    23  H    1.090984   2.130067   2.679683   2.942883   4.029206
    24  H    2.059612   1.023047   1.979897   2.395589   2.642236
    25  H    2.537093   2.116999   1.092578   2.191499   3.548967
    26  H    3.300770   2.074281   1.091447   2.153960   2.774425
    27  H    2.965819   2.726739   2.193886   1.089581   2.193736
    28  H    4.014278   3.360308   2.119458   1.090126   2.129809
    29  H    5.020934   4.172956   3.530238   2.163166   1.092745
    30  H    4.775687   3.553922   2.828639   2.148880   1.093057
    31  H    7.805430   7.080195   7.019150   5.822857   4.491008
    32  H    6.839037   5.935985   5.644786   4.458558   3.027527
    33  H    7.168531   6.378801   6.771511   6.036633   4.704675
    34  H    8.074608   7.075394   7.166999   6.349150   4.836454
    35  H    3.981802   2.561619   2.808818   3.338161   2.893219
    36  H    6.183626   4.831824   5.111193   5.681858   4.977007
    37  H    8.019091   6.714751   7.009851   7.151922   6.006896
    38  H    8.220573   7.048910   7.311441   6.958116   5.537125
    39  H    7.527824   7.233683   7.345558   6.088266   5.194260
    40  H    6.811110   7.007836   7.338351   6.243761   5.900077
    41  H    4.640363   5.174696   5.743932   5.025723   5.171316
    42  H    2.686386   2.809994   3.518215   3.103741   3.290956
                    6          7          8          9         10
     6  N    0.000000
     7  C    1.408012   0.000000
     8  C    2.482601   1.410511   0.000000
     9  C    2.948664   2.529636   1.514531   0.000000
    10  C    3.114461   3.074522   2.521617   1.529955   0.000000
    11  C    2.530506   3.141063   3.258363   2.613721   1.526949
    12  C    1.415413   2.519470   3.215512   3.100961   2.605497
    13  C    2.396447   3.694871   4.579367   4.473650   3.856417
    14  C    3.700038   4.918262   5.633299   5.268856   4.333924
    15  C    4.239667   5.249080   5.652081   5.005733   3.799616
    16  C    3.777090   4.512068   4.626119   3.824056   2.495756
    17  C    3.743293   2.432021   1.401575   2.531774   3.583558
    18  C    4.220070   2.816961   2.430691   3.815971   4.729946
    19  C    3.699866   2.439769   2.801199   4.313599   5.041735
    20  C    2.406956   1.399433   2.411585   3.801832   4.350169
    21  H    5.015614   5.452803   6.823542   7.824132   8.048000
    22  H    4.398217   4.623365   5.993419   7.079269   7.142217
    23  H    4.006840   4.073111   5.363435   6.528480   6.955955
    24  H    2.201788   2.965715   4.356120   5.116338   5.137823
    25  H    4.280971   5.048332   6.278142   6.964064   7.343274
    26  H    3.454203   4.602889   5.773262   6.134116   6.265793
    27  H    2.861814   3.012098   4.049851   4.980483   5.731092
    28  H    3.444753   4.043291   4.891560   5.389393   6.123652
    29  H    2.123202   2.488787   2.854411   3.058217   3.951540
    30  H    2.134588   3.282271   3.981195   3.919721   4.224323
    31  H    4.016059   3.421067   2.138268   1.090930   2.146951
    32  H    2.938364   2.868568   2.149903   1.090842   2.181167
    33  H    3.552094   3.239659   2.682490   2.156583   1.091410
    34  H    4.089263   4.123688   3.425768   2.132528   1.091299
    35  H    2.591108   3.926152   5.023997   5.149831   4.749046
    36  H    4.542014   5.816244   6.633088   6.322784   5.414044
    37  H    5.320086   6.313762   6.663694   5.930479   4.643570
    38  H    4.675268   5.224265   5.090112   4.101744   2.664463
    39  H    4.631170   3.413288   2.156902   2.737444   3.830360
    40  H    5.300510   3.897759   3.408297   4.678542   5.613718
    41  H    4.553706   3.413128   3.881324   5.393477   6.078138
    42  H    2.605887   2.141232   3.387730   4.666505   5.050548
                   11         12         13         14         15
    11  C    0.000000
    12  C    1.423032   0.000000
    13  C    2.417887   1.405003   0.000000
    14  C    2.810348   2.450764   1.390974   0.000000
    15  C    2.439144   2.828929   2.400031   1.386595   0.000000
    16  C    1.403347   2.438183   2.757849   2.398785   1.389801
    17  C    4.546030   4.568474   5.914104   6.972609   6.949779
    18  C    5.477713   5.246829   6.469715   7.625528   7.770234
    19  C    5.410609   4.858522   5.887842   7.123577   7.488497
    20  C    4.384742   3.613532   4.545246   5.821559   6.306242
    21  H    7.216571   5.836115   5.520090   6.625948   7.834301
    22  H    6.396875   5.149923   5.007189   6.093065   7.140977
    23  H    6.408048   5.120706   5.242600   6.531333   7.550559
    24  H    4.251850   2.888627   2.812673   4.089565   5.115164
    25  H    6.474662   5.074219   4.738804   5.883314   7.101852
    26  H    5.193829   3.833733   3.253441   4.283264   5.515154
    27  H    5.357477   4.160897   4.596447   5.973989   6.840444
    28  H    5.596780   4.422729   4.619120   5.863224   6.779150
    29  H    3.793941   3.038182   3.874460   5.075921   5.557485
    30  H    3.442867   2.425102   2.658833   3.760435   4.482468
    31  H    3.506686   4.166753   5.530737   6.241968   5.833631
    32  H    2.833921   3.114895   4.358407   5.174567   5.022278
    33  H    2.133100   3.126679   4.338860   4.784062   4.209914
    34  H    2.137775   3.422926   4.521004   4.743536   3.946067
    35  H    3.402575   2.154453   1.077440   2.118679   3.361603
    36  H    3.890555   3.421672   2.145645   1.080266   2.146664
    37  H    3.415264   3.909728   3.382739   2.144496   1.080830
    38  H    2.156878   3.420881   3.838384   3.368262   2.127497
    39  H    5.044796   5.305891   6.694316   7.656353   7.474753
    40  H    6.474697   6.313419   7.542230   8.681858   8.783697
    41  H    6.372975   5.731807   6.637315   7.884648   8.335867
    42  H    4.785707   3.774063   4.397266   5.695525   6.382678
                   16         17         18         19         20
    16  C    0.000000
    17  C    5.862358   0.000000
    18  C    6.806823   1.391963   0.000000
    19  C    6.732375   2.405555   1.390055   0.000000
    20  C    5.691159   2.767711   2.405320   1.392918   0.000000
    21  H    8.078470   7.471577   6.978669   5.665427   4.767563
    22  H    7.260888   6.564419   6.009222   4.661425   3.802554
    23  H    7.487883   5.847351   5.270201   3.967759   3.194312
    24  H    5.168237   5.329096   5.283791   4.227932   2.896608
    25  H    7.342254   7.158775   7.036176   5.983841   4.888210
    26  H    5.879165   6.906155   7.086717   6.188228   4.887505
    27  H    6.572718   4.722640   4.591729   3.723471   2.804737
    28  H    6.657250   5.771186   5.941969   5.279918   4.292253
    29  H    5.015524   3.922088   4.553279   4.339973   3.397626
    30  H    4.343001   5.258947   5.875512   5.437265   4.210507
    31  H    4.556916   2.591197   3.980891   4.782445   4.548640
    32  H    3.983744   3.232012   4.451034   4.836082   4.187131
    33  H    2.929220   3.457719   4.468890   4.816382   4.291683
    34  H    2.577691   4.357389   5.603835   6.050144   5.418470
    35  H    3.834862   6.303817   6.683061   5.916339   4.526827
    36  H    3.382603   7.968636   8.548874   7.943702   6.606054
    37  H    2.147920   7.935163   8.780872   8.524467   7.360176
    38  H    1.080695   6.206783   7.246078   7.340812   6.427774
    39  H    6.274209   1.080598   2.135522   3.378307   3.848162
    40  H    7.776770   2.148591   1.080808   2.147172   3.387398
    41  H    7.660329   3.387601   2.148146   1.080156   2.148333
    42  H    5.990694   3.843493   3.374475   2.133315   1.075831
                   21         22         23         24         25
    21  H    0.000000
    22  H    1.759320   0.000000
    23  H    1.767159   1.762930   0.000000
    24  H    2.966449   2.412482   2.447923   0.000000
    25  H    2.411091   3.590422   2.752243   2.890239   0.000000
    26  H    3.520868   4.133013   3.726398   2.481149   1.743624
    27  H    3.596186   3.802205   2.364745   2.624771   2.602461
    28  H    4.369253   4.992972   3.708219   3.443507   2.380351
    29  H    5.773948   5.686140   4.669440   3.625327   4.313200
    30  H    5.412336   5.458512   4.796880   3.139016   3.735305
    31  H    8.802304   8.030691   7.422591   6.160273   7.950041
    32  H    7.748517   7.238896   6.538521   5.112634   6.568589
    33  H    8.218546   7.108781   7.078745   5.364575   7.823667
    34  H    9.057474   8.194430   8.004839   6.126968   8.221043
    35  H    4.597552   4.304000   4.546595   2.192980   3.800009
    36  H    6.694100   6.304923   6.879582   4.507500   5.987800
    37  H    8.720737   8.034366   8.544015   6.099268   8.008974
    38  H    9.117168   8.233402   8.459165   6.188395   8.393911
    39  H    8.541164   7.643116   6.909895   6.357697   8.137842
    40  H    7.761085   6.782591   6.026115   6.283561   7.935972
    41  H    5.532883   4.512408   3.853264   4.643959   6.205941
    42  H    3.742501   2.732759   2.237069   2.189036   4.175564
                   26         27         28         29         30
    26  H    0.000000
    27  H    3.074020   0.000000
    28  H    2.503381   1.715151   0.000000
    29  H    3.725072   2.523384   2.376013   0.000000
    30  H    2.537925   3.064219   2.428225   1.719167   0.000000
    31  H    7.178681   5.835642   6.247248   3.894104   4.903725
    32  H    5.681946   4.704230   4.781796   2.414372   3.272051
    33  H    6.848766   6.149445   6.787598   4.696793   5.038367
    34  H    7.040237   6.668410   6.892202   4.663451   4.864877
    35  H    2.327325   4.112055   4.090246   3.929551   2.595635
    36  H    4.372573   6.514392   6.293568   5.851682   4.375029
    37  H    6.379459   7.893278   7.766755   6.589036   5.457966
    38  H    6.938339   7.494036   7.589867   5.781747   5.263699
    39  H    7.829362   5.674310   6.591318   4.601807   5.987319
    40  H    8.099496   5.471343   6.843129   5.525877   6.917875
    41  H    6.655957   4.127118   5.791073   5.207601   6.243645
    42  H    4.340971   2.530319   4.100509   3.773468   4.253079
                   31         32         33         34         35
    31  H    0.000000
    32  H    1.730327   0.000000
    33  H    2.549959   3.071246   0.000000
    34  H    2.337223   2.572075   1.732263   0.000000
    35  H    6.235377   4.961329   5.209295   5.488359   0.000000
    36  H    7.306917   6.175760   5.843966   5.798164   2.431728
    37  H    6.678884   5.948769   4.994228   4.609832   4.253103
    38  H    4.610972   4.353198   2.971781   2.342482   4.915188
    39  H    2.340298   3.456668   3.686631   4.376868   7.176904
    40  H    4.650517   5.334550   5.271223   6.411200   7.752549
    41  H    5.842927   5.899989   5.792029   7.097434   6.547008
    42  H    5.505738   4.948977   5.013839   6.134361   4.152538
                   36         37         38         39         40
    36  H    0.000000
    37  H    2.477966   0.000000
    38  H    4.263207   2.447791   0.000000
    39  H    8.690097   8.405123   6.453844   0.000000
    40  H    9.609565   9.775851   8.145448   2.457391   0.000000
    41  H    8.633649   9.362539   8.295539   4.272367   2.478323
    42  H    6.340897   7.420474   6.832290   4.923901   4.268911
                   41         42
    41  H    0.000000
    42  H    2.456082   0.000000
 Stoichiometry    C18H22N2
 Framework group  C1[X(C18H22N2)]
 Deg. of freedom   120
 Full point group                 C1      NOp   1
 Largest Abelian subgroup         C1      NOp   1
 Largest concise Abelian subgroup C1      NOp   1
                         Standard orientation:                         
 ---------------------------------------------------------------------
 Center     Atomic      Atomic             Coordinates (Angstroms)
 Number     Number       Type             X           Y           Z
 ---------------------------------------------------------------------
      1          6           0        2.450758    3.139564   -1.119307
      2          7           0        1.121105    2.980364   -0.539346
      3          6           0        1.139037    3.136979    0.905784
      4          6           0        1.439557    1.790033    1.590535
      5          6           0        0.309902    0.728725    1.556412
      6          7           0        0.001920    0.179846    0.214245
      7          6           0        0.889841   -0.867998   -0.095787
      8          6           0        0.704089   -2.198344    0.334580
      9          6           0       -0.606564   -2.602758    0.976796
     10          6           0       -1.795892   -2.357763    0.046077
     11          6           0       -2.250368   -0.913675   -0.153002
     12          6           0       -1.385726    0.212944   -0.062766
     13          6           0       -1.955545    1.484476   -0.243168
     14          6           0       -3.303936    1.663721   -0.533893
     15          6           0       -4.131559    0.557269   -0.649858
     16          6           0       -3.604712   -0.715056   -0.462333
     17          6           0        1.697690   -3.154801    0.084864
     18          6           0        2.870125   -2.811466   -0.582277
     19          6           0        3.058369   -1.504043   -1.015245
     20          6           0        2.075881   -0.548536   -0.766359
     21          1           0        2.819767    4.156185   -0.971022
     22          1           0        2.413430    2.959320   -2.194792
     23          1           0        3.178169    2.448607   -0.690708
     24          1           0        0.765647    2.033824   -0.695347
     25          1           0        1.842347    3.912004    1.219500
     26          1           0        0.153361    3.478989    1.226293
     27          1           0        2.387258    1.367522    1.258070
     28          1           0        1.611524    2.017923    2.642613
     29          1           0        0.570438   -0.080206    2.243321
     30          1           0       -0.577278    1.178272    2.009834
     31          1           0       -0.570182   -3.663135    1.230576
     32          1           0       -0.731741   -2.089179    1.931000
     33          1           0       -1.584581   -2.782479   -0.936848
     34          1           0       -2.640533   -2.933644    0.428015
     35          1           0       -1.337747    2.364181   -0.170219
     36          1           0       -3.698159    2.659581   -0.674697
     37          1           0       -5.179436    0.683986   -0.882435
     38          1           0       -4.267649   -1.563672   -0.553257
     39          1           0        1.555265   -4.179178    0.398009
     40          1           0        3.626301   -3.560286   -0.770987
     41          1           0        3.962401   -1.227672   -1.537819
     42          1           0        2.234533    0.461966   -1.099717
 ---------------------------------------------------------------------
 Rotational constants (GHZ):           0.3969066           0.3522320           0.2147570
 Standard basis: 6-31G(d,p) (6D, 7F)
 There are   410 symmetry adapted cartesian basis functions of A   symmetry.
 There are   410 symmetry adapted basis functions of A   symmetry.
   410 basis functions,   714 primitive gaussians,   410 cartesian basis functions
    72 alpha electrons       72 beta electrons
       nuclear repulsion energy      1571.9894782262 Hartrees.
 NAtoms=   42 NActive=   42 NUniq=   42 SFac= 1.00D+00 NAtFMM=   60 NAOKFM=F Big=F
 Integral buffers will be    131072 words long.
 Raffenetti 2 integral format.
 Two-electron integral symmetry is turned on.
 Nuclear repulsion after empirical dispersion term =     1571.8930947563 Hartrees.
 One-electron integrals computed using PRISM.
 NBasis=   410 RedAO= T EigKep=  3.53D-04  NBF=   410
 NBsUse=   410 1.00D-06 EigRej= -1.00D+00 NBFU=   410
 ExpMin= 1.61D-01 ExpMax= 4.17D+03 ExpMxC= 6.27D+02 IAcc=3 IRadAn=         5 AccDes= 0.00D+00
 Harris functional with IExCor=  402 and IRadAn=       5 diagonalized for initial guess.
 HarFok:  IExCor=  402 AccDes= 0.00D+00 IRadAn=         5 IDoV= 1 UseB2=F ITyADJ=14
 ICtDFT=  3500011 ScaDFX=  1.000000  1.000000  1.000000  1.000000
 FoFCou: FMM=F IPFlag=           0 FMFlag=      100000 FMFlg1=           0
         NFxFlg=           0 DoJE=T BraDBF=F KetDBF=T FulRan=T
         wScrn=  0.000000 ICntrl=       500 IOpCl=  0 I1Cent=   200000004 NGrid=           0
         NMat0=    1 NMatS0=      1 NMatT0=    0 NMatD0=    1 NMtDS0=    0 NMtDT0=    0
 Petite list used in FoFCou.
 Requested convergence on RMS density matrix=1.00D-08 within 128 cycles.
 Requested convergence on MAX density matrix=1.00D-06.
 Requested convergence on             energy=1.00D-06.
 No special actions if energy rises.
 Integral accuracy reduced to 1.0D-05 until final iterations.
 Initial convergence to 1.0D-05 achieved.  Increase integral accuracy.
 SCF Done:  E(RB3LYP) =  -808.765840638     A.U. after   14 cycles
            NFock= 14  Conv=0.59D-08     -V/T= 2.0095

 **********************************************************************

            Population analysis using the SCF Density.

 **********************************************************************

 Orbital symmetries:
       Occupied  (A) (A) (A) (A) (A) (A) (A) (A) (A) (A) (A) (A)
                 (A) (A) (A) (A) (A) (A) (A) (A) (A) (A) (A) (A)
                 (A) (A) (A) (A) (A) (A) (A) (A) (A) (A) (A) (A)
                 (A) (A) (A) (A) (A) (A) (A) (A) (A) (A) (A) (A)
                 (A) (A) (A) (A) (A) (A) (A) (A) (A) (A) (A) (A)
                 (A) (A) (A) (A) (A) (A) (A) (A) (A) (A) (A) (A)
       Virtual   (A) (A) (A) (A) (A) (A) (A) (A) (A) (A) (A) (A)
                 (A) (A) (A) (A) (A) (A) (A) (A) (A) (A) (A) (A)
                 (A) (A) (A) (A) (A) (A) (A) (A) (A) (A) (A) (A)
                 (A) (A) (A) (A) (A) (A) (A) (A) (A) (A) (A) (A)
                 (A) (A) (A) (A) (A) (A) (A) (A) (A) (A) (A) (A)
                 (A) (A) (A) (A) (A) (A) (A) (A) (A) (A) (A) (A)
                 (A) (A) (A) (A) (A) (A) (A) (A) (A) (A) (A) (A)
                 (A) (A) (A) (A) (A) (A) (A) (A) (A) (A) (A) (A)
                 (A) (A) (A) (A) (A) (A) (A) (A) (A) (A) (A) (A)
                 (A) (A) (A) (A) (A) (A) (A) (A) (A) (A) (A) (A)
                 (A) (A) (A) (A) (A) (A) (A) (A) (A) (A) (A) (A)
                 (A) (A) (A) (A) (A) (A) (A) (A) (A) (A) (A) (A)
                 (A) (A) (A) (A) (A) (A) (A) (A) (A) (A) (A) (A)
                 (A) (A) (A) (A) (A) (A) (A) (A) (A) (A) (A) (A)
                 (A) (A) (A) (A) (A) (A) (A) (A) (A) (A) (A) (A)
                 (A) (A) (A) (A) (A) (A) (A) (A) (A) (A) (A) (A)
                 (A) (A) (A) (A) (A) (A) (A) (A) (A) (A) (A) (A)
                 (A) (A) (A) (A) (A) (A) (A) (A) (A) (A) (A) (A)
                 (A) (A) (A) (A) (A) (A) (A) (A) (A) (A) (A) (A)
                 (A) (A) (A) (A) (A) (A) (A) (A) (A) (A) (A) (A)
                 (A) (A) (A) (A) (A) (A) (A) (A) (A) (A) (A) (A)
                 (A) (A) (A) (A) (A) (A) (A) (A) (A) (A) (A) (A)
                 (A) (A) (A) (A) (A) (A) (A) (A) (A) (A) (A) (A)
                 (A) (A) (A) (A) (A) (A) (A) (A) (A) (A) (A) (A)
                 (A) (A) (A) (A) (A) (A) (A) (A) (A) (A) (A) (A)
                 (A) (A) (A) (A) (A) (A) (A) (A) (A) (A) (A) (A)
                 (A) (A) (A) (A) (A) (A) (A) (A) (A) (A) (A) (A)
                 (A) (A) (A) (A) (A) (A) (A) (A) (A) (A) (A) (A)
                 (A) (A)
 The electronic state is 1-A.
 Alpha  occ. eigenvalues --  -14.34361 -14.29779 -10.22056 -10.21961 -10.21518
 Alpha  occ. eigenvalues --  -10.19645 -10.19605 -10.19230 -10.19133 -10.19069
 Alpha  occ. eigenvalues --  -10.18924 -10.18873 -10.18820 -10.18754 -10.18586
 Alpha  occ. eigenvalues --  -10.18014 -10.17852 -10.17669 -10.17620 -10.17529
 Alpha  occ. eigenvalues --   -0.95204  -0.89065  -0.85352  -0.84055  -0.79743
 Alpha  occ. eigenvalues --   -0.76354  -0.75312  -0.75170  -0.72267  -0.70156
 Alpha  occ. eigenvalues --   -0.67629  -0.64884  -0.63656  -0.60814  -0.59624
 Alpha  occ. eigenvalues --   -0.58953  -0.57644  -0.56206  -0.51605  -0.50239
 Alpha  occ. eigenvalues --   -0.48816  -0.47498  -0.47298  -0.46862  -0.45535
 Alpha  occ. eigenvalues --   -0.43895  -0.43526  -0.43125  -0.42933  -0.41997
 Alpha  occ. eigenvalues --   -0.41391  -0.41157  -0.39614  -0.38999  -0.37900
 Alpha  occ. eigenvalues --   -0.37731  -0.37257  -0.36527  -0.35394  -0.35095
 Alpha  occ. eigenvalues --   -0.34722  -0.34280  -0.33931  -0.33170  -0.32594
 Alpha  occ. eigenvalues --   -0.32343  -0.26254  -0.24859  -0.24098  -0.23548
 Alpha  occ. eigenvalues --   -0.21172  -0.19673
 Alpha virt. eigenvalues --   -0.00593  -0.00176   0.00511   0.01018   0.08716
 Alpha virt. eigenvalues --    0.09774   0.10040   0.10458   0.12036   0.12719
 Alpha virt. eigenvalues --    0.12981   0.13813   0.14265   0.14757   0.15299
 Alpha virt. eigenvalues --    0.15462   0.16621   0.16942   0.17370   0.17690
 Alpha virt. eigenvalues --    0.18400   0.18833   0.19111   0.19329   0.19915
 Alpha virt. eigenvalues --    0.20391   0.21937   0.22503   0.23221   0.23466
 Alpha virt. eigenvalues --    0.23908   0.25565   0.26374   0.26762   0.28273
 Alpha virt. eigenvalues --    0.28568   0.29370   0.30090   0.32131   0.33420
 Alpha virt. eigenvalues --    0.33583   0.34773   0.36078   0.36455   0.38155
 Alpha virt. eigenvalues --    0.41147   0.46657   0.49180   0.49674   0.50233
 Alpha virt. eigenvalues --    0.50802   0.52434   0.53428   0.53666   0.54135
 Alpha virt. eigenvalues --    0.54674   0.55101   0.55771   0.56297   0.57339
 Alpha virt. eigenvalues --    0.57412   0.57982   0.58651   0.59331   0.59825
 Alpha virt. eigenvalues --    0.60619   0.61136   0.61401   0.61707   0.61903
 Alpha virt. eigenvalues --    0.62353   0.62707   0.63028   0.64710   0.65119
 Alpha virt. eigenvalues --    0.65993   0.66560   0.67390   0.67881   0.69437
 Alpha virt. eigenvalues --    0.69789   0.70508   0.73039   0.73927   0.75007
 Alpha virt. eigenvalues --    0.75588   0.77133   0.77967   0.78988   0.80291
 Alpha virt. eigenvalues --    0.80836   0.81831   0.82090   0.82360   0.82572
 Alpha virt. eigenvalues --    0.83453   0.84506   0.84871   0.84910   0.86005
 Alpha virt. eigenvalues --    0.87054   0.87242   0.88020   0.88791   0.89412
 Alpha virt. eigenvalues --    0.90432   0.91050   0.92193   0.92432   0.93264
 Alpha virt. eigenvalues --    0.93774   0.94996   0.95982   0.96236   0.97688
 Alpha virt. eigenvalues --    0.98361   0.99520   1.01065   1.02576   1.03101
 Alpha virt. eigenvalues --    1.04004   1.04527   1.06323   1.08796   1.09502
 Alpha virt. eigenvalues --    1.11355   1.12070   1.13133   1.13670   1.16021
 Alpha virt. eigenvalues --    1.17666   1.18484   1.19517   1.20583   1.22056
 Alpha virt. eigenvalues --    1.23121   1.23774   1.26675   1.27407   1.28418
 Alpha virt. eigenvalues --    1.30270   1.33748   1.34570   1.35181   1.35971
 Alpha virt. eigenvalues --    1.37268   1.38238   1.40338   1.41231   1.41692
 Alpha virt. eigenvalues --    1.42677   1.43266   1.43915   1.45083   1.46625
 Alpha virt. eigenvalues --    1.48561   1.50127   1.53240   1.55773   1.59447
 Alpha virt. eigenvalues --    1.61451   1.62044   1.66976   1.67417   1.69556
 Alpha virt. eigenvalues --    1.70306   1.71847   1.75366   1.76111   1.77731
 Alpha virt. eigenvalues --    1.78359   1.78746   1.79480   1.81427   1.82575
 Alpha virt. eigenvalues --    1.83635   1.84884   1.84983   1.86521   1.88046
 Alpha virt. eigenvalues --    1.88896   1.89196   1.90331   1.91232   1.91570
 Alpha virt. eigenvalues --    1.92950   1.93221   1.94110   1.95164   1.95749
 Alpha virt. eigenvalues --    1.97144   1.97847   1.98005   1.99390   2.00492
 Alpha virt. eigenvalues --    2.00720   2.01811   2.01934   2.02456   2.02966
 Alpha virt. eigenvalues --    2.03876   2.05893   2.06675   2.07522   2.08468
 Alpha virt. eigenvalues --    2.11083   2.12908   2.13838   2.14521   2.16115
 Alpha virt. eigenvalues --    2.16459   2.17359   2.18118   2.19345   2.20937
 Alpha virt. eigenvalues --    2.22182   2.23219   2.24808   2.25947   2.26717
 Alpha virt. eigenvalues --    2.27574   2.28183   2.29353   2.31046   2.32249
 Alpha virt. eigenvalues --    2.32732   2.33065   2.34350   2.35414   2.37389
 Alpha virt. eigenvalues --    2.38988   2.39536   2.40242   2.40762   2.41136
 Alpha virt. eigenvalues --    2.42803   2.43414   2.44304   2.45011   2.45547
 Alpha virt. eigenvalues --    2.46195   2.47742   2.48316   2.48748   2.50325
 Alpha virt. eigenvalues --    2.51981   2.52592   2.54109   2.54488   2.55759
 Alpha virt. eigenvalues --    2.56286   2.58139   2.58600   2.59653   2.60865
 Alpha virt. eigenvalues --    2.61488   2.62542   2.63094   2.63956   2.65246
 Alpha virt. eigenvalues --    2.66213   2.67251   2.69070   2.70778   2.71275
 Alpha virt. eigenvalues --    2.72470   2.73450   2.73705   2.74886   2.76635
 Alpha virt. eigenvalues --    2.78201   2.78974   2.79864   2.81138   2.82376
 Alpha virt. eigenvalues --    2.83896   2.84621   2.87835   2.87921   2.89832
 Alpha virt. eigenvalues --    2.90920   2.91709   2.92117   2.95365   2.97307
 Alpha virt. eigenvalues --    2.98612   3.00760   3.01450   3.05830   3.07428
 Alpha virt. eigenvalues --    3.08095   3.14637   3.21517   3.22556   3.23438
 Alpha virt. eigenvalues --    3.25846   3.26769   3.29013   3.30404   3.31151
 Alpha virt. eigenvalues --    3.34654   3.35156   3.36810   3.37704   3.38580
 Alpha virt. eigenvalues --    3.40053   3.41774   3.44650   3.45070   3.49172
 Alpha virt. eigenvalues --    3.50604   3.51412   3.52370   3.55923   3.58267
 Alpha virt. eigenvalues --    3.62708   3.86324   3.87752   4.10505   4.14134
 Alpha virt. eigenvalues --    4.14474   4.17217   4.17503   4.21082   4.24162
 Alpha virt. eigenvalues --    4.32150   4.37082   4.43013   4.47033   4.49618
 Alpha virt. eigenvalues --    4.51179   4.52012   4.57725   4.64689   4.67171
 Alpha virt. eigenvalues --    4.74375   4.85628   4.88961
          Condensed to atoms (all electrons):
               1          2          3          4          5          6
     1  C    4.799039   0.323733  -0.056546  -0.004117  -0.000018   0.000324
     2  N    0.323733   6.803038   0.334644  -0.062354  -0.007099  -0.011858
     3  C   -0.056546   0.334644   4.804145   0.364294  -0.038049   0.001618
     4  C   -0.004117  -0.062354   0.364294   5.058754   0.374017  -0.058645
     5  C   -0.000018  -0.007099  -0.038049   0.374017   4.874193   0.279922
     6  N    0.000324  -0.011858   0.001618  -0.058645   0.279922   7.254417
     7  C    0.000115  -0.001507  -0.000255  -0.002365  -0.046146   0.264914
     8  C    0.000002  -0.000042  -0.000011  -0.000892  -0.006831  -0.076383
     9  C    0.000000   0.000001  -0.000001   0.000158  -0.001393  -0.005155
    10  C   -0.000000  -0.000000   0.000000  -0.000018   0.000240  -0.014387
    11  C    0.000000  -0.000026  -0.000001  -0.000261   0.001222  -0.071134
    12  C    0.000024  -0.000698  -0.000335   0.000928  -0.034596   0.248769
    13  C    0.000078  -0.004928  -0.000362   0.000184  -0.013532  -0.075470
    14  C   -0.000001   0.000022   0.000014   0.000016  -0.000544   0.005605
    15  C    0.000000  -0.000000  -0.000000  -0.000000   0.000053  -0.000008
    16  C    0.000000   0.000000  -0.000000   0.000007  -0.000002   0.007043
    17  C   -0.000000  -0.000000  -0.000000   0.000013   0.000092   0.007005
    18  C    0.000001   0.000000  -0.000000   0.000010   0.000050  -0.000070
    19  C   -0.000008   0.000107   0.000006  -0.000141  -0.000230   0.006457
    20  C   -0.003365   0.000020   0.000082   0.000835  -0.005261  -0.080051
    21  H    0.391624  -0.037840  -0.007715  -0.000690  -0.000021  -0.000016
    22  H    0.390248  -0.033535   0.005507  -0.000140  -0.000011   0.000015
    23  H    0.358376  -0.059668  -0.002426   0.006116   0.000512   0.000020
    24  H   -0.038620   0.342341  -0.052519  -0.010756  -0.002347   0.029481
    25  H   -0.008784  -0.035536   0.382685  -0.032361   0.003996  -0.000147
    26  H    0.006588  -0.053102   0.383326  -0.058700  -0.009268   0.000380
    27  H    0.001178  -0.005018  -0.038294   0.380407  -0.036111  -0.003253
    28  H    0.000081   0.006162  -0.030466   0.341603  -0.033815   0.004656
    29  H   -0.000001  -0.000227   0.004319  -0.046744   0.368935  -0.049549
    30  H    0.000010  -0.000101  -0.005984  -0.043701   0.376915  -0.035958
    31  H   -0.000000   0.000000   0.000000  -0.000001  -0.000016   0.000017
    32  H    0.000000  -0.000000   0.000000  -0.000019   0.002128   0.000965
    33  H    0.000000  -0.000000  -0.000000   0.000000  -0.000020   0.000384
    34  H    0.000000   0.000000  -0.000000  -0.000000   0.000036  -0.000022
    35  H   -0.000155   0.011433   0.000198  -0.000119   0.002826  -0.009243
    36  H   -0.000000  -0.000005   0.000002  -0.000000  -0.000001  -0.000139
    37  H   -0.000000   0.000000   0.000000   0.000000   0.000000   0.000005
    38  H    0.000000  -0.000000   0.000000  -0.000000  -0.000000  -0.000101
    39  H   -0.000000  -0.000000   0.000000  -0.000000  -0.000005  -0.000123
    40  H    0.000000   0.000000   0.000000   0.000000   0.000000   0.000005
    41  H    0.000003  -0.000002   0.000000   0.000002  -0.000000  -0.000138
    42  H    0.004425   0.002567  -0.000243  -0.001026  -0.000470  -0.007844
               7          8          9         10         11         12
     1  C    0.000115   0.000002   0.000000  -0.000000   0.000000   0.000024
     2  N   -0.001507  -0.000042   0.000001  -0.000000  -0.000026  -0.000698
     3  C   -0.000255  -0.000011  -0.000001   0.000000  -0.000001  -0.000335
     4  C   -0.002365  -0.000892   0.000158  -0.000018  -0.000261   0.000928
     5  C   -0.046146  -0.006831  -0.001393   0.000240   0.001222  -0.034596
     6  N    0.264914  -0.076383  -0.005155  -0.014387  -0.071134   0.248769
     7  C    4.755296   0.506599  -0.067031   0.000111  -0.002712  -0.013277
     8  C    0.506599   4.822085   0.360928  -0.040360  -0.006593  -0.005939
     9  C   -0.067031   0.360928   5.056388   0.338581  -0.031561  -0.001036
    10  C    0.000111  -0.040360   0.338581   5.050375   0.358995  -0.059178
    11  C   -0.002712  -0.006593  -0.031561   0.358995   4.818240   0.517580
    12  C   -0.013277  -0.005939  -0.001036  -0.059178   0.517580   4.733621
    13  C    0.004129  -0.000021  -0.000138   0.008057  -0.043164   0.494410
    14  C   -0.000129   0.000001   0.000012  -0.000094  -0.036795  -0.022577
    15  C    0.000032  -0.000001  -0.000184   0.007058  -0.025008  -0.043914
    16  C   -0.000470   0.000118   0.003292  -0.063517   0.498016  -0.002852
    17  C   -0.011398   0.519707  -0.058275  -0.002161  -0.000084  -0.000117
    18  C   -0.044643  -0.026777   0.007329  -0.000139   0.000007   0.000022
    19  C   -0.022831  -0.035943  -0.000068   0.000024  -0.000004  -0.000191
    20  C    0.516177  -0.059667   0.008719   0.000043  -0.000034   0.004290
    21  H   -0.000010  -0.000000   0.000000  -0.000000  -0.000000  -0.000002
    22  H    0.000025   0.000001  -0.000000   0.000000  -0.000000  -0.000003
    23  H    0.000541   0.000002  -0.000000   0.000000   0.000000   0.000027
    24  H   -0.002652   0.000182  -0.000005  -0.000003   0.000066  -0.002101
    25  H    0.000001  -0.000000   0.000000  -0.000000  -0.000000   0.000004
    26  H    0.000015  -0.000000   0.000000  -0.000000  -0.000004  -0.000041
    27  H    0.001969   0.000105  -0.000010   0.000000   0.000002   0.000223
    28  H    0.000088   0.000022   0.000001  -0.000000   0.000004  -0.000113
    29  H   -0.003145   0.007257  -0.001167  -0.000084   0.001170   0.001591
    30  H    0.003347   0.000522  -0.000148   0.000046   0.001332   0.001506
    31  H    0.005794  -0.031510   0.364595  -0.027500   0.003835   0.000175
    32  H   -0.008617  -0.027256   0.362928  -0.040260  -0.002513  -0.000003
    33  H   -0.000622  -0.002698  -0.040917   0.370739  -0.032609  -0.002062
    34  H    0.000258   0.004946  -0.033444   0.365670  -0.032535   0.003999
    35  H    0.000153   0.000004   0.000002  -0.000141   0.005102  -0.041053
    36  H    0.000001  -0.000000  -0.000000   0.000008   0.001001   0.003871
    37  H   -0.000000   0.000000   0.000002  -0.000176   0.003998   0.001065
    38  H   -0.000000  -0.000006   0.000200  -0.010637  -0.043655   0.004334
    39  H    0.004568  -0.036583  -0.011088   0.000324   0.000001  -0.000004
    40  H    0.001159   0.003758  -0.000180   0.000001   0.000000  -0.000000
    41  H    0.003811   0.000942   0.000009  -0.000000   0.000000   0.000001
    42  H   -0.040612   0.005716  -0.000177   0.000004   0.000017   0.000132
              13         14         15         16         17         18
     1  C    0.000078  -0.000001   0.000000   0.000000  -0.000000   0.000001
     2  N   -0.004928   0.000022  -0.000000   0.000000  -0.000000   0.000000
     3  C   -0.000362   0.000014  -0.000000  -0.000000  -0.000000  -0.000000
     4  C    0.000184   0.000016  -0.000000   0.000007   0.000013   0.000010
     5  C   -0.013532  -0.000544   0.000053  -0.000002   0.000092   0.000050
     6  N   -0.075470   0.005605  -0.000008   0.007043   0.007005  -0.000070
     7  C    0.004129  -0.000129   0.000032  -0.000470  -0.011398  -0.044643
     8  C   -0.000021   0.000001  -0.000001   0.000118   0.519707  -0.026777
     9  C   -0.000138   0.000012  -0.000184   0.003292  -0.058275   0.007329
    10  C    0.008057  -0.000094   0.007058  -0.063517  -0.002161  -0.000139
    11  C   -0.043164  -0.036795  -0.025008   0.498016  -0.000084   0.000007
    12  C    0.494410  -0.022577  -0.043914  -0.002852  -0.000117   0.000022
    13  C    4.968214   0.534920  -0.031907  -0.055809   0.000006  -0.000000
    14  C    0.534920   4.811456   0.542676  -0.031453  -0.000000   0.000000
    15  C   -0.031907   0.542676   4.832498   0.516432  -0.000000   0.000000
    16  C   -0.055809  -0.031453   0.516432   4.949986   0.000005  -0.000000
    17  C    0.000006  -0.000000  -0.000000   0.000005   4.937690   0.510872
    18  C   -0.000000   0.000000   0.000000  -0.000000   0.510872   4.833306
    19  C    0.000000   0.000000  -0.000000  -0.000000  -0.033223   0.542357
    20  C   -0.000243  -0.000002   0.000000  -0.000004  -0.053262  -0.028905
    21  H    0.000005   0.000000  -0.000000   0.000000   0.000000  -0.000000
    22  H    0.000013   0.000000  -0.000000   0.000000  -0.000000   0.000000
    23  H   -0.000034  -0.000000   0.000000  -0.000000   0.000000  -0.000003
    24  H    0.000598   0.000158  -0.000002  -0.000006  -0.000006  -0.000000
    25  H    0.000033  -0.000001   0.000000   0.000000   0.000000  -0.000000
    26  H    0.001784  -0.000028  -0.000002   0.000000  -0.000000  -0.000000
    27  H   -0.000072  -0.000000   0.000000  -0.000000  -0.000013  -0.000050
    28  H    0.000018   0.000001  -0.000000  -0.000000  -0.000003   0.000000
    29  H    0.000212   0.000023  -0.000004  -0.000026  -0.000679  -0.000030
    30  H    0.002741  -0.000018  -0.000038  -0.000104   0.000006  -0.000001
    31  H    0.000003  -0.000000   0.000002  -0.000158  -0.008161   0.000242
    32  H   -0.000089  -0.000012  -0.000010   0.000369   0.002645  -0.000298
    33  H   -0.000202   0.000045  -0.000239  -0.002626   0.001815  -0.000094
    34  H   -0.000186   0.000018   0.000351  -0.007487  -0.000059   0.000004
    35  H    0.351204  -0.035625   0.005127   0.000645   0.000000   0.000000
    36  H   -0.035339   0.364910  -0.042166   0.004621   0.000000  -0.000000
    37  H    0.004868  -0.042076   0.364388  -0.038223  -0.000000  -0.000000
    38  H    0.000460   0.005333  -0.044126   0.366201  -0.000000  -0.000000
    39  H   -0.000000   0.000000  -0.000000  -0.000000   0.362500  -0.045154
    40  H    0.000000   0.000000  -0.000000   0.000000  -0.037120   0.364929
    41  H   -0.000000   0.000000  -0.000000   0.000000   0.004543  -0.041607
    42  H   -0.000014   0.000000  -0.000000   0.000000   0.000629   0.005331
              19         20         21         22         23         24
     1  C   -0.000008  -0.003365   0.391624   0.390248   0.358376  -0.038620
     2  N    0.000107   0.000020  -0.037840  -0.033535  -0.059668   0.342341
     3  C    0.000006   0.000082  -0.007715   0.005507  -0.002426  -0.052519
     4  C   -0.000141   0.000835  -0.000690  -0.000140   0.006116  -0.010756
     5  C   -0.000230  -0.005261  -0.000021  -0.000011   0.000512  -0.002347
     6  N    0.006457  -0.080051  -0.000016   0.000015   0.000020   0.029481
     7  C   -0.022831   0.516177  -0.000010   0.000025   0.000541  -0.002652
     8  C   -0.035943  -0.059667  -0.000000   0.000001   0.000002   0.000182
     9  C   -0.000068   0.008719   0.000000  -0.000000  -0.000000  -0.000005
    10  C    0.000024   0.000043  -0.000000   0.000000   0.000000  -0.000003
    11  C   -0.000004  -0.000034  -0.000000  -0.000000   0.000000   0.000066
    12  C   -0.000191   0.004290  -0.000002  -0.000003   0.000027  -0.002101
    13  C    0.000000  -0.000243   0.000005   0.000013  -0.000034   0.000598
    14  C    0.000000  -0.000002   0.000000   0.000000  -0.000000   0.000158
    15  C   -0.000000   0.000000  -0.000000  -0.000000   0.000000  -0.000002
    16  C   -0.000000  -0.000004   0.000000   0.000000  -0.000000  -0.000006
    17  C   -0.033223  -0.053262   0.000000  -0.000000   0.000000  -0.000006
    18  C    0.542357  -0.028905  -0.000000   0.000000  -0.000003  -0.000000
    19  C    4.846077   0.510064   0.000001  -0.000009  -0.000240   0.000155
    20  C    0.510064   4.947298   0.000092  -0.000534   0.000992   0.000157
    21  H    0.000001   0.000092   0.614536  -0.029031  -0.046840   0.005157
    22  H   -0.000009  -0.000534  -0.029031   0.610089  -0.045001  -0.003693
    23  H   -0.000240   0.000992  -0.046840  -0.045001   0.715676  -0.003811
    24  H    0.000155   0.000157   0.005157  -0.003693  -0.003811   0.456852
    25  H   -0.000000  -0.000005   0.005648   0.000213   0.000163   0.006205
    26  H    0.000000   0.000003   0.000505  -0.000252  -0.000781   0.000151
    27  H    0.000559   0.005325   0.000112  -0.000230   0.003290  -0.000407
    28  H    0.000007  -0.000033   0.000030   0.000011  -0.000815   0.000557
    29  H    0.000093  -0.000861  -0.000000  -0.000000   0.000012   0.000388
    30  H    0.000009   0.000019   0.000001   0.000000  -0.000004   0.000240
    31  H    0.000004  -0.000192   0.000000   0.000000  -0.000000   0.000000
    32  H    0.000051  -0.000266  -0.000000  -0.000000   0.000000   0.000002
    33  H   -0.000004  -0.000247  -0.000000  -0.000000   0.000000   0.000001
    34  H   -0.000000   0.000007   0.000000   0.000000  -0.000000   0.000000
    35  H   -0.000001  -0.000052  -0.000039  -0.000028   0.000116  -0.002047
    36  H    0.000000   0.000000   0.000000  -0.000000  -0.000000  -0.000005
    37  H    0.000000  -0.000000   0.000000  -0.000000   0.000000   0.000000
    38  H    0.000000   0.000000  -0.000000   0.000000  -0.000000   0.000000
    39  H    0.005029   0.000463   0.000000  -0.000000   0.000000   0.000000
    40  H   -0.040694   0.004341  -0.000000   0.000000   0.000000  -0.000000
    41  H    0.365032  -0.034501  -0.000000  -0.000005   0.000100  -0.000009
    42  H   -0.042910   0.355373  -0.000147   0.002103  -0.003127   0.003907
              25         26         27         28         29         30
     1  C   -0.008784   0.006588   0.001178   0.000081  -0.000001   0.000010
     2  N   -0.035536  -0.053102  -0.005018   0.006162  -0.000227  -0.000101
     3  C    0.382685   0.383326  -0.038294  -0.030466   0.004319  -0.005984
     4  C   -0.032361  -0.058700   0.380407   0.341603  -0.046744  -0.043701
     5  C    0.003996  -0.009268  -0.036111  -0.033815   0.368935   0.376915
     6  N   -0.000147   0.000380  -0.003253   0.004656  -0.049549  -0.035958
     7  C    0.000001   0.000015   0.001969   0.000088  -0.003145   0.003347
     8  C   -0.000000  -0.000000   0.000105   0.000022   0.007257   0.000522
     9  C    0.000000   0.000000  -0.000010   0.000001  -0.001167  -0.000148
    10  C   -0.000000  -0.000000   0.000000  -0.000000  -0.000084   0.000046
    11  C   -0.000000  -0.000004   0.000002   0.000004   0.001170   0.001332
    12  C    0.000004  -0.000041   0.000223  -0.000113   0.001591   0.001506
    13  C    0.000033   0.001784  -0.000072   0.000018   0.000212   0.002741
    14  C   -0.000001  -0.000028  -0.000000   0.000001   0.000023  -0.000018
    15  C    0.000000  -0.000002   0.000000  -0.000000  -0.000004  -0.000038
    16  C    0.000000   0.000000  -0.000000  -0.000000  -0.000026  -0.000104
    17  C    0.000000  -0.000000  -0.000013  -0.000003  -0.000679   0.000006
    18  C   -0.000000  -0.000000  -0.000050   0.000000  -0.000030  -0.000001
    19  C   -0.000000   0.000000   0.000559   0.000007   0.000093   0.000009
    20  C   -0.000005   0.000003   0.005325  -0.000033  -0.000861   0.000019
    21  H    0.005648   0.000505   0.000112   0.000030  -0.000000   0.000001
    22  H    0.000213  -0.000252  -0.000230   0.000011  -0.000000   0.000000
    23  H    0.000163  -0.000781   0.003290  -0.000815   0.000012  -0.000004
    24  H    0.006205   0.000151  -0.000407   0.000557   0.000388   0.000240
    25  H    0.631541  -0.039407  -0.002649  -0.004757  -0.000187   0.000019
    26  H   -0.039407   0.669541   0.005441   0.001879   0.000100   0.005594
    27  H   -0.002649   0.005441   0.614761  -0.034166  -0.003488   0.005422
    28  H   -0.004757   0.001879  -0.034166   0.666584  -0.001427  -0.002107
    29  H   -0.000187   0.000100  -0.003488  -0.001427   0.653387  -0.032605
    30  H    0.000019   0.005594   0.005422  -0.002107  -0.032605   0.608971
    31  H   -0.000000  -0.000000  -0.000000  -0.000000   0.000013  -0.000001
    32  H   -0.000000  -0.000000   0.000005   0.000001   0.002792  -0.000103
    33  H   -0.000000  -0.000000   0.000000   0.000000   0.000016   0.000000
    34  H    0.000000   0.000000  -0.000000   0.000000  -0.000010  -0.000007
    35  H   -0.000031  -0.003149   0.000017  -0.000098   0.000073  -0.000136
    36  H   -0.000000   0.000011   0.000000   0.000000  -0.000000   0.000009
    37  H   -0.000000  -0.000000   0.000000  -0.000000  -0.000000  -0.000000
    38  H   -0.000000   0.000000  -0.000000   0.000000   0.000000   0.000001
    39  H   -0.000000  -0.000000  -0.000000   0.000000   0.000025  -0.000000
    40  H    0.000000   0.000000  -0.000000  -0.000000  -0.000000   0.000000
    41  H    0.000000  -0.000000   0.000000  -0.000000  -0.000001  -0.000000
    42  H   -0.000015   0.000053  -0.000799   0.000147   0.000072  -0.000036
              31         32         33         34         35         36
     1  C   -0.000000   0.000000   0.000000   0.000000  -0.000155  -0.000000
     2  N    0.000000  -0.000000  -0.000000   0.000000   0.011433  -0.000005
     3  C    0.000000   0.000000  -0.000000  -0.000000   0.000198   0.000002
     4  C   -0.000001  -0.000019   0.000000  -0.000000  -0.000119  -0.000000
     5  C   -0.000016   0.002128  -0.000020   0.000036   0.002826  -0.000001
     6  N    0.000017   0.000965   0.000384  -0.000022  -0.009243  -0.000139
     7  C    0.005794  -0.008617  -0.000622   0.000258   0.000153   0.000001
     8  C   -0.031510  -0.027256  -0.002698   0.004946   0.000004  -0.000000
     9  C    0.364595   0.362928  -0.040917  -0.033444   0.000002  -0.000000
    10  C   -0.027500  -0.040260   0.370739   0.365670  -0.000141   0.000008
    11  C    0.003835  -0.002513  -0.032609  -0.032535   0.005102   0.001001
    12  C    0.000175  -0.000003  -0.002062   0.003999  -0.041053   0.003871
    13  C    0.000003  -0.000089  -0.000202  -0.000186   0.351204  -0.035339
    14  C   -0.000000  -0.000012   0.000045   0.000018  -0.035625   0.364910
    15  C    0.000002  -0.000010  -0.000239   0.000351   0.005127  -0.042166
    16  C   -0.000158   0.000369  -0.002626  -0.007487   0.000645   0.004621
    17  C   -0.008161   0.002645   0.001815  -0.000059   0.000000   0.000000
    18  C    0.000242  -0.000298  -0.000094   0.000004   0.000000  -0.000000
    19  C    0.000004   0.000051  -0.000004  -0.000000  -0.000001   0.000000
    20  C   -0.000192  -0.000266  -0.000247   0.000007  -0.000052   0.000000
    21  H    0.000000  -0.000000  -0.000000   0.000000  -0.000039   0.000000
    22  H    0.000000  -0.000000  -0.000000   0.000000  -0.000028  -0.000000
    23  H   -0.000000   0.000000   0.000000  -0.000000   0.000116  -0.000000
    24  H    0.000000   0.000002   0.000001   0.000000  -0.002047  -0.000005
    25  H   -0.000000  -0.000000  -0.000000   0.000000  -0.000031  -0.000000
    26  H   -0.000000  -0.000000  -0.000000   0.000000  -0.003149   0.000011
    27  H   -0.000000   0.000005   0.000000  -0.000000   0.000017   0.000000
    28  H   -0.000000   0.000001   0.000000   0.000000  -0.000098   0.000000
    29  H    0.000013   0.002792   0.000016  -0.000010   0.000073  -0.000000
    30  H   -0.000001  -0.000103   0.000000  -0.000007  -0.000136   0.000009
    31  H    0.632232  -0.036293  -0.001926  -0.006360  -0.000000   0.000000
    32  H   -0.036293   0.627459   0.006132  -0.001879   0.000006  -0.000000
    33  H   -0.001926   0.006132   0.616677  -0.036063   0.000003  -0.000000
    34  H   -0.006360  -0.001879  -0.036063   0.634669   0.000003  -0.000000
    35  H   -0.000000   0.000006   0.000003   0.000003   0.614853  -0.006692
    36  H    0.000000  -0.000000  -0.000000  -0.000000  -0.006692   0.631801
    37  H   -0.000000   0.000000   0.000003  -0.000014  -0.000216  -0.005986
    38  H   -0.000014   0.000022   0.001166   0.005485   0.000015  -0.000235
    39  H    0.006794   0.000261   0.000132  -0.000027  -0.000000  -0.000000
    40  H   -0.000012   0.000003   0.000001  -0.000000   0.000000   0.000000
    41  H   -0.000000  -0.000000  -0.000000   0.000000   0.000000  -0.000000
    42  H    0.000003  -0.000004  -0.000000  -0.000000  -0.000069  -0.000000
              37         38         39         40         41         42
     1  C   -0.000000   0.000000  -0.000000   0.000000   0.000003   0.004425
     2  N    0.000000  -0.000000  -0.000000   0.000000  -0.000002   0.002567
     3  C    0.000000   0.000000   0.000000   0.000000   0.000000  -0.000243
     4  C    0.000000  -0.000000  -0.000000   0.000000   0.000002  -0.001026
     5  C    0.000000  -0.000000  -0.000005   0.000000  -0.000000  -0.000470
     6  N    0.000005  -0.000101  -0.000123   0.000005  -0.000138  -0.007844
     7  C   -0.000000  -0.000000   0.004568   0.001159   0.003811  -0.040612
     8  C    0.000000  -0.000006  -0.036583   0.003758   0.000942   0.005716
     9  C    0.000002   0.000200  -0.011088  -0.000180   0.000009  -0.000177
    10  C   -0.000176  -0.010637   0.000324   0.000001  -0.000000   0.000004
    11  C    0.003998  -0.043655   0.000001   0.000000   0.000000   0.000017
    12  C    0.001065   0.004334  -0.000004  -0.000000   0.000001   0.000132
    13  C    0.004868   0.000460  -0.000000   0.000000  -0.000000  -0.000014
    14  C   -0.042076   0.005333   0.000000   0.000000   0.000000   0.000000
    15  C    0.364388  -0.044126  -0.000000  -0.000000  -0.000000  -0.000000
    16  C   -0.038223   0.366201  -0.000000   0.000000   0.000000   0.000000
    17  C   -0.000000  -0.000000   0.362500  -0.037120   0.004543   0.000629
    18  C   -0.000000  -0.000000  -0.045154   0.364929  -0.041607   0.005331
    19  C    0.000000   0.000000   0.005029  -0.040694   0.365032  -0.042910
    20  C   -0.000000   0.000000   0.000463   0.004341  -0.034501   0.355373
    21  H    0.000000  -0.000000   0.000000  -0.000000  -0.000000  -0.000147
    22  H   -0.000000   0.000000  -0.000000   0.000000  -0.000005   0.002103
    23  H    0.000000  -0.000000   0.000000   0.000000   0.000100  -0.003127
    24  H    0.000000   0.000000   0.000000  -0.000000  -0.000009   0.003907
    25  H   -0.000000  -0.000000  -0.000000   0.000000   0.000000  -0.000015
    26  H   -0.000000   0.000000  -0.000000   0.000000  -0.000000   0.000053
    27  H    0.000000  -0.000000  -0.000000  -0.000000   0.000000  -0.000799
    28  H   -0.000000   0.000000   0.000000  -0.000000  -0.000000   0.000147
[...]
    31  H   -0.000101   0.000017  -0.000054   0.000110  -0.003484  -0.000200
    32  H    0.001150   0.000013  -0.000110  -0.000903   0.001010   0.000054
    33  H   -0.000911   0.000518  -0.000880  -0.010311  -0.001595   0.000162
    34  H    0.000100   0.000023   0.001326  -0.008504   0.000653  -0.000021
    35  H    0.385848   0.004224   0.005523  -0.001730   0.000096  -0.000034
    36  H   -0.028313   0.404779  -0.036775   0.005197  -0.000000   0.000000
    37  H    0.009239  -0.041059   0.417631  -0.042551  -0.000000   0.000000
    38  H   -0.001608   0.005928  -0.034473   0.408876  -0.000022   0.000000
    39  H   -0.000001   0.000000  -0.000000  -0.000009   0.399310  -0.036154
    40  H   -0.000000   0.000000  -0.000000  -0.000000  -0.041626   0.416745
    41  H    0.000002  -0.000000   0.000000  -0.000000   0.005437  -0.037592
    42  H    0.001271   0.000120  -0.000041   0.000082  -0.006525   0.011139
              19         20         21         22         23         24
     1  C    0.002524   0.011529   0.409286   0.407227   0.437585  -0.054940
     2  N    0.001439   0.002362  -0.030367  -0.033143  -0.077309   0.397056
     3  C   -0.000248  -0.002298  -0.006784   0.010109  -0.012277  -0.059682
     4  C    0.005086  -0.015321  -0.004550  -0.002943   0.026153  -0.012083
     5  C   -0.005553   0.014061   0.000384   0.000321  -0.002915   0.001663
     6  N    0.018179  -0.071025  -0.000131  -0.000051   0.000578   0.011041
     7  C    0.052050   0.021174  -0.000112  -0.000806   0.009423  -0.003320
     8  C   -0.146267   0.179960   0.000015   0.000140  -0.001248   0.000645
     9  C   -0.010215   0.034009   0.000000   0.000002  -0.000029  -0.000115
    10  C    0.000243  -0.000676  -0.000000  -0.000000   0.000004   0.000042
    11  C    0.000798  -0.004951  -0.000002  -0.000021   0.000038  -0.000200
    12  C    0.000199   0.007881  -0.000010  -0.000084   0.000200  -0.003619
    13  C   -0.000638   0.000409   0.000086   0.000341  -0.000405  -0.000429
    14  C   -0.000001   0.000475   0.000006   0.000013  -0.000018   0.001580
    15  C    0.000012  -0.000175  -0.000000  -0.000002   0.000003  -0.000064
    16  C   -0.000019  -0.000010   0.000000   0.000002  -0.000004  -0.000042
    17  C    0.059054  -0.217672  -0.000002  -0.000033   0.000315  -0.000055
    18  C    0.441967   0.064869   0.000005   0.000096  -0.000803   0.000043
    19  C    5.062620   0.320830   0.000006  -0.000244  -0.000329   0.000006
    20  C    0.320830   5.512642  -0.000344  -0.004970   0.011236  -0.001756
    21  H    0.000006  -0.000344   0.525291  -0.010868  -0.043976   0.006693
    22  H   -0.000244  -0.004970  -0.010868   0.528142  -0.048610  -0.008557
    23  H   -0.000329   0.011236  -0.043976  -0.048610   0.614475  -0.001327
    24  H    0.000006  -0.001756   0.006693  -0.008557  -0.001327   0.486738
    25  H    0.000009   0.000083   0.003534   0.000590  -0.003610   0.007103
    26  H    0.000037   0.000629   0.001035  -0.000011  -0.001774  -0.001840
    27  H    0.001791  -0.011373   0.000826   0.000367  -0.007439   0.001741
    28  H    0.000052   0.002499   0.000013   0.000030  -0.000866  -0.000781
    29  H    0.000564   0.005684  -0.000009  -0.000007   0.000173   0.000290
    30  H    0.000172  -0.000811   0.000004   0.000002  -0.000026   0.000508
    31  H    0.000402  -0.001105   0.000000  -0.000000   0.000000  -0.000000
    32  H    0.000065   0.000586   0.000000  -0.000000   0.000001   0.000012
    33  H    0.000103  -0.000609  -0.000000  -0.000000   0.000000   0.000009
    34  H   -0.000019   0.000153   0.000000   0.000000   0.000000  -0.000002
    35  H   -0.000031  -0.003004  -0.000302  -0.000522   0.001002  -0.005925
    36  H   -0.000000   0.000003   0.000000   0.000001  -0.000001  -0.000011
    37  H    0.000000   0.000001  -0.000000  -0.000000   0.000000   0.000001
    38  H   -0.000001   0.000023   0.000000   0.000000  -0.000000   0.000001
    39  H    0.005652  -0.001757  -0.000000  -0.000000   0.000001   0.000001
    40  H   -0.040683   0.009318  -0.000000   0.000000  -0.000002   0.000001
    41  H    0.401774  -0.027898  -0.000016  -0.000139   0.001044  -0.000033
    42  H   -0.003471   0.425226   0.002032   0.008326  -0.036486   0.006879
              25         26         27         28         29         30
     1  C   -0.011998   0.006628  -0.001847   0.000221  -0.000086   0.000120
     2  N   -0.029590  -0.053846  -0.002100   0.007386  -0.001443   0.000410
     3  C    0.438701   0.452465  -0.046491  -0.039237   0.012346  -0.012814
     4  C   -0.076116  -0.092630   0.421406   0.420800  -0.064312  -0.040047
     5  C    0.010858   0.005454  -0.043160  -0.051671   0.411438   0.429188
     6  N   -0.000076  -0.002028  -0.006094   0.007845  -0.058831  -0.041498
     7  C   -0.000239  -0.000990   0.008572  -0.002428   0.007795   0.002330
     8  C    0.000041   0.000066   0.000955   0.000121  -0.001643   0.001425
     9  C    0.000003   0.000015  -0.000131   0.000054  -0.005309  -0.001500
    10  C   -0.000001  -0.000005  -0.000002   0.000010   0.001791   0.000811
    11  C   -0.000016  -0.000183   0.000217  -0.000110   0.001646   0.006455
    12  C   -0.000101   0.002466  -0.000225  -0.000796   0.005516  -0.007712
    13  C    0.000431   0.002810  -0.000194   0.000683   0.002352  -0.009980
    14  C    0.000028   0.001404   0.000064   0.000046  -0.000253   0.001113
    15  C   -0.000002  -0.000137  -0.000007  -0.000004   0.000109  -0.000416
    16  C    0.000002   0.000076   0.000015   0.000001  -0.000920   0.000439
    17  C   -0.000004  -0.000006   0.000242  -0.000118   0.000402   0.000062
    18  C    0.000003   0.000002  -0.000332   0.000035  -0.000290  -0.000042
    19  C    0.000009   0.000037   0.001791   0.000052   0.000564   0.000172
    20  C    0.000083   0.000629  -0.011373   0.002499   0.005684  -0.000811
    21  H    0.003534   0.001035   0.000826   0.000013  -0.000009   0.000004
    22  H    0.000590  -0.000011   0.000367   0.000030  -0.000007   0.000002
    23  H   -0.003610  -0.001774  -0.007439  -0.000866   0.000173  -0.000026
    24  H    0.007103  -0.001840   0.001741  -0.000781   0.000290   0.000508
    25  H    0.518989  -0.011239   0.000598  -0.004933  -0.000459  -0.000090
    26  H   -0.011239   0.530813   0.006136   0.004068  -0.000309   0.002972
    27  H    0.000598   0.006136   0.512734  -0.015173  -0.001569   0.005195
    28  H   -0.004933   0.004068  -0.015173   0.533206  -0.003992   0.000136
    29  H   -0.000459  -0.000309  -0.001569  -0.003992   0.557109  -0.014252
    30  H   -0.000090   0.002972   0.005195   0.000136  -0.014252   0.486447
    31  H   -0.000000  -0.000000  -0.000003  -0.000001   0.000002  -0.000043
    32  H    0.000001   0.000001   0.000042   0.000016  -0.000718  -0.000058
    33  H    0.000000  -0.000000   0.000000   0.000000   0.000061   0.000016
    34  H    0.000000   0.000000  -0.000000   0.000000  -0.000067  -0.000059
    35  H   -0.000265  -0.013693  -0.000118  -0.000533   0.000221   0.000654
    36  H    0.000001   0.000109   0.000000   0.000001  -0.000006   0.000004
    37  H   -0.000000  -0.000000  -0.000000  -0.000000   0.000000  -0.000002
    38  H    0.000000   0.000000   0.000000   0.000000   0.000003   0.000009
    39  H   -0.000000  -0.000000  -0.000002   0.000000   0.000153  -0.000000
    40  H    0.000000  -0.000000   0.000002  -0.000000  -0.000001   0.000000
    41  H   -0.000002  -0.000001  -0.000012  -0.000005  -0.000005  -0.000001
    42  H    0.000444   0.000543  -0.004410   0.000665   0.000255  -0.000384
              31         32         33         34         35         36
     1  C    0.000000  -0.000000   0.000000  -0.000000   0.000980  -0.000001
     2  N   -0.000000  -0.000005  -0.000001   0.000000   0.022225  -0.000093
     3  C   -0.000000  -0.000007   0.000003   0.000000  -0.011926   0.000061
     4  C    0.000019   0.000469  -0.000004   0.000004   0.008553  -0.000020
     5  C    0.000073  -0.004955  -0.000471   0.000392   0.005755   0.000092
     6  N    0.000664  -0.007431  -0.002119   0.000388  -0.009136  -0.000334
     7  C    0.015841  -0.019635   0.001878  -0.000750   0.004365   0.000029
     8  C   -0.055946  -0.062714  -0.011447   0.010816  -0.000399  -0.000002
     9  C    0.445485   0.471402  -0.032911  -0.045138  -0.000337  -0.000004
    10  C   -0.060655  -0.056453   0.427955   0.437745   0.000252   0.000075
    11  C    0.011422  -0.009770  -0.052691  -0.065848   0.011277   0.000107
    12  C   -0.000932   0.006022   0.004934   0.009721  -0.075574   0.007445
    13  C   -0.000101   0.001150  -0.000911   0.000100   0.385848  -0.028313
    14  C    0.000017   0.000013   0.000518   0.000023   0.004224   0.404779
    15  C   -0.000054  -0.000110  -0.000880   0.001326   0.005523  -0.036775
    16  C    0.000110  -0.000903  -0.010311  -0.008504  -0.001730   0.005197
    17  C   -0.003484   0.001010  -0.001595   0.000653   0.000096  -0.000000
    18  C   -0.000200   0.000054   0.000162  -0.000021  -0.000034   0.000000
    19  C    0.000402   0.000065   0.000103  -0.000019  -0.000031  -0.000000
    20  C   -0.001105   0.000586  -0.000609   0.000153  -0.003004   0.000003
    21  H    0.000000   0.000000  -0.000000   0.000000  -0.000302   0.000000
    22  H   -0.000000  -0.000000  -0.000000   0.000000  -0.000522   0.000001
    23  H    0.000000   0.000001   0.000000   0.000000   0.001002  -0.000001
    24  H   -0.000000   0.000012   0.000009  -0.000002  -0.005925  -0.000011
    25  H   -0.000000   0.000001   0.000000   0.000000  -0.000265   0.000001
    26  H   -0.000000   0.000001  -0.000000   0.000000  -0.013693   0.000109
    27  H   -0.000003   0.000042   0.000000  -0.000000  -0.000118   0.000000
    28  H   -0.000001   0.000016   0.000000   0.000000  -0.000533   0.000001
    29  H    0.000002  -0.000718   0.000061  -0.000067   0.000221  -0.000006
    30  H   -0.000043  -0.000058   0.000016  -0.000059   0.000654   0.000004
    31  H    0.512267  -0.015535   0.001420  -0.008804  -0.000000   0.000000
    32  H   -0.015535   0.506829   0.006166   0.001345   0.000021  -0.000000
    33  H    0.001420   0.006166   0.523806  -0.028011  -0.000001   0.000001
    34  H   -0.008804   0.001345  -0.028011   0.540989   0.000006  -0.000002
    35  H   -0.000000   0.000021  -0.000001   0.000006   0.496563  -0.004372
    36  H    0.000000  -0.000000   0.000001  -0.000002  -0.004372   0.512182
    37  H   -0.000001  -0.000001  -0.000010  -0.000043  -0.000237  -0.003901
    38  H   -0.000014   0.000053   0.000559   0.000747   0.000022  -0.000339
    39  H    0.003362   0.000072   0.000434  -0.000072   0.000000  -0.000000
    40  H   -0.000048   0.000008   0.000007  -0.000001  -0.000000   0.000000
    41  H   -0.000000  -0.000004  -0.000003   0.000000   0.000005  -0.000000
    42  H   -0.000004  -0.000012  -0.000018   0.000002  -0.002123   0.000003
              37         38         39         40         41         42
     1  C   -0.000000  -0.000000   0.000000  -0.000001   0.000403  -0.023211
     2  N   -0.000000  -0.000000  -0.000001   0.000000  -0.000159   0.027404
     3  C   -0.000001   0.000001   0.000000   0.000000  -0.000035   0.005477
     4  C    0.000001  -0.000004  -0.000006  -0.000002   0.000220  -0.019901
     5  C   -0.000011  -0.000015  -0.000045  -0.000007  -0.000006   0.007214
     6  N    0.000024  -0.000383  -0.000479   0.000010  -0.000314   0.004054
     7  C   -0.000007   0.000109   0.019046  -0.001296   0.012080  -0.142033
     8  C   -0.000006  -0.000059  -0.041529   0.008145  -0.000671   0.020650
     9  C    0.000033   0.000443  -0.005140  -0.000200   0.000050   0.000837
    10  C   -0.000333  -0.004260  -0.000877   0.000046  -0.000011  -0.000066
    11  C    0.008027  -0.051927   0.000067  -0.000001   0.000012  -0.000816
    12  C   -0.000889   0.016526   0.000001  -0.000004   0.000005  -0.002047
    13  C    0.009239  -0.001608  -0.000001  -0.000000   0.000002   0.001271
    14  C   -0.041059   0.005928   0.000000   0.000000  -0.000000   0.000120
    15  C    0.417631  -0.034473  -0.000000  -0.000000   0.000000  -0.000041
    16  C   -0.042551   0.408876  -0.000009  -0.000000  -0.000000   0.000082
    17  C   -0.000000  -0.000022   0.399310  -0.041626   0.005437  -0.006525
    18  C    0.000000   0.000000  -0.036154   0.416745  -0.037592   0.011139
    19  C    0.000000  -0.000001   0.005652  -0.040683   0.401774  -0.003471
    20  C    0.000001   0.000023  -0.001757   0.009318  -0.027898   0.425226
    21  H   -0.000000   0.000000  -0.000000  -0.000000  -0.000016   0.002032
    22  H   -0.000000   0.000000  -0.000000   0.000000  -0.000139   0.008326
    23  H    0.000000  -0.000000   0.000001  -0.000002   0.001044  -0.036486
    24  H    0.000001   0.000001   0.000001   0.000001  -0.000033   0.006879
    25  H   -0.000000   0.000000  -0.000000   0.000000  -0.000002   0.000444
    26  H   -0.000000   0.000000  -0.000000  -0.000000  -0.000001   0.000543
    27  H   -0.000000   0.000000  -0.000002   0.000002  -0.000012  -0.004410
    28  H   -0.000000   0.000000   0.000000  -0.000000  -0.000005   0.000665
    29  H    0.000000   0.000003   0.000153  -0.000001  -0.000005   0.000255
    30  H   -0.000002   0.000009  -0.000000   0.000000  -0.000001  -0.000384
    31  H   -0.000001  -0.000014   0.003362  -0.000048  -0.000000  -0.000004
    32  H   -0.000001   0.000053   0.000072   0.000008  -0.000004  -0.000012
    33  H   -0.000010   0.000559   0.000434   0.000007  -0.000003  -0.000018
    34  H   -0.000043   0.000747  -0.000072  -0.000001   0.000000   0.000002
    35  H   -0.000237   0.000022   0.000000  -0.000000   0.000005  -0.002123
    36  H   -0.003901  -0.000339  -0.000000   0.000000  -0.000000   0.000003
    37  H    0.518422  -0.004359  -0.000000  -0.000000   0.000000   0.000000
    38  H   -0.004359   0.527346   0.000000  -0.000000  -0.000000   0.000001
    39  H   -0.000000   0.000000   0.524311  -0.003831  -0.000318   0.000024
    40  H   -0.000000  -0.000000  -0.003831   0.515636  -0.004070  -0.000206
    41  H    0.000000  -0.000000  -0.000318  -0.004070   0.513455  -0.005968
    42  H    0.000000   0.000001   0.000024  -0.000206  -0.005968   0.548669
 Mulliken charges:
               1
     1  C   -0.400064
     2  N   -0.349227
     3  C   -0.239592
     4  C   -0.301118
     5  C   -0.227927
     6  N   -0.268570
     7  C    0.170607
     8  C    0.056553
     9  C   -0.430775
    10  C   -0.313352
    11  C    0.059569
    12  C    0.208489
    13  C   -0.254133
    14  C   -0.179319
    15  C   -0.160465
    16  C   -0.176154
    17  C   -0.138773
    18  C   -0.148469
    19  C   -0.167913
    20  C   -0.259884
    21  H    0.148255
    22  H    0.155303
    23  H    0.137222
    24  H    0.232727
    25  H    0.157322
    26  H    0.160961
    27  H    0.179779
    28  H    0.142759
    29  H    0.146569
    30  H    0.191264
    31  H    0.155849
    32  H    0.182977
    33  H    0.173961
    34  H    0.152931
    35  H    0.182670
    36  H    0.144085
    37  H    0.140033
    38  H    0.136815
    39  H    0.137785
    40  H    0.142064
    41  H    0.142778
    42  H    0.176405
 Sum of Mulliken charges =  -0.00000
 Mulliken charges with hydrogens summed into heavy atoms:
               1
     1  C    0.040716
     2  N   -0.116499
     3  C    0.078691
     4  C    0.021419
     5  C    0.109907
     6  N   -0.268570
     7  C    0.170607
     8  C    0.056553
     9  C   -0.091948
    10  C    0.013540
    11  C    0.059569
    12  C    0.208489
    13  C   -0.071463
    14  C   -0.035234
    15  C   -0.020432
    16  C   -0.039339
    17  C   -0.000988
    18  C   -0.006405
    19  C   -0.025135
    20  C   -0.083479
 Electronic spatial extent (au):  <R**2>=           5348.5779
 Charge=             -0.0000 electrons
 Dipole moment (field-independent basis, Debye):
    X=             -0.0239    Y=             -1.6984    Z=              1.1722  Tot=              2.0638
 Quadrupole moment (field-independent basis, Debye-Ang):
   XX=           -113.9815   YY=           -117.8983   ZZ=           -122.0045
   XY=              0.8235   XZ=             -1.3445   YZ=              1.4590
 Traceless Quadrupole moment (field-independent basis, Debye-Ang):
   XX=              3.9800   YY=              0.0631   ZZ=             -4.0431
   XY=              0.8235   XZ=             -1.3445   YZ=              1.4590
 Octapole moment (field-independent basis, Debye-Ang**2):
  XXX=             -6.0092  YYY=            -34.0117  ZZZ=             11.3718  XYY=             -8.3984
  XXY=              1.8512  XXZ=            -16.8135  XZZ=             13.3096  YZZ=              4.5090
  YYZ=              6.2042  XYZ=             18.3466
 Hexadecapole moment (field-independent basis, Debye-Ang**3):
 XXXX=          -3381.4420 YYYY=          -3065.5472 ZZZZ=           -785.9458 XXXY=             30.1145
 XXXZ=              8.3794 YYYX=            -59.8752 YYYZ=             18.2615 ZZZX=            -20.7760
 ZZZY=              0.7502 XXYY=          -1058.5846 XXZZ=           -720.0870 YYZZ=           -671.6462
 XXYZ=              0.8881 YYXZ=              1.6155 ZZXY=             14.9778
 N-N= 1.570421539717D+03 E-N=-5.016401964186D+03  KE= 8.041006582654D+02
 Unable to Open any file for archive entry.
 1\1\GINC-NOTCH167\SP\RM062X\def2TZVP\C18H22N2\U6032257\23-Sep-2022\0\\
 # M062X/def2tzvp int=(grid=ultrafine) nmr=giao guess=read geom=check\\
 SecN5.xyz\\0,1\C,0,0.819590621,-1.1682561774,3.8454324622\N,0,-0.19977
 99708,-1.5874159683,2.8929280445\C,0,-0.2234062317,-3.031246972,2.6531
 58924\C,0,0.8249235296,-3.5781216868,1.6672743995\C,0,0.481302187,-3.3
 13108588,0.198542401\N,0,0.5242862859,-1.8889945554,-0.2011347596\C,0,
 1.8479956142,-1.3903752674,-0.439384176\C,0,2.4979714446,-1.6073073065
 ,-1.6658903511\C,0,1.7287531311,-2.2199381956,-2.8032694675\C,0,0.6161
 827453,-1.2730424776,-3.2726880457\C,0,-0.5685629188,-1.0976785136,-2.
 3395773776\C,0,-0.5866833221,-1.3979892351,-0.960355241\C,0,-1.7864917
 526,-1.2281290021,-0.2437246645\C,0,-2.9471601166,-0.7710885138,-0.853
 1481695\C,0,-2.9277053016,-0.4449640403,-2.2093271705\C,0,-1.748490535
 1,-0.6089010476,-2.9244308\C,0,3.8111069445,-1.1584002666,-1.827709104
 2\C,0,4.4847669989,-0.514624335,-0.7896746794\C,0,3.8362371954,-0.2986
 495578,0.4245546722\C,0,2.5221390605,-0.7349572688,0.5939305069\H,0,0.
 5762203455,-1.5635840745,4.8380488871\H,0,0.8222080534,-0.0760509592,3
 .9171970491\H,0,1.849333934,-1.4919243175,3.606845557\H,0,-0.053878551
 8,-1.1187275275,2.0027696056\H,0,-0.111314735,-3.5271486244,3.62458925
 36\H,0,-1.2207648719,-3.3091183688,2.2842365288\H,0,1.8181926263,-3.17
 57955483,1.8982180802\H,0,0.8977516516,-4.6670562769,1.7898656141\H,0,
 1.1605110824,-3.8982010971,-0.4411524593\H,0,-0.5322255569,-3.67265954
 32,-0.002804706\H,0,2.4056133069,-2.4172667945,-3.6403848909\H,0,1.291
 741122,-3.1820612356,-2.5126865315\H,0,1.0687295825,-0.2925490189,-3.4
 74425758\H,0,0.227927165,-1.6290215286,-4.2337921061\H,0,-1.7886453585
 ,-1.4407630841,0.8195050459\H,0,-3.8531590145,-0.6511262533,-0.2671528
 544\H,0,-3.8199029976,-0.0745755976,-2.7043443179\H,0,-1.7333095684,-0
 .3745002145,-3.9861986298\H,0,4.3087952258,-1.3165916416,-2.7809399722
 \H,0,5.5073450915,-0.1788960728,-0.9323049892\H,0,4.3458818625,0.20969
 79908,1.237134189\H,0,2.0061739967,-0.5661912362,1.5300700014\\Version
 =ES64L-G16RevC.01\State=1-A\HF=-808.5902517\RMSD=2.845e-09\Dipole=0.54
 10112,-0.3645984,-0.4833651\Quadrupole=0.4254378,-2.8056267,2.380189,1
 .3251637,1.4897182,-0.7830825\PG=C01 [X(C18H22N2)]\\@
 The archive entry for this job was punched.


 THERE IS MUCH PLEASURE TO BE GAINED FROM USELESS KNOWLEDGE

                                       -- BERTRAND RUSSELL
 Job cpu time:       0 days  3 hours 19 minutes 14.3 seconds.
 Elapsed time:       0 days  0 hours  5 minutes 49.8 seconds.
 File lengths (MBytes):  RWF=    318 Int=      0 D2E=      0 Chk=     53 Scr=      1
 Normal termination of Gaussian 16 at Fri Sep 23 16:44:44 2022.
