 Entering Gaussian System, Link 0=/uufs/chpc.utah.edu/sys/installdir/gaussian16/C01/AVX2/g16/g16
 Input=SecN5_clust-2.com
 Output=SecN5_clust-2.log
 Initial command:
 /uufs/chpc.utah.edu/sys/installdir/gaussian16/C01/AVX2/g16/l1.exe "/scratch/local/u6032257/5771826/notchpeak.peaks/Gau-965481.inp" -scrdir="/scratch/local/u6032257/5771826/notchpeak.peaks/"
 Entering Link 1 = /uufs/chpc.utah.edu/sys/installdir/gaussian16/C01/AVX2/g16/l1.exe PID=    965483.
  
 Copyright (c) 1988-2019, Gaussian, Inc.  All Rights Reserved.
  
 This is part of the Gaussian(R) 16 program.  It is based on
 the Gaussian(R) 09 system (copyright 2009, Gaussian, Inc.),
 the Gaussian(R) 03 system (copyright 2003, Gaussian, Inc.),
 the Gaussian(R) 98 system (copyright 1998, Gaussian, Inc.),
 the Gaussian(R) 94 system (copyright 1995, Gaussian, Inc.),
 the Gaussian 92(TM) system (copyright 1992, Gaussian, Inc.),
 the Gaussian 90(TM) system (copyright 1990, Gaussian, Inc.),
 the Gaussian 88(TM) system (copyright 1988, Gaussian, Inc.),
 the Gaussian 86(TM) system (copyright 1986, Carnegie Mellon
 University), and the Gaussian 82(TM) system (copyright 1983,
 Carnegie Mellon University). Gaussian is a federally registered
 trademark of Gaussian, Inc.
  
 This software contains proprietary and confidential information,
 including trade secrets, belonging to Gaussian, Inc.
  
 This software is provided under written license and may be
 used, copied, transmitted, or stored only in accord with that
 written license.
  
 The following legend is applicable only to US Government
 contracts under FAR:
  
                    RESTRICTED RIGHTS LEGEND
  
 Use, reproduction and disclosure by the US Government is
 subject to restrictions as set forth in subparagraphs (a)
 and (c) of the Commercial Computer Software - Restricted
 Rights clause in FAR 52.227-19.
  
 Gaussian, Inc.
 340 Quinnipiac St., Bldg. 40, Wallingford CT 06492
  
  
 ---------------------------------------------------------------
 Warning -- This program may not be used in any manner that
 competes with the business of Gaussian, Inc. or will provide
 assistance to any competitor of Gaussian, Inc.  The licensee
 of this program is prohibited from giving any competitor of
 Gaussian, Inc. access to this program.  By using this program,
 the user acknowledges that Gaussian, Inc. is engaged in the
 business of creating and licensing software in the field of
 computational chemistry and represents and warrants to the
 licensee that it is not a competitor of Gaussian, Inc. and that
 it will not use this program in any manner prohibited above.
 ---------------------------------------------------------------
  

 Cite this work as:
 Gaussian 16, Revision C.01,
 M. J. Frisch, G. W. Trucks, H. B. Schlegel, G. E. Scuseria, 
 M. A. Robb, J. R. Cheeseman, G. Scalmani, V. Barone, 
 G. A. Petersson, H. Nakatsuji, X. Li, M. Caricato, A. V. Marenich, 
 J. Bloino, B. G. Janesko, R. Gomperts, B. Mennucci, H. P. Hratchian, 
 J. V. Ortiz, A. F. Izmaylov, J. L. Sonnenberg, D. Williams-Young, 
 F. Ding, F. Lipparini, F. Egidi, J. Goings, B. Peng, A. Petrone, 
 T. Henderson, D. Ranasinghe, V. G. Zakrzewski, J. Gao, N. Rega, 
 G. Zheng, W. Liang, M. Hada, M. Ehara, K. Toyota, R. Fukuda, 
 J. Hasegawa, M. Ishida, T. Nakajima, Y. Honda, O. Kitao, H. Nakai, 
 T. Vreven, K. Throssell, J. A. Montgomery, Jr., J. E. Peralta, 
 F. Ogliaro, M. J. Bearpark, J. J. Heyd, E. N. Brothers, K. N. Kudin, 
 V. N. Staroverov, T. A. Keith, R. Kobayashi, J. Normand, 
 K. Raghavachari, A. P. Rendell, J. C. Burant, S. S. Iyengar, 
 J. Tomasi, M. Cossi, J. M. Millam, M. Klene, C. Adamo, R. Cammi, 
 J. W. Ochterski, R. L. Martin, K. Morokuma, O. Farkas, 
 J. B. Foresman, and D. J. Fox, Gaussian, Inc., Wallingford CT, 2019.
 
 ******************************************
 Gaussian 16:  ES64L-G16RevC.01  3-Jul-2019
                23-Sep-2022 
 ******************************************
 %NProcShared=64
 Will use up to   64 processors via shared memory.
 %mem=16GB
 %chk=SecN5_clust-2.chk
 ----------------------------------------------------------------------
 # B3LYP/6-31G(d,p) empiricaldispersion=GD3BJ int=(grid=ultrafine) opt 
 freq=noraman
 ----------------------------------------------------------------------
 1/18=20,19=15,26=4,38=1/1,3;
 2/9=110,12=2,17=6,18=5,40=1/2;
 3/5=1,6=6,7=101,11=2,25=1,30=1,71=1,74=-5,75=-5,124=41/1,2,3;
 4//1;
 5/5=2,38=5/2;
 6/7=2,8=2,9=2,10=2,28=1/1;
 7//1,2,3,16;
 1/18=20,19=15,26=4/3(2);
 2/9=110/2;
 99//99;
 2/9=110/2;
 3/5=1,6=6,7=101,11=2,25=1,30=1,71=1,74=-5,75=-5,124=41/1,2,3;
 4/5=5,16=3,69=1/1;
 5/5=2,38=5/2;
 7//1,2,3,16;
 1/18=20,19=15,26=4/3(-5);
 2/9=110/2;
 6/7=2,8=2,9=2,10=2,19=2,28=1/1;
 99/9=1/99;
 ---------
 SecN5.xyz
 ---------
 Symbolic Z-matrix:
 Charge =  0 Multiplicity = 1
 C                     0.792    -2.3922    4.4944 
 N                    -0.4409   -2.6912    3.7731 
 C                    -0.4095   -2.2789    2.3727 
 C                     0.5304   -3.1635    1.5354 
 C                     0.4385   -2.9436    0.0101 
 N                     0.6306   -1.5355   -0.4046 
 C                     1.9816   -1.2271   -0.6597 
 C                     2.5873   -1.1444   -1.9435 
 C                     1.829    -1.2951   -3.2639 
 C                     0.5228   -2.0964   -3.2772 
 C                    -0.6048   -1.3973   -2.5406 
 C                    -0.454    -1.0894   -1.1737 
 C                    -1.49     -0.4186   -0.5156 
 C                    -2.6444   -0.0269   -1.1906 
 C                    -2.7833   -0.3194   -2.5435 
 C                    -1.7684   -0.9999   -3.2124 
 C                     3.9564   -0.8494   -2.029 
 C                     4.7341   -0.6539   -0.8927 
 C                     4.1482   -0.7376    0.3624 
 C                     2.7898   -1.0196    0.4673 
 H                     0.6751   -2.64      5.5505 
 H                     1.0516   -1.3339    4.4289 
 H                     1.6298   -2.9825    4.1206 
 H                    -1.2599   -2.3311    4.2482 
 H                    -1.4188   -2.3697    1.9668 
 H                    -0.1458   -1.2236    2.2774 
 H                     1.5654   -3.0959    1.8631 
 H                     0.2649   -4.2043    1.7248 
 H                     1.1812   -3.5767   -0.4817 
 H                    -0.5255   -3.3346   -0.3278 
 H                     1.6286   -0.2908   -3.6408 
 H                     2.5042   -1.7464   -3.9926 
 H                     0.2237   -2.2597   -4.3134 
 H                     0.6662   -3.0965   -2.8665 
 H                    -1.3905   -0.2017    0.5363 
 H                    -3.4285    0.4958   -0.6627 
 H                    -3.6756   -0.0194   -3.0743 
 H                    -1.887    -1.2158   -4.2644 
 H                     4.4295   -0.7664   -2.9971 
 H                     5.7872   -0.4298   -0.9869 
 H                     4.7388   -0.5791    1.2527 
 H                     2.3443   -1.0583    1.4489 
 

 GradGradGradGradGradGradGradGradGradGradGradGradGradGradGradGradGradGrad
 Berny optimization.
 Initialization pass.
                           ----------------------------
                           !    Initial Parameters    !
                           ! (Angstroms and Degrees)  !
 --------------------------                            --------------------------
 ! Name  Definition              Value          Derivative Info.                !
 --------------------------------------------------------------------------------
 ! R1    R(1,2)                  1.4594         estimate D2E/DX2                !
 ! R2    R(1,21)                 1.0911         estimate D2E/DX2                !
 ! R3    R(1,22)                 1.0916         estimate D2E/DX2                !
 ! R4    R(1,23)                 1.0909         estimate D2E/DX2                !
 ! R5    R(2,3)                  1.4602         estimate D2E/DX2                !
 ! R6    R(2,24)                 1.013          estimate D2E/DX2                !
 ! R7    R(3,4)                  1.5385         estimate D2E/DX2                !
 ! R8    R(3,25)                 1.0916         estimate D2E/DX2                !
 ! R9    R(3,26)                 1.0919         estimate D2E/DX2                !
 ! R10   R(4,5)                  1.5438         estimate D2E/DX2                !
 ! R11   R(4,27)                 1.0877         estimate D2E/DX2                !
 ! R12   R(4,28)                 1.0907         estimate D2E/DX2                !
 ! R13   R(5,6)                  1.4804         estimate D2E/DX2                !
 ! R14   R(5,29)                 1.0928         estimate D2E/DX2                !
 ! R15   R(5,30)                 1.0938         estimate D2E/DX2                !
 ! R16   R(6,7)                  1.409          estimate D2E/DX2                !
 ! R17   R(6,12)                 1.4025         estimate D2E/DX2                !
 ! R18   R(7,8)                  1.4219         estimate D2E/DX2                !
 ! R19   R(7,20)                 1.4023         estimate D2E/DX2                !
 ! R20   R(8,9)                  1.5301         estimate D2E/DX2                !
 ! R21   R(8,17)                 1.4031         estimate D2E/DX2                !
 ! R22   R(9,10)                 1.5325         estimate D2E/DX2                !
 ! R23   R(9,31)                 1.0913         estimate D2E/DX2                !
 ! R24   R(9,32)                 1.0911         estimate D2E/DX2                !
 ! R25   R(10,11)                1.5175         estimate D2E/DX2                !
 ! R26   R(10,33)                1.0908         estimate D2E/DX2                !
 ! R27   R(10,34)                1.0906         estimate D2E/DX2                !
 ! R28   R(11,12)                1.4092         estimate D2E/DX2                !
 ! R29   R(11,16)                1.4011         estimate D2E/DX2                !
 ! R30   R(12,13)                1.3987         estimate D2E/DX2                !
 ! R31   R(13,14)                1.3934         estimate D2E/DX2                !
 ! R32   R(13,35)                1.0786         estimate D2E/DX2                !
 ! R33   R(14,15)                1.3911         estimate D2E/DX2                !
 ! R34   R(14,36)                1.0801         estimate D2E/DX2                !
 ! R35   R(15,16)                1.393          estimate D2E/DX2                !
 ! R36   R(15,37)                1.0807         estimate D2E/DX2                !
 ! R37   R(16,38)                1.0805         estimate D2E/DX2                !
 ! R38   R(17,18)                1.3908         estimate D2E/DX2                !
 ! R39   R(17,39)                1.0807         estimate D2E/DX2                !
 ! R40   R(18,19)                1.3876         estimate D2E/DX2                !
 ! R41   R(18,40)                1.0808         estimate D2E/DX2                !
 ! R42   R(19,20)                1.3913         estimate D2E/DX2                !
 ! R43   R(19,41)                1.0801         estimate D2E/DX2                !
 ! R44   R(20,42)                1.0787         estimate D2E/DX2                !
 ! A1    A(2,1,21)             109.9604         estimate D2E/DX2                !
 ! A2    A(2,1,22)             111.708          estimate D2E/DX2                !
 ! A3    A(2,1,23)             111.6285         estimate D2E/DX2                !
 ! A4    A(21,1,22)            107.6823         estimate D2E/DX2                !
 ! A5    A(21,1,23)            106.9213         estimate D2E/DX2                !
 ! A6    A(22,1,23)            108.747          estimate D2E/DX2                !
 ! A7    A(1,2,3)              113.4537         estimate D2E/DX2                !
 ! A8    A(1,2,24)             112.2342         estimate D2E/DX2                !
 ! A9    A(3,2,24)             111.5196         estimate D2E/DX2                !
 ! A10   A(2,3,4)              111.8845         estimate D2E/DX2                !
 ! A11   A(2,3,25)             108.2543         estimate D2E/DX2                !
 ! A12   A(2,3,26)             111.2104         estimate D2E/DX2                !
 ! A13   A(4,3,25)             108.3398         estimate D2E/DX2                !
 ! A14   A(4,3,26)             111.1405         estimate D2E/DX2                !
 ! A15   A(25,3,26)            105.737          estimate D2E/DX2                !
 ! A16   A(3,4,5)              114.7992         estimate D2E/DX2                !
 ! A17   A(3,4,27)             112.4331         estimate D2E/DX2                !
 ! A18   A(3,4,28)             107.7854         estimate D2E/DX2                !
 ! A19   A(5,4,27)             110.2089         estimate D2E/DX2                !
 ! A20   A(5,4,28)             107.0377         estimate D2E/DX2                !
 ! A21   A(27,4,28)            103.8044         estimate D2E/DX2                !
 ! A22   A(4,5,6)              113.8613         estimate D2E/DX2                !
 ! A23   A(4,5,29)             108.7629         estimate D2E/DX2                !
 ! A24   A(4,5,30)             107.8648         estimate D2E/DX2                !
 ! A25   A(6,5,29)             109.6804         estimate D2E/DX2                !
 ! A26   A(6,5,30)             111.5825         estimate D2E/DX2                !
 ! A27   A(29,5,30)            104.6465         estimate D2E/DX2                !
 ! A28   A(5,6,7)              112.5391         estimate D2E/DX2                !
 ! A29   A(5,6,12)             110.8434         estimate D2E/DX2                !
 ! A30   A(7,6,12)             124.9317         estimate D2E/DX2                !
 ! A31   A(6,7,8)              125.776          estimate D2E/DX2                !
 ! A32   A(6,7,20)             116.0715         estimate D2E/DX2                !
 ! A33   A(8,7,20)             118.1324         estimate D2E/DX2                !
 ! A34   A(7,8,9)              124.2145         estimate D2E/DX2                !
 ! A35   A(7,8,17)             118.8741         estimate D2E/DX2                !
 ! A36   A(9,8,17)             116.8524         estimate D2E/DX2                !
 ! A37   A(8,9,10)             118.7775         estimate D2E/DX2                !
 ! A38   A(8,9,31)             107.3626         estimate D2E/DX2                !
 ! A39   A(8,9,32)             108.0818         estimate D2E/DX2                !
 ! A40   A(10,9,31)            108.7655         estimate D2E/DX2                !
 ! A41   A(10,9,32)            107.781          estimate D2E/DX2                !
 ! A42   A(31,9,32)            105.2855         estimate D2E/DX2                !
 ! A43   A(9,10,11)            112.8459         estimate D2E/DX2                !
 ! A44   A(9,10,33)            108.6777         estimate D2E/DX2                !
 ! A45   A(9,10,34)            111.3552         estimate D2E/DX2                !
 ! A46   A(11,10,33)           109.046          estimate D2E/DX2                !
 ! A47   A(11,10,34)           109.7166         estimate D2E/DX2                !
 ! A48   A(33,10,34)           104.8625         estimate D2E/DX2                !
 ! A49   A(10,11,12)           119.4696         estimate D2E/DX2                !
 ! A50   A(10,11,16)           120.9987         estimate D2E/DX2                !
 ! A51   A(12,11,16)           119.4693         estimate D2E/DX2                !
 ! A52   A(6,12,11)            123.0368         estimate D2E/DX2                !
 ! A53   A(6,12,13)            117.8619         estimate D2E/DX2                !
 ! A54   A(11,12,13)           118.8093         estimate D2E/DX2                !
 ! A55   A(12,13,14)           121.3669         estimate D2E/DX2                !
 ! A56   A(12,13,35)           119.1411         estimate D2E/DX2                !
 ! A57   A(14,13,35)           119.492          estimate D2E/DX2                !
 ! A58   A(13,14,15)           119.6512         estimate D2E/DX2                !
 ! A59   A(13,14,36)           120.0446         estimate D2E/DX2                !
 ! A60   A(15,14,36)           120.3032         estimate D2E/DX2                !
 ! A61   A(14,15,16)           119.7989         estimate D2E/DX2                !
 ! A62   A(14,15,37)           120.115          estimate D2E/DX2                !
 ! A63   A(16,15,37)           120.0861         estimate D2E/DX2                !
 ! A64   A(11,16,15)           120.8881         estimate D2E/DX2                !
 ! A65   A(11,16,38)           120.0875         estimate D2E/DX2                !
 ! A66   A(15,16,38)           119.0238         estimate D2E/DX2                !
 ! A67   A(8,17,18)            121.695          estimate D2E/DX2                !
 ! A68   A(8,17,39)            119.8602         estimate D2E/DX2                !
 ! A69   A(18,17,39)           118.4446         estimate D2E/DX2                !
 ! A70   A(17,18,19)           119.6308         estimate D2E/DX2                !
 ! A71   A(17,18,40)           120.1853         estimate D2E/DX2                !
 ! A72   A(19,18,40)           120.1819         estimate D2E/DX2                !
 ! A73   A(18,19,20)           119.5152         estimate D2E/DX2                !
 ! A74   A(18,19,41)           120.3863         estimate D2E/DX2                !
 ! A75   A(20,19,41)           120.0973         estimate D2E/DX2                !
 ! A76   A(7,20,19)            122.148          estimate D2E/DX2                !
 ! A77   A(7,20,42)            119.2111         estimate D2E/DX2                !
 ! A78   A(19,20,42)           118.6281         estimate D2E/DX2                !
 ! D1    D(21,1,2,3)           174.9293         estimate D2E/DX2                !
 ! D2    D(21,1,2,24)           47.3884         estimate D2E/DX2                !
 ! D3    D(22,1,2,3)            55.4304         estimate D2E/DX2                !
 ! D4    D(22,1,2,24)          -72.1105         estimate D2E/DX2                !
 ! D5    D(23,1,2,3)           -66.5733         estimate D2E/DX2                !
 ! D6    D(23,1,2,24)          165.8858         estimate D2E/DX2                !
 ! D7    D(1,2,3,4)             70.9623         estimate D2E/DX2                !
 ! D8    D(1,2,3,25)          -169.7269         estimate D2E/DX2                !
 ! D9    D(1,2,3,26)           -53.983          estimate D2E/DX2                !
 ! D10   D(24,2,3,4)          -161.1258         estimate D2E/DX2                !
 ! D11   D(24,2,3,25)          -41.8151         estimate D2E/DX2                !
 ! D12   D(24,2,3,26)           73.9289         estimate D2E/DX2                !
 ! D13   D(2,3,4,5)            170.2376         estimate D2E/DX2                !
 ! D14   D(2,3,4,27)           -62.7171         estimate D2E/DX2                !
 ! D15   D(2,3,4,28)            51.0821         estimate D2E/DX2                !
 ! D16   D(25,3,4,5)            50.9773         estimate D2E/DX2                !
 ! D17   D(25,3,4,27)          178.0225         estimate D2E/DX2                !
 ! D18   D(25,3,4,28)          -68.1783         estimate D2E/DX2                !
 ! D19   D(26,3,4,5)           -64.7783         estimate D2E/DX2                !
 ! D20   D(26,3,4,27)           62.2669         estimate D2E/DX2                !
 ! D21   D(26,3,4,28)          176.0661         estimate D2E/DX2                !
 ! D22   D(3,4,5,6)             54.2674         estimate D2E/DX2                !
 ! D23   D(3,4,5,29)           176.8951         estimate D2E/DX2                !
 ! D24   D(3,4,5,30)           -70.1463         estimate D2E/DX2                !
 ! D25   D(27,4,5,6)           -73.9049         estimate D2E/DX2                !
 ! D26   D(27,4,5,29)           48.7228         estimate D2E/DX2                !
 ! D27   D(27,4,5,30)          161.6814         estimate D2E/DX2                !
 ! D28   D(28,4,5,6)           173.8396         estimate D2E/DX2                !
 ! D29   D(28,4,5,29)          -63.5326         estimate D2E/DX2                !
 ! D30   D(28,4,5,30)           49.4259         estimate D2E/DX2                !
 ! D31   D(4,5,6,7)             89.8586         estimate D2E/DX2                !
 ! D32   D(4,5,6,12)          -124.9188         estimate D2E/DX2                !
 ! D33   D(29,5,6,7)           -32.2646         estimate D2E/DX2                !
 ! D34   D(29,5,6,12)          112.958          estimate D2E/DX2                !
 ! D35   D(30,5,6,7)          -147.7494         estimate D2E/DX2                !
 ! D36   D(30,5,6,12)           -2.5268         estimate D2E/DX2                !
 ! D37   D(5,6,7,8)            100.7226         estimate D2E/DX2                !
 ! D38   D(5,6,7,20)           -77.6063         estimate D2E/DX2                !
 ! D39   D(12,6,7,8)           -38.7203         estimate D2E/DX2                !
 ! D40   D(12,6,7,20)          142.9509         estimate D2E/DX2                !
 ! D41   D(5,6,12,11)          -79.4107         estimate D2E/DX2                !
 ! D42   D(5,6,12,13)           94.3008         estimate D2E/DX2                !
 ! D43   D(7,6,12,11)           60.6036         estimate D2E/DX2                !
 ! D44   D(7,6,12,13)         -125.6849         estimate D2E/DX2                !
 ! D45   D(6,7,8,9)              4.0501         estimate D2E/DX2                !
 ! D46   D(6,7,8,17)          -178.8327         estimate D2E/DX2                !
 ! D47   D(20,7,8,9)          -177.6521         estimate D2E/DX2                !
 ! D48   D(20,7,8,17)           -0.5349         estimate D2E/DX2                !
 ! D49   D(6,7,20,19)          178.54           estimate D2E/DX2                !
 ! D50   D(6,7,20,42)           -2.7788         estimate D2E/DX2                !
 ! D51   D(8,7,20,19)            0.0774         estimate D2E/DX2                !
 ! D52   D(8,7,20,42)          178.7586         estimate D2E/DX2                !
 ! D53   D(7,8,9,10)           -25.1022         estimate D2E/DX2                !
 ! D54   D(7,8,9,31)            98.6964         estimate D2E/DX2                !
 ! D55   D(7,8,9,32)          -148.1841         estimate D2E/DX2                !
 ! D56   D(17,8,9,10)          157.7273         estimate D2E/DX2                !
 ! D57   D(17,8,9,31)          -78.4741         estimate D2E/DX2                !
 ! D58   D(17,8,9,32)           34.6454         estimate D2E/DX2                !
 ! D59   D(7,8,17,18)            0.8291         estimate D2E/DX2                !
 ! D60   D(7,8,17,39)         -178.9807         estimate D2E/DX2                !
 ! D61   D(9,8,17,18)          178.1572         estimate D2E/DX2                !
 ! D62   D(9,8,17,39)           -1.6526         estimate D2E/DX2                !
 ! D63   D(8,9,10,11)           69.4975         estimate D2E/DX2                !
 ! D64   D(8,9,10,33)         -169.424          estimate D2E/DX2                !
 ! D65   D(8,9,10,34)          -54.4066         estimate D2E/DX2                !
 ! D66   D(31,9,10,11)         -53.6086         estimate D2E/DX2                !
 ! D67   D(31,9,10,33)          67.4699         estimate D2E/DX2                !
 ! D68   D(31,9,10,34)        -177.5126         estimate D2E/DX2                !
 ! D69   D(32,9,10,11)        -167.2716         estimate D2E/DX2                !
 ! D70   D(32,9,10,33)         -46.1931         estimate D2E/DX2                !
 ! D71   D(32,9,10,34)          68.8244         estimate D2E/DX2                !
 ! D72   D(9,10,11,12)         -59.693          estimate D2E/DX2                !
 ! D73   D(9,10,11,16)         117.4183         estimate D2E/DX2                !
 ! D74   D(33,10,11,12)        179.4382         estimate D2E/DX2                !
 ! D75   D(33,10,11,16)         -3.4506         estimate D2E/DX2                !
 ! D76   D(34,10,11,12)         65.1092         estimate D2E/DX2                !
 ! D77   D(34,10,11,16)       -117.7796         estimate D2E/DX2                !
 ! D78   D(10,11,12,6)          -7.7393         estimate D2E/DX2                !
 ! D79   D(10,11,12,13)        178.6056         estimate D2E/DX2                !
 ! D80   D(16,11,12,6)         175.1048         estimate D2E/DX2                !
 ! D81   D(16,11,12,13)          1.4498         estimate D2E/DX2                !
 ! D82   D(10,11,16,15)       -177.8794         estimate D2E/DX2                !
 ! D83   D(10,11,16,38)          1.8381         estimate D2E/DX2                !
 ! D84   D(12,11,16,15)         -0.7681         estimate D2E/DX2                !
 ! D85   D(12,11,16,38)        178.9494         estimate D2E/DX2                !
 ! D86   D(6,12,13,14)        -175.451          estimate D2E/DX2                !
 ! D87   D(6,12,13,35)           4.5294         estimate D2E/DX2                !
 ! D88   D(11,12,13,14)         -1.4663         estimate D2E/DX2                !
 ! D89   D(11,12,13,35)        178.514          estimate D2E/DX2                !
 ! D90   D(12,13,14,15)          0.7638         estimate D2E/DX2                !
 ! D91   D(12,13,14,36)       -179.5986         estimate D2E/DX2                !
 ! D92   D(35,13,14,15)       -179.2165         estimate D2E/DX2                !
 ! D93   D(35,13,14,36)          0.4211         estimate D2E/DX2                !
 ! D94   D(13,14,15,16)         -0.0413         estimate D2E/DX2                !
 ! D95   D(13,14,15,37)        179.9814         estimate D2E/DX2                !
 ! D96   D(36,14,15,16)       -179.6779         estimate D2E/DX2                !
 ! D97   D(36,14,15,37)          0.3448         estimate D2E/DX2                !
 ! D98   D(14,15,16,11)          0.0538         estimate D2E/DX2                !
 ! D99   D(14,15,16,38)       -179.6666         estimate D2E/DX2                !
 ! D100  D(37,15,16,11)       -179.9688         estimate D2E/DX2                !
 ! D101  D(37,15,16,38)          0.3107         estimate D2E/DX2                !
 ! D102  D(8,17,18,19)          -0.6415         estimate D2E/DX2                !
 ! D103  D(8,17,18,40)         179.8717         estimate D2E/DX2                !
 ! D104  D(39,17,18,19)        179.1709         estimate D2E/DX2                !
 ! D105  D(39,17,18,40)         -0.3159         estimate D2E/DX2                !
 ! D106  D(17,18,19,20)          0.1602         estimate D2E/DX2                !
 ! D107  D(17,18,19,41)       -179.4457         estimate D2E/DX2                !
 ! D108  D(40,18,19,20)        179.6471         estimate D2E/DX2                !
 ! D109  D(40,18,19,41)          0.0411         estimate D2E/DX2                !
 ! D110  D(18,19,20,7)           0.1147         estimate D2E/DX2                !
 ! D111  D(18,19,20,42)       -178.5739         estimate D2E/DX2                !
 ! D112  D(41,19,20,7)         179.7218         estimate D2E/DX2                !
 ! D113  D(41,19,20,42)          1.0332         estimate D2E/DX2                !
 --------------------------------------------------------------------------------
 Trust Radius=3.00D-01 FncErr=1.00D-07 GrdErr=1.00D-06 EigMax=2.50D+02 EigMin=1.00D-04
 Number of steps in this run=    245 maximum allowed number of steps=    252.
 GradGradGradGradGradGradGradGradGradGradGradGradGradGradGradGradGradGrad

                          Input orientation:                          
 ---------------------------------------------------------------------
 Center     Atomic      Atomic             Coordinates (Angstroms)
 Number     Number       Type             X           Y           Z
 ---------------------------------------------------------------------
      1          6           0        0.792000   -2.392200    4.494400
      2          7           0       -0.440900   -2.691200    3.773100
      3          6           0       -0.409500   -2.278900    2.372700
      4          6           0        0.530400   -3.163500    1.535400
      5          6           0        0.438500   -2.943600    0.010100
      6          7           0        0.630600   -1.535500   -0.404600
      7          6           0        1.981600   -1.227100   -0.659700
      8          6           0        2.587300   -1.144400   -1.943500
      9          6           0        1.829000   -1.295100   -3.263900
     10          6           0        0.522800   -2.096400   -3.277200
     11          6           0       -0.604800   -1.397300   -2.540600
     12          6           0       -0.454000   -1.089400   -1.173700
     13          6           0       -1.490000   -0.418600   -0.515600
     14          6           0       -2.644400   -0.026900   -1.190600
     15          6           0       -2.783300   -0.319400   -2.543500
     16          6           0       -1.768400   -0.999900   -3.212400
     17          6           0        3.956400   -0.849400   -2.029000
     18          6           0        4.734100   -0.653900   -0.892700
     19          6           0        4.148200   -0.737600    0.362400
     20          6           0        2.789800   -1.019600    0.467300
     21          1           0        0.675100   -2.640000    5.550500
     22          1           0        1.051600   -1.333900    4.428900
     23          1           0        1.629800   -2.982500    4.120600
     24          1           0       -1.259900   -2.331100    4.248200
     25          1           0       -1.418800   -2.369700    1.966800
     26          1           0       -0.145800   -1.223600    2.277400
     27          1           0        1.565400   -3.095900    1.863100
     28          1           0        0.264900   -4.204300    1.724800
     29          1           0        1.181200   -3.576700   -0.481700
     30          1           0       -0.525500   -3.334600   -0.327800
     31          1           0        1.628600   -0.290800   -3.640800
     32          1           0        2.504200   -1.746400   -3.992600
     33          1           0        0.223700   -2.259700   -4.313400
     34          1           0        0.666200   -3.096500   -2.866500
     35          1           0       -1.390500   -0.201700    0.536300
     36          1           0       -3.428500    0.495800   -0.662700
     37          1           0       -3.675600   -0.019400   -3.074300
     38          1           0       -1.887000   -1.215800   -4.264400
     39          1           0        4.429500   -0.766400   -2.997100
     40          1           0        5.787200   -0.429800   -0.986900
     41          1           0        4.738800   -0.579100    1.252700
     42          1           0        2.344300   -1.058300    1.448900
 ---------------------------------------------------------------------
                    Distance matrix (angstroms):
                    1          2          3          4          5
     1  C    0.000000
     2  N    1.459355   0.000000
     3  C    2.440912   1.460170   0.000000
     4  C    3.069042   2.484712   1.538506   0.000000
     5  C    4.531882   3.872624   2.596692   1.543808   0.000000
     6  N    4.975961   4.465079   3.057425   2.534566   1.480413
     7  C    5.416397   5.259450   4.002386   3.267123   2.403365
     8  C    6.799019   6.651474   5.375638   4.517781   3.416287
     9  C    7.903810   7.524687   6.144103   5.311362   3.920474
    10  C    7.781885   7.140675   5.729211   4.929491   3.395761
    11  C    7.241001   6.447003   4.995586   4.584966   3.159998
    12  C    5.947870   5.199689   3.740835   3.551078   2.374025
    13  C    5.848309   4.965709   3.601454   3.977825   3.220419
    14  C    7.051433   6.049151   4.771099   5.229598   4.410566
    15  C    8.161575   7.142248   5.800309   5.975528   4.877222
    16  C    8.239473   7.308896   5.888615   5.701513   4.362669
    17  C    7.412719   7.509517   6.362351   5.458707   4.573754
    18  C    6.898020   7.259539   6.305560   5.464875   4.950753
    19  C    5.574514   6.042290   5.214359   4.511031   4.330407
    20  C    4.700295   4.915281   3.930891   3.292724   3.072364
    21  H    1.091063   2.099340   3.377153   4.051669   5.553754
    22  H    1.091642   2.121295   2.693659   3.462864   4.742660
    23  H    1.090912   2.119767   2.776500   2.815084   4.279827
    24  H    2.067521   1.012992   2.059953   3.355197   4.606649
    25  H    3.358110   2.079031   1.091644   2.148396   2.758188
    26  H    2.675852   2.116141   1.091915   2.184267   2.905246
    27  H    2.831445   2.799486   2.197137   1.087742   2.174099
    28  H    3.351451   2.642567   2.140503   1.090700   2.135345
    29  H    5.129921   4.638819   3.515994   2.159390   1.092834
    30  H    5.086997   4.151927   2.901837   2.148421   1.093779
    31  H    8.443771   8.062919   6.653463   6.020921   4.667200
    32  H    8.682042   8.358969   7.020701   6.038447   4.660688
    33  H    8.827109   8.125230   6.716044   5.926161   4.382523
    34  H    7.395587   6.743458   5.410621   4.404504   2.889646
    35  H    5.022763   4.192401   2.941001   3.668830   3.337685
    36  H    7.262840   6.225676   5.101664   5.821942   5.218795
    37  H    9.103562   8.030485   6.741110   6.987498   5.915259
    38  H    9.234584   8.298760   6.882171   6.578377   5.163777
    39  H    8.485117   8.559279   7.385007   6.441477   5.450829
    40  H    7.671225   8.158478   7.287330   6.439647   5.993479
    41  H    5.419703   6.135363   5.536128   4.946683   5.062361
    42  H    3.669332   3.978141   3.150664   2.780213   3.042462
                    6          7          8          9         10
     6  N    0.000000
     7  C    1.409038   0.000000
     8  C    2.519890   1.421919   0.000000
     9  C    3.109590   2.609553   1.530093   0.000000
    10  C    2.928833   3.120110   2.635758   1.532455   0.000000
    11  C    2.471398   3.202533   3.257298   2.541061   1.517499
    12  C    1.402454   2.493051   3.137694   3.102150   2.528418
    13  C    2.399319   3.567414   4.380646   4.397404   3.806943
    14  C    3.690433   4.808556   5.402439   5.090993   4.320635
    15  C    4.208148   5.203546   5.466623   4.769096   3.824440
    16  C    3.731730   4.542070   4.539065   3.609859   2.540887
    17  C    3.764353   2.432586   1.403129   2.499891   3.860391
    18  C    4.225420   2.821188   2.439984   3.804383   5.049920
    19  C    3.687607   2.445088   2.814084   4.340455   5.313808
    20  C    2.385059   1.402274   2.422507   3.862757   4.507779
    21  H    6.056824   6.501524   7.877396   8.990767   8.845733
    22  H    4.855987   5.173988   6.557573   7.732078   7.761766
    23  H    4.854858   5.104553   6.408489   7.577456   7.532468
    24  H    5.084832   5.984448   7.385550   8.188177   7.737231
    25  H    3.243373   4.445982   5.730676   6.250055   5.598575
    26  H    2.809484   3.626624   5.029126   5.883107   5.662366
    27  H    2.907088   3.167042   4.398049   5.440450   5.339354
    28  H    3.433741   4.182896   5.311587   5.983058   5.434129
    29  H    2.115562   2.488563   3.167027   3.655951   3.231037
    30  H    2.139913   3.292000   4.134850   4.280644   3.366160
    31  H    3.608084   3.144555   2.128043   1.091253   2.148299
    32  H    4.053221   3.413357   2.137316   1.091133   2.135473
    33  H    3.996092   4.184017   3.528020   2.146833   1.090797
    34  H    2.915294   3.177247   2.890199   2.180613   1.090614
    35  H    2.597915   3.721951   4.781316   5.099238   4.668339
    36  H    4.546327   5.677814   6.365576   6.133096   5.400730
    37  H    5.288593   6.268392   6.462836   5.653670   4.688460
    38  H    4.619369   5.287727   5.040936   3.849149   2.749028
    39  H    4.663069   3.415830   2.155611   2.667078   4.136383
    40  H    5.305862   3.901966   3.415420   4.647668   5.978038
    41  H    4.531959   3.417503   3.894125   5.420265   6.371566
    42  H    2.569037   2.146215   3.402182   4.746798   5.170255
                   11         12         13         14         15
    11  C    0.000000
    12  C    1.409240   0.000000
    13  C    2.417035   1.398701   0.000000
    14  C    2.803652   2.434552   1.393447   0.000000
    15  C    2.430584   2.809785   2.407248   1.391110   0.000000
    16  C    1.401145   2.427335   2.772751   2.408688   1.393029
    17  C    4.622388   4.498974   5.669148   6.704475   6.780057
    18  C    5.636672   5.213924   6.239951   7.411082   7.703787
    19  C    5.608353   4.864526   5.715063   7.004022   7.527605
    20  C    4.551201   3.635931   4.432153   5.767548   6.372962
    21  H    8.285430   6.992431   6.813211   7.955489   9.102667
    22  H    7.163910   5.806525   5.634322   6.851821   8.021847
    23  H    7.202630   5.996304   6.148259   7.430559   8.424831
    24  H    6.883963   5.620346   5.138520   6.066854   7.245335
    25  H    4.682394   3.526010   3.158191   4.118250   5.138910
    26  H    4.842931   3.467432   3.202460   4.438707   5.569117
    27  H    5.194958   4.162472   4.707613   6.038730   6.785151
    28  H    5.179697   4.315173   4.736094   5.866366   6.527048
    29  H    3.489792   3.056044   4.136430   5.266767   5.529763
    30  H    2.942092   2.400330   3.077107   4.021821   4.370174
    31  H    2.724492   3.325893   4.416885   4.932712   4.546399
    32  H    3.449066   4.138695   5.459507   6.108680   5.665146
    33  H    2.138449   3.418566   4.555184   4.792001   3.992413
    34  H    2.146842   2.854623   4.164982   4.815720   4.440232
    35  H    3.393243   2.142229   1.078629   2.141262   3.382146
    36  H    3.883763   3.409051   2.148383   1.080142   2.149010
    37  H    3.407823   3.890487   3.388680   2.147500   1.080716
    38  H    2.156030   3.409090   3.853134   3.381625   2.137378
    39  H    5.094173   5.222805   6.428008   7.338281   7.240859
    40  H    6.648887   6.278737   7.292454   8.443678   8.711410
    41  H    6.603986   5.754389   6.476928   7.796556   8.429743
    42  H    4.972748   3.835294   4.355495   5.737410   6.540452
                   16         17         18         19         20
    16  C    0.000000
    17  C    5.847771   0.000000
    18  C    6.912542   1.390761   0.000000
    19  C    6.917670   2.401683   1.387646   0.000000
    20  C    5.858137   2.760695   2.400758   1.391323   0.000000
    21  H    9.243865   8.451154   7.869873   6.526709   5.739040
    22  H    8.151897   7.097681   6.507122   5.145962   4.337557
    23  H    8.321740   6.912363   6.339734   5.050345   4.306411
    24  H    7.595474   8.295087   8.072787   6.847352   5.693444
    25  H    5.368676   6.868079   6.998492   6.019081   4.667289
    26  H    5.728942   5.959291   5.847009   4.726717   3.454826
    27  H    6.424028   5.090392   4.857824   3.805855   2.785397
    28  H    6.227233   6.242879   6.279363   5.380907   4.254261
    29  H    4.774595   4.187366   4.618959   4.192384   3.166537
    30  H    3.913635   5.399790   5.930317   5.391128   4.120998
    31  H    3.496564   2.885929   4.162694   4.751171   4.330822
    32  H    4.406936   2.601772   3.971825   4.763028   4.527749
    33  H    2.601492   4.597878   5.884173   6.291390   5.565771
    34  H    3.231510   4.071398   5.139065   5.302313   4.465133
    35  H    3.851322   5.965704   6.305335   5.567282   4.260121
    36  H    3.390283   7.629750   8.246378   7.744578   6.499276
    37  H    2.148922   7.747837   8.711201   8.575463   7.439404
    38  H    1.080455   6.267103   7.451380   7.619685   6.655820
    39  H    6.206033   1.080708   2.129304   3.371379   3.841197
    40  H    7.897149   2.147991   1.080793   2.145151   3.383337
    41  H    7.903027   3.384489   2.146709   1.080076   2.146973
    42  H    6.216545   3.839049   3.370130   2.130114   1.078660
                   21         22         23         24         25
    21  H    0.000000
    22  H    1.762281   0.000000
    23  H    1.753104   1.774048   0.000000
    24  H    2.352792   2.523904   2.964957   0.000000
    25  H    4.159373   3.638364   3.782637   2.287253   0.000000
    26  H    3.659679   2.464728   3.105458   2.520283   1.740847
    27  H    3.820654   3.154673   2.261264   3.775704   3.073039
    28  H    4.153466   4.021225   3.015892   3.493056   2.501833
    29  H    6.125437   5.400087   4.662133   5.466484   3.769881
    30  H    6.039729   5.395947   4.955558   4.741954   2.644656
    31  H    9.534563   8.157269   8.214900   8.645379   6.712202
    32  H    9.757812   8.555809   8.253274   9.078607   7.161905
    33  H    9.881544   8.830081   8.580904   8.689486   6.492366
    34  H    8.429375   7.515195   7.054154   7.410442   5.313779
    35  H    5.945941   4.732659   5.449979   4.281308   2.597567
    36  H    8.079395   7.024492   7.782347   6.067218   4.377700
    37  H   10.009161   8.965062   9.417739   8.049756   6.002478
    38  H   10.243289   9.177297   9.262685   8.608223   6.354412
    39  H    9.521941   8.177881   7.963107   9.344085   7.836676
    40  H    8.588140   7.250806   7.063059   8.982362   8.025833
    41  H    6.263549   4.924775   4.864881   6.930146   6.452304
    42  H    4.702247   3.259974   3.369130   4.737759   4.018571
                   26         27         28         29         30
    26  H    0.000000
    27  H    2.570089   0.000000
    28  H    3.059185   1.714345   0.000000
    29  H    3.861430   2.424225   2.470249   0.000000
    30  H    3.374546   3.037908   2.365222   1.730642   0.000000
    31  H    6.248496   6.177823   6.779736   4.580089   4.988069
    32  H    6.827058   6.082082   6.613955   4.174535   5.013205
    33  H    6.681967   6.375621   6.343739   4.163318   4.195440
    34  H    5.534149   4.814320   4.740074   2.486582   2.814576
    35  H    2.371705   4.344437   4.491513   4.363552   3.363028
    36  H    4.730396   6.649738   6.436793   6.153645   4.817835
    37  H    6.523057   7.830125   7.488143   6.554728   5.334505
    38  H    6.769563   7.280117   7.030812   5.412626   4.673309
    39  H    6.997339   6.103375   7.173520   4.977597   6.186505
    40  H    6.818083   5.749277   7.217753   5.601200   6.980147
    41  H    5.032366   4.096015   5.777606   4.964904   6.148464
    42  H    2.629512   2.220374   3.781183   3.379698   4.071112
                   31         32         33         34         35
    31  H    0.000000
    32  H    1.734707   0.000000
    33  H    2.510518   2.359464   0.000000
    34  H    3.065568   2.543446   1.729034   0.000000
    35  H    5.154713   6.169742   5.510045   4.918224   0.000000
    36  H    5.921324   7.163283   5.853115   5.876046   2.465269
    37  H    5.341266   6.481954   4.664639   5.325688   4.276839
    38  H    3.688353   4.431484   2.355246   3.465543   4.931697
    39  H    2.913003   2.378697   4.653100   4.428188   6.831998
    40  H    4.935226   4.641741   6.735478   6.071971   7.341086
    41  H    5.805412   5.819725   7.361523   6.315947   6.182554
    42  H    5.196761   5.487164   6.256549   5.058948   3.938951
                   36         37         38         39         40
    36  H    0.000000
    37  H    2.478367   0.000000
    38  H    4.275282   2.459024   0.000000
    39  H    8.294018   8.139817   6.458032   0.000000
    40  H    9.267738   9.698982   8.381715   2.448990   0.000000
    41  H    8.457479   9.478308   8.645519   4.265155   2.477346
    42  H    6.340292   7.601174   7.111294   4.919368   4.264000
                   41         42
    41  H    0.000000
    42  H    2.449848   0.000000
 Stoichiometry    C18H22N2
 Framework group  C1[X(C18H22N2)]
 Deg. of freedom   120
 Full point group                 C1      NOp   1
 Largest Abelian subgroup         C1      NOp   1
 Largest concise Abelian subgroup C1      NOp   1
                         Standard orientation:                         
 ---------------------------------------------------------------------
 Center     Atomic      Atomic             Coordinates (Angstroms)
 Number     Number       Type             X           Y           Z
 ---------------------------------------------------------------------
      1          6           0       -4.953768   -0.543968   -0.200959
      2          7           0       -4.165442   -1.690000    0.240483
      3          6           0       -2.724234   -1.472586    0.152454
      4          6           0       -2.229632   -0.471363    1.210717
      5          6           0       -0.694461   -0.368211    1.337014
      6          7           0       -0.006860   -0.074354    0.059330
      7          6           0        0.135997    1.308270   -0.171599
      8          6           0        1.318557    2.068721    0.040814
      9          6           0        2.658545    1.472046    0.476242
     10          6           0        2.660635    0.148135    1.248039
     11          6           0        2.246316   -1.033918    0.391363
     12          6           0        0.973407   -1.039560   -0.213310
     13          6           0        0.617085   -2.122245   -1.023983
     14          6           0        1.503227   -3.170197   -1.265318
     15          6           0        2.764486   -3.153883   -0.678678
     16          6           0        3.131794   -2.091171    0.143671
     17          6           0        1.292154    3.448108   -0.214855
     18          6           0        0.137611    4.088160   -0.652551
     19          6           0       -1.019939    3.350811   -0.857381
     20          6           0       -1.010785    1.980157   -0.618625
     21          1           0       -6.014832   -0.798023   -0.196965
     22          1           0       -4.689690   -0.238863   -1.215284
     23          1           0       -4.829344    0.310472    0.465779
     24          1           0       -4.441063   -2.546773   -0.224411
     25          1           0       -2.223352   -2.427521    0.322455
     26          1           0       -2.432526   -1.159891   -0.852238
     27          1           0       -2.663294    0.517733    1.081070
     28          1           0       -2.608898   -0.796779    2.180196
     29          1           0       -0.453287    0.404698    2.070999
     30          1           0       -0.331411   -1.297756    1.784781
     31          1           0        3.270347    1.356876   -0.420009
     32          1           0        3.177541    2.213714    1.085456
     33          1           0        3.664588   -0.028235    1.636382
     34          1           0        2.024331    0.202805    2.132102
     35          1           0       -0.364807   -2.143752   -1.469928
     36          1           0        1.208028   -3.992706   -1.900175
     37          1           0        3.457579   -3.962902   -0.860496
     38          1           0        4.116434   -2.088559    0.588487
     39          1           0        2.186389    4.038543   -0.074638
     40          1           0        0.144176    5.152535   -0.840104
     41          1           0       -1.920972    3.833915   -1.205682
     42          1           0       -1.911800    1.417109   -0.804783
 ---------------------------------------------------------------------
 Rotational constants (GHZ):           0.3743311           0.3147766           0.1911525
 Standard basis: 6-31G(d,p) (6D, 7F)
 There are   410 symmetry adapted cartesian basis functions of A   symmetry.
 There are   410 symmetry adapted basis functions of A   symmetry.
   410 basis functions,   714 primitive gaussians,   410 cartesian basis functions
    72 alpha electrons       72 beta electrons
       nuclear repulsion energy      1539.0294002882 Hartrees.
 NAtoms=   42 NActive=   42 NUniq=   42 SFac= 1.00D+00 NAtFMM=   60 NAOKFM=F Big=F
 Integral buffers will be    131072 words long.
 Raffenetti 2 integral format.
 Two-electron integral symmetry is turned on.
 Nuclear repulsion after empirical dispersion term =     1538.9365666322 Hartrees.
 One-electron integrals computed using PRISM.
 NBasis=   410 RedAO= T EigKep=  3.65D-04  NBF=   410
 NBsUse=   410 1.00D-06 EigRej= -1.00D+00 NBFU=   410
 ExpMin= 1.61D-01 ExpMax= 4.17D+03 ExpMxC= 6.27D+02 IAcc=3 IRadAn=         5 AccDes= 0.00D+00
 Harris functional with IExCor=  402 and IRadAn=       5 diagonalized for initial guess.
 HarFok:  IExCor=  402 AccDes= 0.00D+00 IRadAn=         5 IDoV= 1 UseB2=F ITyADJ=14
 ICtDFT=  3500011 ScaDFX=  1.000000  1.000000  1.000000  1.000000
 FoFCou: FMM=F IPFlag=           0 FMFlag=      100000 FMFlg1=           0
         NFxFlg=           0 DoJE=T BraDBF=F KetDBF=T FulRan=T
         wScrn=  0.000000 ICntrl=       500 IOpCl=  0 I1Cent=   200000004 NGrid=           0
         NMat0=    1 NMatS0=      1 NMatT0=    0 NMatD0=    1 NMtDS0=    0 NMtDT0=    0
 Petite list used in FoFCou.
 Requested convergence on RMS density matrix=1.00D-08 within 128 cycles.
 Requested convergence on MAX density matrix=1.00D-06.
 Requested convergence on             energy=1.00D-06.
 No special actions if energy rises.
 Integral accuracy reduced to 1.0D-05 until final iterations.
 Initial convergence to 1.0D-05 achieved.  Increase integral accuracy.
 SCF Done:  E(RB3LYP) =  -808.764001101     A.U. after   14 cycles
            NFock= 14  Conv=0.55D-08     -V/T= 2.0096

 **********************************************************************

            Population analysis using the SCF Density.

 **********************************************************************

 Orbital symmetries:
       Occupied  (A) (A) (A) (A) (A) (A) (A) (A) (A) (A) (A) (A)
                 (A) (A) (A) (A) (A) (A) (A) (A) (A) (A) (A) (A)
                 (A) (A) (A) (A) (A) (A) (A) (A) (A) (A) (A) (A)
                 (A) (A) (A) (A) (A) (A) (A) (A) (A) (A) (A) (A)
                 (A) (A) (A) (A) (A) (A) (A) (A) (A) (A) (A) (A)
                 (A) (A) (A) (A) (A) (A) (A) (A) (A) (A) (A) (A)
       Virtual   (A) (A) (A) (A) (A) (A) (A) (A) (A) (A) (A) (A)
                 (A) (A) (A) (A) (A) (A) (A) (A) (A) (A) (A) (A)
                 (A) (A) (A) (A) (A) (A) (A) (A) (A) (A) (A) (A)
                 (A) (A) (A) (A) (A) (A) (A) (A) (A) (A) (A) (A)
                 (A) (A) (A) (A) (A) (A) (A) (A) (A) (A) (A) (A)
                 (A) (A) (A) (A) (A) (A) (A) (A) (A) (A) (A) (A)
                 (A) (A) (A) (A) (A) (A) (A) (A) (A) (A) (A) (A)
                 (A) (A) (A) (A) (A) (A) (A) (A) (A) (A) (A) (A)
                 (A) (A) (A) (A) (A) (A) (A) (A) (A) (A) (A) (A)
                 (A) (A) (A) (A) (A) (A) (A) (A) (A) (A) (A) (A)
                 (A) (A) (A) (A) (A) (A) (A) (A) (A) (A) (A) (A)
                 (A) (A) (A) (A) (A) (A) (A) (A) (A) (A) (A) (A)
                 (A) (A) (A) (A) (A) (A) (A) (A) (A) (A) (A) (A)
                 (A) (A) (A) (A) (A) (A) (A) (A) (A) (A) (A) (A)
                 (A) (A) (A) (A) (A) (A) (A) (A) (A) (A) (A) (A)
                 (A) (A) (A) (A) (A) (A) (A) (A) (A) (A) (A) (A)
                 (A) (A) (A) (A) (A) (A) (A) (A) (A) (A) (A) (A)
                 (A) (A) (A) (A) (A) (A) (A) (A) (A) (A) (A) (A)
                 (A) (A) (A) (A) (A) (A) (A) (A) (A) (A) (A) (A)
                 (A) (A) (A) (A) (A) (A) (A) (A) (A) (A) (A) (A)
                 (A) (A) (A) (A) (A) (A) (A) (A) (A) (A) (A) (A)
                 (A) (A) (A) (A) (A) (A) (A) (A) (A) (A) (A) (A)
                 (A) (A) (A) (A) (A) (A) (A) (A) (A) (A) (A) (A)
                 (A) (A) (A) (A) (A) (A) (A) (A) (A) (A) (A) (A)
                 (A) (A) (A) (A) (A) (A) (A) (A) (A) (A) (A) (A)
                 (A) (A) (A) (A) (A) (A) (A) (A) (A) (A) (A) (A)
                 (A) (A) (A) (A) (A) (A) (A) (A) (A) (A) (A) (A)
                 (A) (A) (A) (A) (A) (A) (A) (A) (A) (A) (A) (A)
                 (A) (A)
 The electronic state is 1-A.
 Alpha  occ. eigenvalues --  -14.32825 -14.30767 -10.21571 -10.21178 -10.20859
 Alpha  occ. eigenvalues --  -10.19696 -10.19469 -10.19249 -10.18978 -10.18856
 Alpha  occ. eigenvalues --  -10.18803 -10.18401 -10.18343 -10.18268 -10.18048
 Alpha  occ. eigenvalues --  -10.17936 -10.17918 -10.17858 -10.17637 -10.17073
 Alpha  occ. eigenvalues --   -0.94423  -0.88948  -0.84933  -0.83784  -0.79387
 Alpha  occ. eigenvalues --   -0.76173  -0.75002  -0.74761  -0.72083  -0.69905
 Alpha  occ. eigenvalues --   -0.67699  -0.64565  -0.63446  -0.60370  -0.59672
 Alpha  occ. eigenvalues --   -0.58007  -0.57453  -0.55537  -0.51402  -0.49690
 Alpha  occ. eigenvalues --   -0.48752  -0.47490  -0.46854  -0.46529  -0.45308
 Alpha  occ. eigenvalues --   -0.44722  -0.43419  -0.43142  -0.42589  -0.42004
 Alpha  occ. eigenvalues --   -0.41103  -0.40685  -0.39701  -0.38633  -0.38174
 Alpha  occ. eigenvalues --   -0.38048  -0.36802  -0.35967  -0.35045  -0.34707
 Alpha  occ. eigenvalues --   -0.34418  -0.34129  -0.33533  -0.32441  -0.32220
 Alpha  occ. eigenvalues --   -0.32003  -0.25329  -0.24257  -0.23731  -0.23280
 Alpha  occ. eigenvalues --   -0.21144  -0.19873
 Alpha virt. eigenvalues --   -0.00211   0.00197   0.00779   0.00907   0.08268
 Alpha virt. eigenvalues --    0.09689   0.10311   0.10529   0.11103   0.12122
 Alpha virt. eigenvalues --    0.13337   0.13958   0.14199   0.14669   0.15641
 Alpha virt. eigenvalues --    0.16204   0.16713   0.17048   0.17248   0.18003
 Alpha virt. eigenvalues --    0.18220   0.18411   0.18710   0.19653   0.19701
 Alpha virt. eigenvalues --    0.20353   0.20663   0.22448   0.23187   0.23656
 Alpha virt. eigenvalues --    0.25221   0.25970   0.26148   0.26702   0.27861
 Alpha virt. eigenvalues --    0.28385   0.29462   0.29926   0.31653   0.32846
 Alpha virt. eigenvalues --    0.33912   0.34247   0.35605   0.36956   0.38289
 Alpha virt. eigenvalues --    0.42239   0.47792   0.49588   0.50071   0.50389
 Alpha virt. eigenvalues --    0.51220   0.52144   0.52880   0.53076   0.53759
 Alpha virt. eigenvalues --    0.54495   0.54628   0.55346   0.56439   0.57040
 Alpha virt. eigenvalues --    0.57742   0.57825   0.58018   0.59199   0.59772
 Alpha virt. eigenvalues --    0.60317   0.61149   0.61290   0.61733   0.61911
 Alpha virt. eigenvalues --    0.62390   0.62755   0.63394   0.63951   0.64408
 Alpha virt. eigenvalues --    0.66077   0.66787   0.67257   0.67988   0.69102
 Alpha virt. eigenvalues --    0.69912   0.70512   0.73206   0.73922   0.74659
 Alpha virt. eigenvalues --    0.75376   0.77570   0.78096   0.78741   0.79146
 Alpha virt. eigenvalues --    0.81315   0.81704   0.82147   0.82847   0.83148
 Alpha virt. eigenvalues --    0.83255   0.83829   0.84625   0.84850   0.85517
 Alpha virt. eigenvalues --    0.86636   0.86878   0.87278   0.89105   0.89576
 Alpha virt. eigenvalues --    0.90134   0.90898   0.91004   0.91833   0.92489
 Alpha virt. eigenvalues --    0.93299   0.95098   0.95609   0.95898   0.96925
 Alpha virt. eigenvalues --    0.97022   0.98760   0.99100   1.00637   1.02107
 Alpha virt. eigenvalues --    1.03030   1.04911   1.05884   1.06958   1.07224
 Alpha virt. eigenvalues --    1.07440   1.09240   1.10428   1.12267   1.14056
 Alpha virt. eigenvalues --    1.15010   1.17236   1.18251   1.19460   1.20049
 Alpha virt. eigenvalues --    1.22212   1.22481   1.25067   1.28152   1.29054
 Alpha virt. eigenvalues --    1.30895   1.33618   1.35198   1.35397   1.36141
 Alpha virt. eigenvalues --    1.36580   1.37040   1.39288   1.41026   1.41904
 Alpha virt. eigenvalues --    1.42570   1.42667   1.43329   1.45703   1.46974
 Alpha virt. eigenvalues --    1.49010   1.49299   1.53259   1.55181   1.58745
 Alpha virt. eigenvalues --    1.61611   1.62025   1.64279   1.67548   1.69060
 Alpha virt. eigenvalues --    1.71258   1.71647   1.74448   1.76608   1.77054
 Alpha virt. eigenvalues --    1.77568   1.78861   1.80171   1.82112   1.82464
 Alpha virt. eigenvalues --    1.83378   1.84643   1.85787   1.86862   1.87700
 Alpha virt. eigenvalues --    1.88047   1.88603   1.89248   1.90457   1.92202
 Alpha virt. eigenvalues --    1.93124   1.93872   1.94213   1.94693   1.96246
 Alpha virt. eigenvalues --    1.96747   1.97901   1.98697   1.99612   2.00523
 Alpha virt. eigenvalues --    2.00840   2.00916   2.01826   2.02763   2.03930
 Alpha virt. eigenvalues --    2.05459   2.06080   2.06946   2.09009   2.09149
 Alpha virt. eigenvalues --    2.09651   2.11603   2.11908   2.14031   2.14890
 Alpha virt. eigenvalues --    2.15719   2.17068   2.17900   2.19397   2.21220
 Alpha virt. eigenvalues --    2.22736   2.23489   2.25662   2.26081   2.27210
 Alpha virt. eigenvalues --    2.27748   2.29050   2.29484   2.30630   2.31620
 Alpha virt. eigenvalues --    2.32173   2.32746   2.33532   2.36151   2.36727
 Alpha virt. eigenvalues --    2.38832   2.38914   2.39628   2.41042   2.41941
 Alpha virt. eigenvalues --    2.42733   2.43506   2.44746   2.45293   2.46206
 Alpha virt. eigenvalues --    2.46922   2.47361   2.48168   2.48936   2.50931
 Alpha virt. eigenvalues --    2.52077   2.52380   2.53511   2.55489   2.56764
 Alpha virt. eigenvalues --    2.57738   2.58601   2.59454   2.60342   2.60546
 Alpha virt. eigenvalues --    2.61287   2.62259   2.62790   2.65809   2.66430
 Alpha virt. eigenvalues --    2.66683   2.68401   2.69060   2.70063   2.71014
 Alpha virt. eigenvalues --    2.72973   2.73965   2.74454   2.74865   2.76421
 Alpha virt. eigenvalues --    2.77870   2.79205   2.80880   2.81390   2.81893
 Alpha virt. eigenvalues --    2.83989   2.84757   2.86868   2.88046   2.89456
 Alpha virt. eigenvalues --    2.90286   2.91968   2.92163   2.93930   2.98187
 Alpha virt. eigenvalues --    2.99528   3.01792   3.02434   3.05985   3.07340
 Alpha virt. eigenvalues --    3.08632   3.13801   3.20795   3.22651   3.23203
 Alpha virt. eigenvalues --    3.25867   3.26312   3.28224   3.30303   3.31258
 Alpha virt. eigenvalues --    3.33287   3.35304   3.36289   3.37836   3.38916
 Alpha virt. eigenvalues --    3.39703   3.42012   3.45222   3.45328   3.47881
 Alpha virt. eigenvalues --    3.49778   3.50458   3.51279   3.54354   3.55749
 Alpha virt. eigenvalues --    3.59965   3.86554   3.87656   4.07952   4.14204
 Alpha virt. eigenvalues --    4.14512   4.16831   4.17433   4.21220   4.24163
 Alpha virt. eigenvalues --    4.30605   4.36537   4.42795   4.45829   4.47469
 Alpha virt. eigenvalues --    4.49406   4.51273   4.56765   4.59635   4.66980
 Alpha virt. eigenvalues --    4.76641   4.85974   4.88753
          Condensed to atoms (all electrons):
               1          2          3          4          5          6
     1  C    4.791652   0.327620  -0.053365  -0.005193   0.000096  -0.000013
     2  N    0.327620   6.785455   0.317709  -0.059149   0.002881   0.000132
     3  C   -0.053365   0.317709   4.805884   0.363569  -0.034432  -0.002852
     4  C   -0.005193  -0.059149   0.363569   5.014913   0.361552  -0.063109
     5  C    0.000096   0.002881  -0.034432   0.361552   4.866067   0.287418
     6  N   -0.000013   0.000132  -0.002852  -0.063109   0.287418   7.202974
     7  C    0.000009   0.000002  -0.000200  -0.004226  -0.038689   0.271262
     8  C    0.000000   0.000000  -0.000008  -0.000371  -0.004210  -0.073393
     9  C   -0.000000  -0.000000  -0.000000  -0.000021   0.000372  -0.014830
    10  C    0.000000   0.000000  -0.000003   0.000149  -0.000835  -0.003666
    11  C    0.000000   0.000000   0.000055  -0.000331  -0.006533  -0.081701
    12  C   -0.000001   0.000025  -0.000441   0.001932  -0.044561   0.277740
    13  C   -0.000000   0.000046  -0.001260   0.000696  -0.003956  -0.083701
    14  C   -0.000000  -0.000000  -0.000007  -0.000034  -0.000237   0.006792
    15  C   -0.000000  -0.000000  -0.000000  -0.000000   0.000050   0.000022
    16  C    0.000000  -0.000000  -0.000002   0.000014   0.000115   0.007160
    17  C   -0.000000   0.000000  -0.000000   0.000024  -0.000025   0.007359
    18  C    0.000000  -0.000000   0.000000  -0.000001   0.000046  -0.000008
    19  C   -0.000003   0.000000   0.000022  -0.000141  -0.000105   0.006426
    20  C   -0.000165   0.000047  -0.000540  -0.001900  -0.004675  -0.079734
    21  H    0.386150  -0.030650   0.005094   0.000173  -0.000003   0.000000
    22  H    0.369538  -0.057614  -0.005883  -0.001974   0.000057  -0.000015
    23  H    0.394342  -0.041973  -0.004307   0.004340  -0.000212   0.000015
    24  H   -0.039621   0.346416  -0.036487   0.005815  -0.000182   0.000008
    25  H    0.005948  -0.033259   0.381079  -0.035639  -0.001919  -0.000541
    26  H   -0.008494  -0.055382   0.378216  -0.055795  -0.001718   0.007798
    27  H    0.001835  -0.002336  -0.038758   0.380207  -0.031803  -0.002619
    28  H   -0.000452   0.005616  -0.035155   0.356476  -0.028988   0.004622
    29  H    0.000002  -0.000076   0.004589  -0.045286   0.363946  -0.045868
    30  H    0.000001   0.000037  -0.004461  -0.044113   0.378661  -0.038340
    31  H    0.000000   0.000000  -0.000000   0.000000  -0.000045   0.000232
    32  H   -0.000000   0.000000  -0.000000  -0.000000   0.000057  -0.000040
    33  H   -0.000000  -0.000000   0.000000  -0.000001  -0.000038   0.000089
    34  H    0.000000  -0.000000   0.000000  -0.000059   0.001949  -0.000064
    35  H   -0.000003  -0.000091   0.001068  -0.000920   0.000179  -0.005098
    36  H    0.000000   0.000000  -0.000001   0.000000   0.000002  -0.000155
    37  H    0.000000  -0.000000   0.000000  -0.000000   0.000000   0.000005
    38  H   -0.000000   0.000000   0.000000  -0.000000  -0.000005  -0.000134
    39  H   -0.000000   0.000000  -0.000000  -0.000000  -0.000002  -0.000109
    40  H    0.000000  -0.000000   0.000000   0.000000   0.000000   0.000005
    41  H   -0.000001   0.000000  -0.000001   0.000007   0.000001  -0.000153
    42  H    0.000548  -0.000247   0.000249  -0.000946  -0.001433  -0.005700
               7          8          9         10         11         12
     1  C    0.000009   0.000000  -0.000000   0.000000   0.000000  -0.000001
     2  N    0.000002   0.000000  -0.000000   0.000000   0.000000   0.000025
     3  C   -0.000200  -0.000008  -0.000000  -0.000003   0.000055  -0.000441
     4  C   -0.004226  -0.000371  -0.000021   0.000149  -0.000331   0.001932
     5  C   -0.038689  -0.004210   0.000372  -0.000835  -0.006533  -0.044561
     6  N    0.271262  -0.073393  -0.014830  -0.003666  -0.081701   0.277740
     7  C    4.716203   0.511197  -0.055963  -0.001777  -0.005419  -0.017603
     8  C    0.511197   4.838922   0.359515  -0.029396  -0.005855  -0.002276
     9  C   -0.055963   0.359515   5.044454   0.337397  -0.038876  -0.000506
    10  C   -0.001777  -0.029396   0.337397   5.056316   0.358011  -0.066505
    11  C   -0.005419  -0.005855  -0.038876   0.358011   4.840940   0.498621
    12  C   -0.017603  -0.002276  -0.000506  -0.066505   0.498621   4.740488
    13  C    0.004268  -0.000012   0.000037   0.008658  -0.061605   0.533161
    14  C   -0.000161   0.000003   0.000024  -0.000110  -0.033205  -0.022746
    15  C    0.000023   0.000007  -0.000144   0.007293  -0.028892  -0.043673
    16  C   -0.000096  -0.000108  -0.001655  -0.059058   0.517013  -0.008143
    17  C   -0.000996   0.489637  -0.064785   0.003631   0.000059  -0.000416
    18  C   -0.042897  -0.025551   0.006695  -0.000174  -0.000001   0.000037
    19  C   -0.023584  -0.035246  -0.000101   0.000004   0.000008  -0.000150
    20  C    0.515005  -0.053188   0.007899  -0.000130  -0.000039   0.003880
    21  H   -0.000000  -0.000000  -0.000000  -0.000000  -0.000000   0.000000
    22  H    0.000000   0.000000  -0.000000   0.000000  -0.000000  -0.000001
    23  H    0.000008   0.000000   0.000000  -0.000000   0.000000   0.000000
    24  H    0.000001   0.000000   0.000000  -0.000000   0.000000  -0.000000
    25  H   -0.000022   0.000001  -0.000000  -0.000001   0.000008   0.000437
    26  H    0.000167   0.000020   0.000000   0.000000   0.000031  -0.000711
    27  H    0.001434   0.000010  -0.000002  -0.000001  -0.000010   0.000092
    28  H    0.000207   0.000018   0.000000  -0.000000   0.000016  -0.000152
    29  H    0.000304   0.005599   0.000460  -0.002538   0.002641  -0.000639
    30  H    0.003313   0.000263  -0.000049  -0.000038   0.001749   0.003225
    31  H   -0.002264  -0.034331   0.372504  -0.040368  -0.002444  -0.000476
    32  H    0.003836  -0.032678   0.363909  -0.032831   0.004742   0.000231
    33  H    0.000201   0.003689  -0.026597   0.362932  -0.031603   0.005784
    34  H   -0.000277  -0.003011  -0.039785   0.365377  -0.026350  -0.009115
    35  H    0.000240   0.000026   0.000002  -0.000183   0.005839  -0.034603
    36  H    0.000000   0.000000  -0.000000   0.000009   0.000972   0.003697
    37  H   -0.000000   0.000000   0.000001  -0.000177   0.003853   0.001080
    38  H   -0.000003   0.000001   0.000306  -0.010866  -0.036622   0.004453
    39  H    0.004028  -0.044040  -0.009667   0.000182  -0.000004  -0.000000
    40  H    0.001025   0.003944  -0.000169   0.000001   0.000000  -0.000000
    41  H    0.003861   0.000975   0.000008  -0.000000  -0.000000   0.000001
    42  H   -0.035029   0.005316  -0.000149   0.000002  -0.000001   0.000190
              13         14         15         16         17         18
     1  C   -0.000000  -0.000000  -0.000000   0.000000  -0.000000   0.000000
     2  N    0.000046  -0.000000  -0.000000  -0.000000   0.000000  -0.000000
     3  C   -0.001260  -0.000007  -0.000000  -0.000002  -0.000000   0.000000
     4  C    0.000696  -0.000034  -0.000000   0.000014   0.000024  -0.000001
     5  C   -0.003956  -0.000237   0.000050   0.000115  -0.000025   0.000046
     6  N   -0.083701   0.006792   0.000022   0.007160   0.007359  -0.000008
     7  C    0.004268  -0.000161   0.000023  -0.000096  -0.000996  -0.042897
     8  C   -0.000012   0.000003   0.000007  -0.000108   0.489637  -0.025551
     9  C    0.000037   0.000024  -0.000144  -0.001655  -0.064785   0.006695
    10  C    0.008658  -0.000110   0.007293  -0.059058   0.003631  -0.000174
    11  C   -0.061605  -0.033205  -0.028892   0.517013   0.000059  -0.000001
    12  C    0.533161  -0.022746  -0.043673  -0.008143  -0.000416   0.000037
    13  C    4.942176   0.499309  -0.029391  -0.053203  -0.000006   0.000001
    14  C    0.499309   4.853365   0.543298  -0.032629  -0.000000   0.000000
    15  C   -0.029391   0.543298   4.833206   0.512594  -0.000000   0.000000
    16  C   -0.053203  -0.032629   0.512594   4.938257   0.000005  -0.000000
    17  C   -0.000006  -0.000000  -0.000000   0.000005   4.956668   0.515132
    18  C    0.000001   0.000000   0.000000  -0.000000   0.515132   4.828568
    19  C   -0.000007   0.000000   0.000000  -0.000000  -0.031526   0.542728
    20  C   -0.000236  -0.000003  -0.000000   0.000006  -0.053863  -0.030983
    21  H    0.000000  -0.000000   0.000000  -0.000000   0.000000  -0.000000
    22  H   -0.000002   0.000000   0.000000  -0.000000  -0.000000   0.000000
    23  H   -0.000000  -0.000000  -0.000000  -0.000000  -0.000000   0.000000
    24  H    0.000006   0.000000  -0.000000   0.000000  -0.000000   0.000000
    25  H    0.001125   0.000049   0.000001  -0.000005   0.000000  -0.000000
    26  H   -0.002642   0.000080   0.000001  -0.000002  -0.000001   0.000001
    27  H   -0.000023  -0.000000   0.000000  -0.000000  -0.000004  -0.000023
    28  H   -0.000067   0.000001   0.000000  -0.000000  -0.000001   0.000000
    29  H   -0.000055   0.000028  -0.000004  -0.000034  -0.000401  -0.000041
    30  H    0.000359  -0.000087  -0.000009  -0.000413   0.000003  -0.000001
    31  H   -0.000150  -0.000004  -0.000078   0.001693  -0.003541  -0.000199
    32  H    0.000007  -0.000000   0.000003  -0.000082  -0.006741   0.000277
    33  H   -0.000196   0.000004   0.000203  -0.007390  -0.000156   0.000002
    34  H   -0.000218   0.000054  -0.000286   0.002217   0.000211  -0.000003
    35  H    0.357297  -0.044774   0.004966   0.000611  -0.000000  -0.000000
    36  H   -0.035005   0.363572  -0.041848   0.004552   0.000000  -0.000000
    37  H    0.004350  -0.041500   0.365242  -0.037482   0.000000  -0.000000
    38  H    0.000488   0.005001  -0.045484   0.361260  -0.000000  -0.000000
    39  H    0.000000   0.000000  -0.000000  -0.000000   0.365815  -0.043756
    40  H   -0.000000   0.000000  -0.000000  -0.000000  -0.037932   0.365330
    41  H    0.000000  -0.000000  -0.000000   0.000000   0.004647  -0.041896
    42  H    0.000036   0.000001   0.000000  -0.000000   0.000611   0.005056
              19         20         21         22         23         24
     1  C   -0.000003  -0.000165   0.386150   0.369538   0.394342  -0.039621
     2  N    0.000000   0.000047  -0.030650  -0.057614  -0.041973   0.346416
     3  C    0.000022  -0.000540   0.005094  -0.005883  -0.004307  -0.036487
     4  C   -0.000141  -0.001900   0.000173  -0.001974   0.004340   0.005815
     5  C   -0.000105  -0.004675  -0.000003   0.000057  -0.000212  -0.000182
     6  N    0.006426  -0.079734   0.000000  -0.000015   0.000015   0.000008
     7  C   -0.023584   0.515005  -0.000000   0.000000   0.000008   0.000001
     8  C   -0.035246  -0.053188  -0.000000   0.000000   0.000000   0.000000
     9  C   -0.000101   0.007899  -0.000000  -0.000000   0.000000   0.000000
    10  C    0.000004  -0.000130  -0.000000   0.000000  -0.000000  -0.000000
    11  C    0.000008  -0.000039  -0.000000  -0.000000   0.000000   0.000000
    12  C   -0.000150   0.003880   0.000000  -0.000001   0.000000  -0.000000
    13  C   -0.000007  -0.000236   0.000000  -0.000002  -0.000000   0.000006
    14  C    0.000000  -0.000003  -0.000000   0.000000  -0.000000   0.000000
    15  C    0.000000  -0.000000   0.000000   0.000000  -0.000000  -0.000000
    16  C   -0.000000   0.000006  -0.000000  -0.000000  -0.000000   0.000000
    17  C   -0.031526  -0.053863   0.000000  -0.000000  -0.000000  -0.000000
    18  C    0.542728  -0.030983  -0.000000   0.000000   0.000000   0.000000
    19  C    4.840989   0.513976   0.000000   0.000001  -0.000004  -0.000000
    20  C    0.513976   4.941186   0.000003  -0.000239  -0.000058  -0.000002
    21  H    0.000000   0.000003   0.609498  -0.039173  -0.028108  -0.004743
    22  H    0.000001  -0.000239  -0.039173   0.692968  -0.051486  -0.003270
    23  H   -0.000004  -0.000058  -0.028108  -0.051486   0.606907   0.005810
    24  H   -0.000000  -0.000002  -0.004743  -0.003270   0.005810   0.498397
    25  H    0.000000   0.000017  -0.000258  -0.000171   0.000025  -0.006153
    26  H    0.000002  -0.000962  -0.000079   0.014957  -0.001752  -0.001285
    27  H    0.000414   0.004243  -0.000087  -0.000136   0.001550  -0.000093
    28  H   -0.000000  -0.000051  -0.000053   0.000278  -0.000072   0.000049
    29  H    0.000066  -0.000003  -0.000000  -0.000002   0.000017   0.000004
    30  H    0.000010   0.000070   0.000000   0.000000  -0.000002  -0.000005
    31  H    0.000056  -0.000205   0.000000  -0.000000   0.000000  -0.000000
    32  H    0.000018  -0.000191   0.000000   0.000000   0.000000  -0.000000
    33  H   -0.000000   0.000004  -0.000000  -0.000000   0.000000   0.000000
    34  H   -0.000007  -0.000065   0.000000  -0.000000   0.000000   0.000000
    35  H    0.000002   0.000015  -0.000000   0.000012  -0.000001  -0.000016
    36  H   -0.000000  -0.000000  -0.000000   0.000000  -0.000000  -0.000000
    37  H   -0.000000  -0.000000  -0.000000   0.000000  -0.000000  -0.000000
    38  H    0.000000  -0.000000   0.000000  -0.000000   0.000000   0.000000
    39  H    0.005274   0.000517   0.000000  -0.000000   0.000000  -0.000000
    40  H   -0.042192   0.004569  -0.000000   0.000000   0.000000   0.000000
    41  H    0.363134  -0.035424   0.000000  -0.000001  -0.000001  -0.000000
    42  H   -0.043590   0.359760  -0.000014   0.001078   0.000085   0.000007
              25         26         27         28         29         30
     1  C    0.005948  -0.008494   0.001835  -0.000452   0.000002   0.000001
     2  N   -0.033259  -0.055382  -0.002336   0.005616  -0.000076   0.000037
     3  C    0.381079   0.378216  -0.038758  -0.035155   0.004589  -0.004461
     4  C   -0.035639  -0.055795   0.380207   0.356476  -0.045286  -0.044113
     5  C   -0.001919  -0.001718  -0.031803  -0.028988   0.363946   0.378661
     6  N   -0.000541   0.007798  -0.002619   0.004622  -0.045868  -0.038340
     7  C   -0.000022   0.000167   0.001434   0.000207   0.000304   0.003313
     8  C    0.000001   0.000020   0.000010   0.000018   0.005599   0.000263
     9  C   -0.000000   0.000000  -0.000002   0.000000   0.000460  -0.000049
    10  C   -0.000001   0.000000  -0.000001  -0.000000  -0.002538  -0.000038
    11  C    0.000008   0.000031  -0.000010   0.000016   0.002641   0.001749
    12  C    0.000437  -0.000711   0.000092  -0.000152  -0.000639   0.003225
    13  C    0.001125  -0.002642  -0.000023  -0.000067  -0.000055   0.000359
    14  C    0.000049   0.000080  -0.000000   0.000001   0.000028  -0.000087
    15  C    0.000001   0.000001   0.000000   0.000000  -0.000004  -0.000009
    16  C   -0.000005  -0.000002  -0.000000  -0.000000  -0.000034  -0.000413
    17  C    0.000000  -0.000001  -0.000004  -0.000001  -0.000401   0.000003
    18  C   -0.000000   0.000001  -0.000023   0.000000  -0.000041  -0.000001
    19  C    0.000000   0.000002   0.000414  -0.000000   0.000066   0.000010
    20  C    0.000017  -0.000962   0.004243  -0.000051  -0.000003   0.000070
    21  H   -0.000258  -0.000079  -0.000087  -0.000053  -0.000000   0.000000
    22  H   -0.000171   0.014957  -0.000136   0.000278  -0.000002   0.000000
    23  H    0.000025  -0.001752   0.001550  -0.000072   0.000017  -0.000002
    24  H   -0.006153  -0.001285  -0.000093   0.000049   0.000004  -0.000005
    25  H    0.643928  -0.049083   0.005769  -0.006328   0.000035   0.004181
    26  H   -0.049083   0.679054  -0.007034   0.007178  -0.000015  -0.000189
    27  H    0.005769  -0.007034   0.630862  -0.040028  -0.006549   0.005839
    28  H   -0.006328   0.007178  -0.040028   0.640445   0.001572  -0.005260
    29  H    0.000035  -0.000015  -0.006549   0.001572   0.654999  -0.033062
    30  H    0.004181  -0.000189   0.005839  -0.005260  -0.033062   0.616092
    31  H    0.000000   0.000000  -0.000000   0.000000   0.000023   0.000006
    32  H    0.000000   0.000000   0.000000   0.000000  -0.000041  -0.000005
    33  H   -0.000000  -0.000000  -0.000000  -0.000000  -0.000001   0.000001
    34  H    0.000001   0.000000   0.000002   0.000004   0.002946   0.000636
    35  H    0.001234   0.005768   0.000015   0.000043  -0.000008   0.000288
    36  H    0.000001  -0.000006   0.000000  -0.000000  -0.000000   0.000001
    37  H   -0.000000   0.000000   0.000000   0.000000   0.000000  -0.000000
    38  H    0.000000   0.000000  -0.000000   0.000000   0.000001   0.000010
    39  H    0.000000   0.000000  -0.000000   0.000000   0.000007  -0.000000
    40  H   -0.000000   0.000000  -0.000000  -0.000000  -0.000000   0.000000
    41  H    0.000000  -0.000002   0.000007  -0.000000  -0.000004  -0.000000
    42  H   -0.000096   0.003520  -0.000235   0.000231   0.000473  -0.000042
              31         32         33         34         35         36
     1  C    0.000000  -0.000000  -0.000000   0.000000  -0.000003   0.000000
     2  N    0.000000   0.000000  -0.000000  -0.000000  -0.000091   0.000000
     3  C   -0.000000  -0.000000   0.000000   0.000000   0.001068  -0.000001
     4  C    0.000000  -0.000000  -0.000001  -0.000059  -0.000920   0.000000
     5  C   -0.000045   0.000057  -0.000038   0.001949   0.000179   0.000002
     6  N    0.000232  -0.000040   0.000089  -0.000064  -0.005098  -0.000155
     7  C   -0.002264   0.003836   0.000201  -0.000277   0.000240   0.000000
     8  C   -0.034331  -0.032678   0.003689  -0.003011   0.000026   0.000000
     9  C    0.372504   0.363909  -0.026597  -0.039785   0.000002  -0.000000
    10  C   -0.040368  -0.032831   0.362932   0.365377  -0.000183   0.000009
    11  C   -0.002444   0.004742  -0.031603  -0.026350   0.005839   0.000972
    12  C   -0.000476   0.000231   0.005784  -0.009115  -0.034603   0.003697
    13  C   -0.000150   0.000007  -0.000196  -0.000218   0.357297  -0.035005
    14  C   -0.000004  -0.000000   0.000004   0.000054  -0.044774   0.363572
    15  C   -0.000078   0.000003   0.000203  -0.000286   0.004966  -0.041848
    16  C    0.001693  -0.000082  -0.007390   0.002217   0.000611   0.004552
    17  C   -0.003541  -0.006741  -0.000156   0.000211  -0.000000   0.000000
    18  C   -0.000199   0.000277   0.000002  -0.000003  -0.000000  -0.000000
    19  C    0.000056   0.000018  -0.000000  -0.000007   0.000002  -0.000000
    20  C   -0.000205  -0.000191   0.000004  -0.000065   0.000015  -0.000000
    21  H    0.000000   0.000000  -0.000000   0.000000  -0.000000  -0.000000
    22  H   -0.000000   0.000000  -0.000000  -0.000000   0.000012   0.000000
    23  H    0.000000   0.000000   0.000000   0.000000  -0.000001  -0.000000
    24  H   -0.000000  -0.000000   0.000000   0.000000  -0.000016  -0.000000
    25  H    0.000000   0.000000  -0.000000   0.000001   0.001234   0.000001
    26  H    0.000000   0.000000  -0.000000   0.000000   0.005768  -0.000006
    27  H   -0.000000   0.000000  -0.000000   0.000002   0.000015   0.000000
    28  H    0.000000   0.000000  -0.000000   0.000004   0.000043  -0.000000
    29  H    0.000023  -0.000041  -0.000001   0.002946  -0.000008  -0.000000
    30  H    0.000006  -0.000005   0.000001   0.000636   0.000288   0.000001
    31  H    0.617537  -0.036000  -0.003024   0.006208   0.000000  -0.000000
    32  H   -0.036000   0.635783  -0.005588  -0.002563  -0.000000   0.000000
    33  H   -0.003024  -0.005588   0.635149  -0.036752   0.000003  -0.000000
    34  H    0.006208  -0.002563  -0.036752   0.626785  -0.000001  -0.000000
    35  H    0.000000  -0.000000   0.000003  -0.000001   0.630749  -0.006438
    36  H   -0.000000   0.000000  -0.000000  -0.000000  -0.006438   0.634972
    37  H    0.000001  -0.000000  -0.000011   0.000003  -0.000203  -0.005971
    38  H    0.000108  -0.000023   0.006727   0.000256   0.000019  -0.000228
    39  H    0.001298   0.005174  -0.000013   0.000014   0.000000  -0.000000
    40  H    0.000002  -0.000011  -0.000000   0.000000   0.000000   0.000000
    41  H   -0.000000  -0.000000   0.000000  -0.000000  -0.000000  -0.000000
    42  H    0.000004   0.000003  -0.000000   0.000004   0.000045  -0.000000
              37         38         39         40         41         42
     1  C    0.000000  -0.000000  -0.000000   0.000000  -0.000001   0.000548
     2  N   -0.000000   0.000000   0.000000  -0.000000   0.000000  -0.000247
     3  C    0.000000   0.000000  -0.000000   0.000000  -0.000001   0.000249
     4  C   -0.000000  -0.000000  -0.000000   0.000000   0.000007  -0.000946
     5  C    0.000000  -0.000005  -0.000002   0.000000   0.000001  -0.001433
     6  N    0.000005  -0.000134  -0.000109   0.000005  -0.000153  -0.005700
     7  C   -0.000000  -0.000003   0.004028   0.001025   0.003861  -0.035029
     8  C    0.000000   0.000001  -0.044040   0.003944   0.000975   0.005316
     9  C    0.000001   0.000306  -0.009667  -0.000169   0.000008  -0.000149
    10  C   -0.000177  -0.010866   0.000182   0.000001  -0.000000   0.000002
    11  C    0.003853  -0.036622  -0.000004   0.000000  -0.000000  -0.000001
    12  C    0.001080   0.004453  -0.000000  -0.000000   0.000001   0.000190
    13  C    0.004350   0.000488   0.000000  -0.000000   0.000000   0.000036
    14  C   -0.041500   0.005001   0.000000   0.000000  -0.000000   0.000001
    15  C    0.365242  -0.045484  -0.000000  -0.000000  -0.000000   0.000000
    16  C   -0.037482   0.361260  -0.000000  -0.000000   0.000000  -0.000000
    17  C    0.000000  -0.000000   0.365815  -0.037932   0.004647   0.000611
    18  C   -0.000000  -0.000000  -0.043756   0.365330  -0.041896   0.005056
    19  C   -0.000000   0.000000   0.005274  -0.042192   0.363134  -0.043590
    20  C   -0.000000  -0.000000   0.000517   0.004569  -0.035424   0.359760
    21  H   -0.000000   0.000000   0.000000  -0.000000   0.000000  -0.000014
    22  H    0.000000  -0.000000  -0.000000   0.000000  -0.000001   0.001078
    23  H   -0.000000   0.000000   0.000000   0.000000  -0.000001   0.000085
    24  H   -0.000000   0.000000  -0.000000   0.000000  -0.000000   0.000007
    25  H   -0.000000   0.000000   0.000000  -0.000000   0.000000  -0.000096
    26  H    0.000000   0.000000   0.000000   0.000000  -0.000002   0.003520
    27  H    0.000000  -0.000000  -0.000000  -0.000000   0.000007  -0.000235
    28  H    0.000000   0.000000   0.000000  -0.000000  -0.000000   0.000231
[...]
    32  H    0.000064  -0.000008  -0.000006   0.000583  -0.007832   0.000263
    33  H   -0.000675   0.000180   0.000200  -0.001570  -0.000079  -0.000025
    34  H    0.001800   0.000040   0.000000  -0.002253  -0.001076  -0.000032
    35  H    0.391279  -0.017216   0.002433  -0.000065  -0.000058   0.000006
    36  H   -0.028549   0.402754  -0.035008   0.003975   0.000001  -0.000000
    37  H    0.005314  -0.035567   0.412419  -0.037456  -0.000000   0.000000
    38  H   -0.000527   0.004096  -0.034103   0.397442  -0.000007  -0.000000
    39  H    0.000011  -0.000000   0.000001  -0.000014   0.398355  -0.033138
    40  H    0.000001   0.000000  -0.000000  -0.000000  -0.042212   0.417993
    41  H   -0.000017  -0.000000  -0.000000   0.000000   0.005270  -0.034513
    42  H    0.001431   0.000005   0.000019  -0.000068  -0.000473   0.002023
              19         20         21         22         23         24
     1  C    0.001402   0.001512   0.406310   0.414276   0.416409  -0.043942
     2  N   -0.000003  -0.000546  -0.028310  -0.077036  -0.034517   0.369993
     3  C   -0.001350   0.001026   0.005690   0.034303  -0.034148  -0.065449
     4  C    0.006396  -0.012283   0.001616  -0.024517   0.026279   0.019264
     5  C   -0.005450   0.007304  -0.000068   0.004302  -0.005652  -0.002855
     6  N    0.010572  -0.049136  -0.000009  -0.000322   0.000293   0.000164
     7  C    0.004926   0.286111   0.000035  -0.000074  -0.000272  -0.000064
     8  C   -0.112603   0.073232   0.000000   0.000138  -0.000223  -0.000007
     9  C   -0.004650   0.024630  -0.000000   0.000000   0.000000   0.000000
    10  C   -0.000499  -0.003191  -0.000000   0.000001  -0.000000   0.000000
    11  C    0.001220   0.002465  -0.000000  -0.000010   0.000006   0.000003
    12  C   -0.001815   0.007140  -0.000001  -0.000111   0.000040   0.000026
    13  C   -0.000772   0.010746   0.000001   0.000044  -0.000017  -0.000013
    14  C   -0.000024  -0.000403   0.000000   0.000007  -0.000001  -0.000004
    15  C    0.000006   0.000204  -0.000000  -0.000000   0.000000   0.000000
    16  C    0.000038  -0.001020   0.000000   0.000000  -0.000000  -0.000000
    17  C    0.028134  -0.168974   0.000000  -0.000029   0.000044   0.000000
    18  C    0.462951   0.013399  -0.000000   0.000107  -0.000151  -0.000001
    19  C    5.001947   0.418837  -0.000029  -0.000090   0.000959   0.000018
    20  C    0.418837   5.233787   0.000018  -0.000631  -0.000251  -0.000022
    21  H   -0.000029   0.000018   0.519383  -0.031657  -0.013562  -0.007644
    22  H   -0.000090  -0.000631  -0.031657   0.615457  -0.063373  -0.010270
    23  H    0.000959  -0.000251  -0.013562  -0.063373   0.560627   0.010364
    24  H    0.000018  -0.000022  -0.007644  -0.010270   0.010364   0.537822
    25  H    0.000006   0.000152  -0.000239   0.000829  -0.000698  -0.012898
    26  H   -0.000513  -0.002390   0.000113   0.009740  -0.002441  -0.002821
    27  H    0.001360  -0.016409   0.000059   0.002470  -0.008658  -0.000788
    28  H   -0.000059   0.001905  -0.000098   0.000438  -0.000154  -0.000048
    29  H    0.000122   0.013475  -0.000001  -0.000060   0.000168   0.000052
    30  H    0.000133  -0.002440   0.000003  -0.000009  -0.000013  -0.000018
    31  H    0.000380  -0.000342  -0.000000  -0.000000  -0.000000   0.000000
    32  H    0.000296  -0.000478   0.000000  -0.000000   0.000000   0.000000
    33  H    0.000006  -0.000026  -0.000000   0.000000  -0.000000   0.000000
    34  H   -0.000027   0.000858  -0.000000   0.000000  -0.000001  -0.000000
    35  H    0.000052   0.001194  -0.000004   0.000194  -0.000009   0.000023
    36  H   -0.000000  -0.000012   0.000000  -0.000000  -0.000000  -0.000000
    37  H   -0.000000   0.000001  -0.000000  -0.000000   0.000000   0.000000
    38  H    0.000000   0.000004   0.000000  -0.000000  -0.000000   0.000000
    39  H    0.004309   0.000554   0.000000  -0.000000   0.000000   0.000000
    40  H   -0.040755   0.008365  -0.000000   0.000001  -0.000002  -0.000000
    41  H    0.403011  -0.031190  -0.000006   0.000048   0.000120   0.000000
    42  H   -0.008658   0.409886   0.000211  -0.001865  -0.000771   0.000116
              25         26         27         28         29         30
     1  C    0.010545  -0.023274   0.002670  -0.000509  -0.000007   0.000048
     2  N   -0.020850  -0.063309  -0.000178   0.005491  -0.000207   0.000036
     3  C    0.395087   0.525540  -0.057940  -0.020716   0.008078  -0.013940
     4  C   -0.033444  -0.161408   0.425938   0.396863  -0.043069  -0.027258
     5  C    0.002991   0.030519  -0.032084  -0.033393   0.390759   0.424544
     6  N   -0.000355   0.003239  -0.008085   0.006433  -0.059023  -0.044559
     7  C   -0.000010  -0.000260   0.012925  -0.001190   0.011564   0.004086
     8  C    0.000025   0.001160   0.000994   0.000054  -0.006585   0.001596
     9  C   -0.000004   0.000010  -0.000100   0.000025   0.006393  -0.000338
    10  C    0.000009  -0.000018   0.000003  -0.000073  -0.008111  -0.001464
    11  C    0.000298  -0.000493   0.000052  -0.000094   0.002080   0.000455
    12  C    0.000587  -0.003537   0.000351  -0.000236   0.002814  -0.006036
    13  C   -0.000861   0.001733  -0.000131   0.000255   0.003196  -0.005989
    14  C    0.000049   0.000669   0.000015   0.000012   0.000052   0.001048
    15  C   -0.000003  -0.000033  -0.000004   0.000001   0.000111  -0.000560
    16  C   -0.000017   0.000032   0.000005  -0.000005  -0.001029   0.001211
    17  C    0.000000  -0.000106   0.000269  -0.000055  -0.002535   0.000135
    18  C   -0.000000   0.000136  -0.000330   0.000031  -0.000039  -0.000036
    19  C    0.000006  -0.000513   0.001360  -0.000059   0.000122   0.000133
    20  C    0.000152  -0.002390  -0.016409   0.001905   0.013475  -0.002440
    21  H   -0.000239   0.000113   0.000059  -0.000098  -0.000001   0.000003
    22  H    0.000829   0.009740   0.002470   0.000438  -0.000060  -0.000009
    23  H   -0.000698  -0.002441  -0.008658  -0.000154   0.000168  -0.000013
    24  H   -0.012898  -0.002821  -0.000788  -0.000048   0.000052  -0.000018
    25  H    0.534529  -0.022016   0.005238  -0.003585   0.000226   0.002184
    26  H   -0.022016   0.527118   0.003701   0.007050  -0.001124   0.000947
    27  H    0.005238   0.003701   0.520485  -0.013649  -0.004560   0.006181
    28  H   -0.003585   0.007050  -0.013649   0.511688  -0.004076  -0.002216
    29  H    0.000226  -0.001124  -0.004560  -0.004076   0.567089  -0.021766
    30  H    0.002184   0.000947   0.006181  -0.002216  -0.021766   0.499003
    31  H    0.000000  -0.000000   0.000002  -0.000000   0.000055   0.000029
    32  H    0.000000  -0.000000  -0.000003   0.000001   0.000001  -0.000033
    33  H   -0.000000   0.000000  -0.000001   0.000000   0.000023  -0.000069
    34  H    0.000010   0.000032   0.000059   0.000055  -0.000404   0.000012
    35  H   -0.000055   0.003845   0.000041   0.000077   0.000078   0.000175
    36  H    0.000001   0.000000   0.000000  -0.000000  -0.000005   0.000019
    37  H   -0.000000  -0.000000  -0.000000  -0.000000   0.000001  -0.000005
    38  H   -0.000000   0.000000   0.000000   0.000000   0.000022   0.000029
    39  H    0.000000  -0.000000  -0.000002   0.000000   0.000055  -0.000001
    40  H   -0.000000   0.000001   0.000004  -0.000000  -0.000001   0.000000
    41  H   -0.000000  -0.000007   0.000057  -0.000004  -0.000021  -0.000000
    42  H   -0.000010  -0.002583  -0.010997   0.000637   0.001297  -0.000524
              31         32         33         34         35         36
     1  C   -0.000000   0.000000   0.000000  -0.000000   0.000111  -0.000000
     2  N    0.000000  -0.000000  -0.000000   0.000000  -0.000362  -0.000000
     3  C   -0.000000   0.000000   0.000003   0.000062   0.002116  -0.000002
     4  C   -0.000006  -0.000007  -0.000031  -0.000900  -0.003441   0.000006
     5  C   -0.000351   0.000455   0.000318  -0.003964   0.001884   0.000089
     6  N   -0.001990   0.000427   0.000754  -0.012380   0.000869  -0.000393
     7  C   -0.001409   0.012421  -0.001645   0.002835  -0.000284  -0.000030
     8  C   -0.049794  -0.068020   0.013172  -0.005583   0.000114   0.000016
     9  C    0.426081   0.439995  -0.064869  -0.061019   0.000077  -0.000017
    10  C   -0.027532  -0.048335   0.449826   0.478420  -0.000114   0.000103
    11  C   -0.010415   0.012888  -0.054374  -0.073651   0.008301   0.000917
    12  C    0.002787  -0.001012   0.012014  -0.009945  -0.032412   0.006416
    13  C   -0.000129   0.000064  -0.000675   0.001800   0.391279  -0.028549
    14  C   -0.000043  -0.000008   0.000180   0.000040  -0.017216   0.402754
    15  C   -0.000007  -0.000006   0.000200   0.000000   0.002433  -0.035008
    16  C   -0.001632   0.000583  -0.001570  -0.002253  -0.000065   0.003975
    17  C   -0.012399  -0.007832  -0.000079  -0.001076  -0.000058   0.000001
    18  C   -0.000375   0.000263  -0.000025  -0.000032   0.000006  -0.000000
    19  C    0.000380   0.000296   0.000006  -0.000027   0.000052  -0.000000
    20  C   -0.000342  -0.000478  -0.000026   0.000858   0.001194  -0.000012
    21  H   -0.000000   0.000000  -0.000000  -0.000000  -0.000004   0.000000
    22  H   -0.000000  -0.000000   0.000000   0.000000   0.000194  -0.000000
    23  H   -0.000000   0.000000  -0.000000  -0.000001  -0.000009  -0.000000
    24  H    0.000000   0.000000   0.000000  -0.000000   0.000023  -0.000000
    25  H    0.000000   0.000000  -0.000000   0.000010  -0.000055   0.000001
    26  H   -0.000000  -0.000000   0.000000   0.000032   0.003845   0.000000
    27  H    0.000002  -0.000003  -0.000001   0.000059   0.000041   0.000000
    28  H   -0.000000   0.000001   0.000000   0.000055   0.000077  -0.000000
    29  H    0.000055   0.000001   0.000023  -0.000404   0.000078  -0.000005
    30  H    0.000029  -0.000033  -0.000069   0.000012   0.000175   0.000019
    31  H    0.527838  -0.029461  -0.000696   0.006594   0.000008  -0.000003
    32  H   -0.029461   0.538645  -0.007460  -0.000042  -0.000001   0.000000
    33  H   -0.000696  -0.007460   0.512684  -0.015591   0.000010  -0.000001
    34  H    0.006594  -0.000042  -0.015591   0.510531   0.000042  -0.000006
    35  H    0.000008  -0.000001   0.000010   0.000042   0.492337  -0.003158
    36  H   -0.000003   0.000000  -0.000001  -0.000006  -0.003158   0.515831
    37  H    0.000005  -0.000001  -0.000045   0.000010  -0.000258  -0.004065
    38  H    0.000398  -0.000060   0.003299   0.000217   0.000071  -0.000355
    39  H    0.000030   0.000847  -0.000024   0.000019   0.000000  -0.000000
    40  H   -0.000016  -0.000047  -0.000000  -0.000001  -0.000000   0.000000
    41  H   -0.000001  -0.000001   0.000000  -0.000000  -0.000002   0.000000
    42  H    0.000043  -0.000000  -0.000001   0.000029   0.000236  -0.000003
              37         38         39         40         41         42
     1  C   -0.000000  -0.000000   0.000000  -0.000001   0.000135  -0.003622
     2  N    0.000000   0.000000   0.000000  -0.000000  -0.000007   0.000245
     3  C    0.000000   0.000000  -0.000001   0.000001  -0.000022   0.005091
     4  C    0.000000  -0.000004   0.000014  -0.000007   0.000179  -0.008498
     5  C   -0.000007  -0.000018  -0.000061   0.000006   0.000065  -0.003607
     6  N    0.000024  -0.000480  -0.000453   0.000015  -0.000385   0.010924
     7  C    0.000004   0.000079   0.014500  -0.001895   0.009354  -0.068849
     8  C   -0.000004   0.000018  -0.043182   0.008852  -0.000299   0.000736
     9  C    0.000043  -0.000801  -0.001515  -0.000162   0.000034   0.000198
    10  C   -0.000212  -0.005649   0.000499   0.000026  -0.000001  -0.000023
    11  C    0.006399  -0.036584   0.000083  -0.000009  -0.000000   0.000068
    12  C   -0.000161   0.015107  -0.000019  -0.000006   0.000038  -0.000382
    13  C    0.005314  -0.000527   0.000011   0.000001  -0.000017   0.001431
    14  C   -0.035567   0.004096  -0.000000   0.000000  -0.000000   0.000005
    15  C    0.412419  -0.034103   0.000001  -0.000000  -0.000000   0.000019
    16  C   -0.037456   0.397442  -0.000014  -0.000000   0.000000  -0.000068
    17  C   -0.000000  -0.000007   0.398355  -0.042212   0.005270  -0.000473
    18  C    0.000000  -0.000000  -0.033138   0.417993  -0.034513   0.002023
    19  C   -0.000000   0.000000   0.004309  -0.040755   0.403011  -0.008658
    20  C    0.000001   0.000004   0.000554   0.008365  -0.031190   0.409886
    21  H   -0.000000   0.000000   0.000000  -0.000000  -0.000006   0.000211
    22  H   -0.000000  -0.000000  -0.000000   0.000001   0.000048  -0.001865
    23  H    0.000000  -0.000000   0.000000  -0.000002   0.000120  -0.000771
    24  H    0.000000   0.000000   0.000000  -0.000000   0.000000   0.000116
    25  H   -0.000000  -0.000000   0.000000  -0.000000  -0.000000  -0.000010
    26  H   -0.000000   0.000000  -0.000000   0.000001  -0.000007  -0.002583
    27  H   -0.000000   0.000000  -0.000002   0.000004   0.000057  -0.010997
    28  H   -0.000000   0.000000   0.000000  -0.000000  -0.000004   0.000637
    29  H    0.000001   0.000022   0.000055  -0.000001  -0.000021   0.001297
    30  H   -0.000005   0.000029  -0.000001   0.000000  -0.000000  -0.000524
    31  H    0.000005   0.000398   0.000030  -0.000016  -0.000001   0.000043
    32  H   -0.000001  -0.000060   0.000847  -0.000047  -0.000001  -0.000000
    33  H   -0.000045   0.003299  -0.000024  -0.000000   0.000000  -0.000001
    34  H    0.000010   0.000217   0.000019  -0.000001  -0.000000   0.000029
    35  H   -0.000258   0.000071   0.000000  -0.000000  -0.000002   0.000236
    36  H   -0.004065  -0.000355  -0.000000   0.000000   0.000000  -0.000003
    37  H    0.515811  -0.003639  -0.000000  -0.000000  -0.000000   0.000000
    38  H   -0.003639   0.525246   0.000000  -0.000000  -0.000000   0.000000
    39  H   -0.000000   0.000000   0.524310  -0.004402  -0.000380   0.000101
    40  H   -0.000000  -0.000000  -0.004402   0.518357  -0.003806  -0.000277
    41  H   -0.000000  -0.000000  -0.000380  -0.003806   0.517240  -0.004508
    42  H    0.000000   0.000000   0.000101  -0.000277  -0.004508   0.503581
 Mulliken charges:
               1
     1  C   -0.355500
     2  N   -0.336839
     3  C   -0.287795
     4  C   -0.279234
     5  C   -0.239844
     6  N   -0.215808
     7  C    0.146527
     8  C    0.055618
     9  C   -0.304960
    10  C   -0.452590
    11  C    0.079343
    12  C    0.108524
    13  C   -0.203353
    14  C   -0.138637
    15  C   -0.151792
    16  C   -0.134843
    17  C   -0.178002
    18  C   -0.149084
    19  C   -0.169782
    20  C   -0.227061
    21  H    0.148190
    22  H    0.127699
    23  H    0.149604
    24  H    0.208998
    25  H    0.142281
    26  H    0.170747
    27  H    0.171037
    28  H    0.149145
    29  H    0.144912
    30  H    0.185402
    31  H    0.172354
    32  H    0.155924
    33  H    0.154694
    34  H    0.185251
    35  H    0.151865
    36  H    0.141480
    37  H    0.141389
    38  H    0.136198
    39  H    0.139504
    40  H    0.139978
    41  H    0.139619
    42  H    0.178842
 Sum of Mulliken charges =   0.00000
 Mulliken charges with hydrogens summed into heavy atoms:
               1
     1  C    0.069992
     2  N   -0.127841
     3  C    0.025233
     4  C    0.040948
     5  C    0.090470
     6  N   -0.215808
     7  C    0.146527
     8  C    0.055618
     9  C    0.023318
    10  C   -0.112645
    11  C    0.079343
    12  C    0.108524
    13  C   -0.051488
    14  C    0.002843
    15  C   -0.010403
    16  C    0.001354
    17  C   -0.038498
    18  C   -0.009106
    19  C   -0.030164
    20  C   -0.048219
 Electronic spatial extent (au):  <R**2>=           5802.3169
 Charge=              0.0000 electrons
 Dipole moment (field-independent basis, Debye):
    X=              0.7939    Y=             -0.0820    Z=             -0.1095  Tot=              0.8056
 Quadrupole moment (field-independent basis, Debye-Ang):
   XX=           -114.8381   YY=           -114.3784   ZZ=           -122.5306
   XY=              1.1135   XZ=              8.2356   YZ=              4.6194
 Traceless Quadrupole moment (field-independent basis, Debye-Ang):
   XX=              2.4109   YY=              2.8707   ZZ=             -5.2816
   XY=              1.1135   XZ=              8.2356   YZ=              4.6194
 Octapole moment (field-independent basis, Debye-Ang**2):
  XXX=             17.3118  YYY=              3.7961  ZZZ=             10.7789  XYY=             -5.2016
  XXY=             -1.8086  XXZ=            -23.3711  XZZ=             -1.0702  YZZ=             -9.4821
  YYZ=            -21.3271  XYZ=              4.0638
 Hexadecapole moment (field-independent basis, Debye-Ang**3):
 XXXX=          -4183.6818 YYYY=          -2783.7064 ZZZZ=           -775.2997 XXXY=            -27.2072
 XXXZ=            149.9979 YYYX=             64.8471 YYYZ=             18.6108 ZZZX=              9.7130
 ZZZY=             22.7487 XXYY=          -1153.0085 XXZZ=           -882.3959 YYZZ=           -617.0264
 XXYZ=             77.4329 YYXZ=             24.2161 ZZXY=             -9.7232
 N-N= 1.542757885399D+03 E-N=-4.961346257865D+03  KE= 8.041028318247D+02
 Unable to Open any file for archive entry.
 1\1\GINC-NOTCH171\SP\RM062X\def2TZVP\C18H22N2\U6032257\23-Sep-2022\0\\
 # M062X/def2tzvp int=(grid=ultrafine) nmr=giao guess=read geom=check\\
 SecN5.xyz\\0,1\C,0,1.2164398481,-2.2216689502,4.3049128659\N,0,0.00186
 63623,-2.8879837248,3.8494736028\C,0,-0.3336254466,-2.5968088612,2.454
 2507048\C,0,0.5271549404,-3.4008049136,1.4795514242\C,0,0.2148943794,-
 3.102101749,0.0118539641\N,0,0.4365709346,-1.6985241424,-0.3853236643\
 C,0,1.7942755109,-1.2864510488,-0.56589298\C,0,2.4553112898,-1.2196734
 584,-1.8117891144\C,0,1.8387042929,-1.5122890824,-3.1705489811\C,0,0.4
 760344026,-2.2162593839,-3.2140512808\C,0,-0.6108179921,-1.3743937023,
 -2.6008707999\C,0,-0.5702557145,-1.1165946788,-1.2212065265\C,0,-1.544
 2817483,-0.30791693,-0.6325949062\C,0,-2.5626568415,0.2510026445,-1.40
 52561295\C,0,-2.6035166041,0.0042250531,-2.7769788021\C,0,-1.628771635
 3,-0.8012817606,-3.367244587\C,0,3.8003051508,-0.8163636078,-1.8230999
 029\C,0,4.4961763148,-0.5009967441,-0.6621789478\C,0,3.8367695771,-0.5
 629304253,0.5652628665\C,0,2.4995368832,-0.9381918422,0.5994482308\H,0
 ,1.3492864821,-2.3948296173,5.3767960813\H,0,1.2253528287,-1.129439682
 5,4.127783573\H,0,2.0902380981,-2.6419555926,3.797272936\H,0,-0.770364
 5174,-2.5904932016,4.4384722676\H,0,-1.3855097181,-2.8646555998,2.2960
 898628\H,0,-0.2409588524,-1.5226554605,2.212351084\H,0,1.5897397391,-3
 .2167676291,1.6657881812\H,0,0.362983437,-4.4693512812,1.6607148494\H,
 0,0.8011126812,-3.7881204965,-0.6194576197\H,0,-0.8415285782,-3.314267
 5461,-0.1824541238\H,0,1.741272087,-0.5612646012,-3.711977514\H,0,2.55
 97221537,-2.1084060286,-3.7426619508\H,0,0.2303935831,-2.4275371342,-4
 .2598204729\H,0,0.5435336041,-3.1843273927,-2.7064885529\H,0,-1.485616
 3358,-0.1269777423,0.4356380583\H,0,-3.316236436,0.8784289661,-0.93912
 89043\H,0,-3.3908084641,0.4366857192,-3.3869792142\H,0,-1.6598271944,-
 0.9943612541,-4.4365407858\H,0,4.3118784268,-0.7611479566,-2.781253005
 6\H,0,5.5389643117,-0.2038151901,-0.7161548084\H,0,4.352197474,-0.3031
 315259,1.484873018\H,0,1.9583612853,-0.9459024443,1.5378200045\\Versio
 n=ES64L-G16RevC.01\State=1-A\HF=-808.5880675\RMSD=2.814e-09\Dipole=-0.
 1277501,0.1124746,-0.267371\Quadrupole=1.6636862,-6.9457168,5.2820306,
 -1.0098195,-1.1895412,4.4355821\PG=C01 [X(C18H22N2)]\\@
 The archive entry for this job was punched.


 NO SCIENCE HAS EVER MADE MORE RAPID PROGRESS IN A
 SHORTER TIME THAN CHEMISTRY.
   -- MARTIN HEINRICH KLOPROTH, 1791
 (FIRST PROFESSOR OF CHEMISTRY AT THE UNIVERSITY OF BERLIN)
 Job cpu time:       0 days  3 hours 12 minutes 42.9 seconds.
 Elapsed time:       0 days  0 hours  3 minutes 33.5 seconds.
 File lengths (MBytes):  RWF=    318 Int=      0 D2E=      0 Chk=     53 Scr=      1
 Normal termination of Gaussian 16 at Fri Sep 23 16:33:27 2022.
