 Entering Gaussian System, Link 0=/uufs/chpc.utah.edu/sys/installdir/gaussian16/C01/AVX2/g16/g16
 Input=SecN4_conf-1.com
 Output=SecN4_conf-1.log
 Initial command:
 /uufs/chpc.utah.edu/sys/installdir/gaussian16/C01/AVX2/g16/l1.exe "/scratch/local/u6032257/5771714/notchpeak.peaks/Gau-2142471.inp" -scrdir="/scratch/local/u6032257/5771714/notchpeak.peaks/"
 Entering Link 1 = /uufs/chpc.utah.edu/sys/installdir/gaussian16/C01/AVX2/g16/l1.exe PID=   2142473.
  
 Copyright (c) 1988-2019, Gaussian, Inc.  All Rights Reserved.
  
 This is part of the Gaussian(R) 16 program.  It is based on
 the Gaussian(R) 09 system (copyright 2009, Gaussian, Inc.),
 the Gaussian(R) 03 system (copyright 2003, Gaussian, Inc.),
 the Gaussian(R) 98 system (copyright 1998, Gaussian, Inc.),
 the Gaussian(R) 94 system (copyright 1995, Gaussian, Inc.),
 the Gaussian 92(TM) system (copyright 1992, Gaussian, Inc.),
 the Gaussian 90(TM) system (copyright 1990, Gaussian, Inc.),
 the Gaussian 88(TM) system (copyright 1988, Gaussian, Inc.),
 the Gaussian 86(TM) system (copyright 1986, Carnegie Mellon
 University), and the Gaussian 82(TM) system (copyright 1983,
 Carnegie Mellon University). Gaussian is a federally registered
 trademark of Gaussian, Inc.
  
 This software contains proprietary and confidential information,
 including trade secrets, belonging to Gaussian, Inc.
  
 This software is provided under written license and may be
 used, copied, transmitted, or stored only in accord with that
 written license.
  
 The following legend is applicable only to US Government
 contracts under FAR:
  
                    RESTRICTED RIGHTS LEGEND
  
 Use, reproduction and disclosure by the US Government is
 subject to restrictions as set forth in subparagraphs (a)
 and (c) of the Commercial Computer Software - Restricted
 Rights clause in FAR 52.227-19.
  
 Gaussian, Inc.
 340 Quinnipiac St., Bldg. 40, Wallingford CT 06492
  
  
 ---------------------------------------------------------------
 Warning -- This program may not be used in any manner that
 competes with the business of Gaussian, Inc. or will provide
 assistance to any competitor of Gaussian, Inc.  The licensee
 of this program is prohibited from giving any competitor of
 Gaussian, Inc. access to this program.  By using this program,
 the user acknowledges that Gaussian, Inc. is engaged in the
 business of creating and licensing software in the field of
 computational chemistry and represents and warrants to the
 licensee that it is not a competitor of Gaussian, Inc. and that
 it will not use this program in any manner prohibited above.
 ---------------------------------------------------------------
  

 Cite this work as:
 Gaussian 16, Revision C.01,
 M. J. Frisch, G. W. Trucks, H. B. Schlegel, G. E. Scuseria, 
 M. A. Robb, J. R. Cheeseman, G. Scalmani, V. Barone, 
 G. A. Petersson, H. Nakatsuji, X. Li, M. Caricato, A. V. Marenich, 
 J. Bloino, B. G. Janesko, R. Gomperts, B. Mennucci, H. P. Hratchian, 
 J. V. Ortiz, A. F. Izmaylov, J. L. Sonnenberg, D. Williams-Young, 
 F. Ding, F. Lipparini, F. Egidi, J. Goings, B. Peng, A. Petrone, 
 T. Henderson, D. Ranasinghe, V. G. Zakrzewski, J. Gao, N. Rega, 
 G. Zheng, W. Liang, M. Hada, M. Ehara, K. Toyota, R. Fukuda, 
 J. Hasegawa, M. Ishida, T. Nakajima, Y. Honda, O. Kitao, H. Nakai, 
 T. Vreven, K. Throssell, J. A. Montgomery, Jr., J. E. Peralta, 
 F. Ogliaro, M. J. Bearpark, J. J. Heyd, E. N. Brothers, K. N. Kudin, 
 V. N. Staroverov, T. A. Keith, R. Kobayashi, J. Normand, 
 K. Raghavachari, A. P. Rendell, J. C. Burant, S. S. Iyengar, 
 J. Tomasi, M. Cossi, J. M. Millam, M. Klene, C. Adamo, R. Cammi, 
 J. W. Ochterski, R. L. Martin, K. Morokuma, O. Farkas, 
 J. B. Foresman, and D. J. Fox, Gaussian, Inc., Wallingford CT, 2019.
 
 ******************************************
 Gaussian 16:  ES64L-G16RevC.01  3-Jul-2019
                23-Sep-2022 
 ******************************************
 %NProcShared=64
 Will use up to   64 processors via shared memory.
 %mem=16GB
 %chk=SecN4_conf-1.chk
 ----------------------------------------------------------------------
 # B3LYP/6-31G(d,p) empiricaldispersion=GD3BJ int=(grid=ultrafine) opt 
 freq=noraman
 ----------------------------------------------------------------------
 1/18=20,19=15,26=4,38=1/1,3;
 2/9=110,12=2,17=6,18=5,40=1/2;
 3/5=1,6=6,7=101,11=2,25=1,30=1,71=1,74=-5,75=-5,124=41/1,2,3;
 4//1;
 5/5=2,38=5/2;
 6/7=2,8=2,9=2,10=2,28=1/1;
 7//1,2,3,16;
 1/18=20,19=15,26=4/3(2);
 2/9=110/2;
 99//99;
 2/9=110/2;
 3/5=1,6=6,7=101,11=2,25=1,30=1,71=1,74=-5,75=-5,124=41/1,2,3;
 4/5=5,16=3,69=1/1;
 5/5=2,38=5/2;
 7//1,2,3,16;
 1/18=20,19=15,26=4/3(-5);
 2/9=110/2;
 6/7=2,8=2,9=2,10=2,19=2,28=1/1;
 99/9=1/99;
 ---------
 SecN4.xyz
 ---------
 Symbolic Z-matrix:
 Charge =  0 Multiplicity = 1
 C                     1.2049   -0.0414   -0.0812 
 N                    -0.0064    0.08      0.7201 
 C                    -1.1866    0.1886   -0.128 
 H                     1.3586    0.8447   -0.7003 
 H                     1.1752   -0.9194   -0.7294 
 H                     2.0761   -0.1404    0.5684 
 H                    -0.0922   -0.6757    1.3909 
 H                    -1.2996   -0.6814   -0.7779 
 H                    -1.1446    1.0854   -0.7494 
 H                    -2.0853    0.2598    0.4869 
 

 GradGradGradGradGradGradGradGradGradGradGradGradGradGradGradGradGradGrad
 Berny optimization.
 Initialization pass.
                           ----------------------------
                           !    Initial Parameters    !
                           ! (Angstroms and Degrees)  !
 --------------------------                            --------------------------
 ! Name  Definition              Value          Derivative Info.                !
 --------------------------------------------------------------------------------
 ! R1    R(1,2)                  1.4574         estimate D2E/DX2                !
 ! R2    R(1,4)                  1.0918         estimate D2E/DX2                !
 ! R3    R(1,5)                  1.0918         estimate D2E/DX2                !
 ! R4    R(1,6)                  1.0912         estimate D2E/DX2                !
 ! R5    R(2,3)                  1.4574         estimate D2E/DX2                !
 ! R6    R(2,7)                  1.0141         estimate D2E/DX2                !
 ! R7    R(3,8)                  1.0918         estimate D2E/DX2                !
 ! R8    R(3,9)                  1.0919         estimate D2E/DX2                !
 ! R9    R(3,10)                 1.0913         estimate D2E/DX2                !
 ! A1    A(2,1,4)              111.1713         estimate D2E/DX2                !
 ! A2    A(2,1,5)              111.7657         estimate D2E/DX2                !
 ! A3    A(2,1,6)              110.1089         estimate D2E/DX2                !
 ! A4    A(4,1,5)              108.6537         estimate D2E/DX2                !
 ! A5    A(4,1,6)              107.385          estimate D2E/DX2                !
 ! A6    A(5,1,6)              107.5897         estimate D2E/DX2                !
 ! A7    A(1,2,3)              111.0579         estimate D2E/DX2                !
 ! A8    A(1,2,7)              111.8345         estimate D2E/DX2                !
 ! A9    A(3,2,7)              111.8357         estimate D2E/DX2                !
 ! A10   A(2,3,8)              111.7671         estimate D2E/DX2                !
 ! A11   A(2,3,9)              111.1768         estimate D2E/DX2                !
 ! A12   A(2,3,10)             110.1129         estimate D2E/DX2                !
 ! A13   A(8,3,9)              108.6448         estimate D2E/DX2                !
 ! A14   A(8,3,10)             107.5879         estimate D2E/DX2                !
 ! A15   A(9,3,10)             107.3842         estimate D2E/DX2                !
 ! D1    D(4,1,2,3)             62.1734         estimate D2E/DX2                !
 ! D2    D(4,1,2,7)           -172.1202         estimate D2E/DX2                !
 ! D3    D(5,1,2,3)            -59.4254         estimate D2E/DX2                !
 ! D4    D(5,1,2,7)             66.281          estimate D2E/DX2                !
 ! D5    D(6,1,2,3)           -178.9439         estimate D2E/DX2                !
 ! D6    D(6,1,2,7)            -53.2375         estimate D2E/DX2                !
 ! D7    D(1,2,3,8)             59.4231         estimate D2E/DX2                !
 ! D8    D(1,2,3,9)            -62.1692         estimate D2E/DX2                !
 ! D9    D(1,2,3,10)           178.9429         estimate D2E/DX2                !
 ! D10   D(7,2,3,8)            -66.2827         estimate D2E/DX2                !
 ! D11   D(7,2,3,9)            172.125          estimate D2E/DX2                !
 ! D12   D(7,2,3,10)            53.2372         estimate D2E/DX2                !
 --------------------------------------------------------------------------------
 Trust Radius=3.00D-01 FncErr=1.00D-07 GrdErr=1.00D-06 EigMax=2.50D+02 EigMin=1.00D-04
 Number of steps in this run=     46 maximum allowed number of steps=    100.
 GradGradGradGradGradGradGradGradGradGradGradGradGradGradGradGradGradGrad

                          Input orientation:                          
 ---------------------------------------------------------------------
 Center     Atomic      Atomic             Coordinates (Angstroms)
 Number     Number       Type             X           Y           Z
 ---------------------------------------------------------------------
      1          6           0        1.204900   -0.041400   -0.081200
      2          7           0       -0.006400    0.080000    0.720100
      3          6           0       -1.186600    0.188600   -0.128000
      4          1           0        1.358600    0.844700   -0.700300
      5          1           0        1.175200   -0.919400   -0.729400
      6          1           0        2.076100   -0.140400    0.568400
      7          1           0       -0.092200   -0.675700    1.390900
      8          1           0       -1.299600   -0.681400   -0.777900
      9          1           0       -1.144600    1.085400   -0.749400
     10          1           0       -2.085300    0.259800    0.486900
 ---------------------------------------------------------------------
                    Distance matrix (angstroms):
                    1          2          3          4          5
     1  C    0.000000
     2  N    1.457418   0.000000
     3  C    2.402990   1.457374   0.000000
     4  H    1.091825   2.113179   2.689988   0.000000
     5  H    1.091755   2.120384   2.677208   1.773846   0.000000
     6  H    1.091224   2.099618   3.352376   1.759212   1.761462
     7  H    2.062010   1.014109   2.061985   2.964718   2.482210
     8  H    2.677221   2.120401   1.091805   3.066110   2.486691
     9  H    2.690041   2.113234   1.091857   2.515225   3.066121
    10  H    3.352443   2.099651   1.091253   3.689444   3.674338
                    6          7          8          9         10
     6  H    0.000000
     7  H    2.380037   0.000000
     8  H    3.674310   2.482245   0.000000
     9  H    3.689457   2.964777   1.773815   0.000000
    10  H    4.181394   2.380089   1.761505   1.759253   0.000000
 Stoichiometry    C2H7N
 Framework group  C1[X(C2H7N)]
 Deg. of freedom    24
 Full point group                 C1      NOp   1
 Largest Abelian subgroup         C1      NOp   1
 Largest concise Abelian subgroup C1      NOp   1
                         Standard orientation:                         
 ---------------------------------------------------------------------
 Center     Atomic      Atomic             Coordinates (Angstroms)
 Number     Number       Type             X           Y           Z
 ---------------------------------------------------------------------
      1          6           0        1.201505   -0.231389    0.019677
      2          7           0       -0.000009    0.575556   -0.151410
      3          6           0       -1.201485   -0.231369    0.019668
      4          1           0        1.257597   -1.019756   -0.733591
      5          1           0        1.243353   -0.690423    1.009357
      6          1           0        2.090673    0.391073   -0.092987
      7          1           0        0.000002    1.386020    0.458152
      8          1           0       -1.243338   -0.690468    1.009373
      9          1           0       -1.257628   -1.019838   -0.733536
     10          1           0       -2.090721    0.391050   -0.092972
 ---------------------------------------------------------------------
 Rotational constants (GHZ):          33.9787907           9.4658818           8.2842324
 Standard basis: 6-31G(d,p) (6D, 7F)
 There are    80 symmetry adapted cartesian basis functions of A   symmetry.
 There are    80 symmetry adapted basis functions of A   symmetry.
    80 basis functions,   133 primitive gaussians,    80 cartesian basis functions
    13 alpha electrons       13 beta electrons
       nuclear repulsion energy        84.2636280803 Hartrees.
 NAtoms=   10 NActive=   10 NUniq=   10 SFac= 1.00D+00 NAtFMM=   60 NAOKFM=F Big=F
 Integral buffers will be    131072 words long.
 Raffenetti 2 integral format.
 Two-electron integral symmetry is turned on.
 Nuclear repulsion after empirical dispersion term =       84.2550451867 Hartrees.
 One-electron integrals computed using PRISM.
 NBasis=    80 RedAO= T EigKep=  7.35D-03  NBF=    80
 NBsUse=    80 1.00D-06 EigRej= -1.00D+00 NBFU=    80
 ExpMin= 1.61D-01 ExpMax= 4.17D+03 ExpMxC= 6.27D+02 IAcc=3 IRadAn=         5 AccDes= 0.00D+00
 Harris functional with IExCor=  402 and IRadAn=       5 diagonalized for initial guess.
 HarFok:  IExCor=  402 AccDes= 0.00D+00 IRadAn=         5 IDoV= 1 UseB2=F ITyADJ=14
 ICtDFT=  3500011 ScaDFX=  1.000000  1.000000  1.000000  1.000000
 FoFCou: FMM=F IPFlag=           0 FMFlag=      100000 FMFlg1=           0
         NFxFlg=           0 DoJE=T BraDBF=F KetDBF=T FulRan=T
         wScrn=  0.000000 ICntrl=       500 IOpCl=  0 I1Cent=   200000004 NGrid=           0
         NMat0=    1 NMatS0=      1 NMatT0=    0 NMatD0=    1 NMtDS0=    0 NMtDT0=    0
 Petite list used in FoFCou.
 Keep R1 ints in memory in canonical form, NReq=63224655.
 Requested convergence on RMS density matrix=1.00D-08 within 128 cycles.
 Requested convergence on MAX density matrix=1.00D-06.
 Requested convergence on             energy=1.00D-06.
 No special actions if energy rises.
 Integral accuracy reduced to 1.0D-05 until final iterations.
 Initial convergence to 1.0D-05 achieved.  Increase integral accuracy.
 SCF Done:  E(RB3LYP) =  -135.180983479     A.U. after   11 cycles
            NFock= 11  Conv=0.97D-08     -V/T= 2.0097

 **********************************************************************

            Population analysis using the SCF Density.

 **********************************************************************

 Orbital symmetries:
       Occupied  (A) (A) (A) (A) (A) (A) (A) (A) (A) (A) (A) (A)
                 (A)
       Virtual   (A) (A) (A) (A) (A) (A) (A) (A) (A) (A) (A) (A)
                 (A) (A) (A) (A) (A) (A) (A) (A) (A) (A) (A) (A)
                 (A) (A) (A) (A) (A) (A) (A) (A) (A) (A) (A) (A)
                 (A) (A) (A) (A) (A) (A) (A) (A) (A) (A) (A) (A)
                 (A) (A) (A) (A) (A) (A) (A) (A) (A) (A) (A) (A)
                 (A) (A) (A) (A) (A) (A) (A)
 The electronic state is 1-A.
 Alpha  occ. eigenvalues --  -14.31012 -10.19478 -10.19477  -0.88909  -0.69417
 Alpha  occ. eigenvalues --   -0.62501  -0.48246  -0.43777  -0.42671  -0.38377
 Alpha  occ. eigenvalues --   -0.36617  -0.35501  -0.20877
 Alpha virt. eigenvalues --    0.08874   0.13100   0.15457   0.15749   0.17334
 Alpha virt. eigenvalues --    0.19496   0.19809   0.21520   0.26476   0.52243
 Alpha virt. eigenvalues --    0.52632   0.57262   0.57868   0.58588   0.72294
 Alpha virt. eigenvalues --    0.74443   0.79801   0.80937   0.84077   0.88877
 Alpha virt. eigenvalues --    0.89906   0.90021   0.92537   0.96193   0.96818
 Alpha virt. eigenvalues --    1.00976   1.29525   1.32930   1.39844   1.40494
 Alpha virt. eigenvalues --    1.58634   1.71980   1.80522   1.88646   1.93541
 Alpha virt. eigenvalues --    1.96746   2.04012   2.05150   2.07432   2.09185
 Alpha virt. eigenvalues --    2.10136   2.12521   2.15322   2.26712   2.36456
 Alpha virt. eigenvalues --    2.38462   2.43937   2.54944   2.60930   2.68535
 Alpha virt. eigenvalues --    2.72105   2.74141   2.74837   2.88286   2.90192
 Alpha virt. eigenvalues --    2.94881   2.97331   3.17742   3.22425   3.34150
 Alpha virt. eigenvalues --    3.42421   3.47327   3.49442   3.53279   4.01040
 Alpha virt. eigenvalues --    4.44443   4.50017
          Condensed to atoms (all electrons):
               1          2          3          4          5          6
     1  C    4.788453   0.334782  -0.062364   0.392528   0.371405   0.386904
     2  N    0.334782   6.733184   0.334789  -0.040146  -0.057510  -0.032705
     3  C   -0.062364   0.334789   4.788449  -0.004232  -0.006112   0.005716
     4  H    0.392528  -0.040146  -0.004232   0.606501  -0.049620  -0.027617
     5  H    0.371405  -0.057510  -0.006112  -0.049620   0.695702  -0.041732
     6  H    0.386904  -0.032705   0.005716  -0.027617  -0.041732   0.610715
     7  H   -0.040135   0.349092  -0.040135   0.005936  -0.004389  -0.003481
     8  H   -0.006114  -0.057513   0.371396  -0.002320   0.015511  -0.000248
     9  H   -0.004233  -0.040141   0.392520   0.006992  -0.002320   0.000124
    10  H    0.005716  -0.032705   0.386900   0.000124  -0.000248  -0.000286
               7          8          9         10
     1  C   -0.040135  -0.006114  -0.004233   0.005716
     2  N    0.349092  -0.057513  -0.040141  -0.032705
     3  C   -0.040135   0.371396   0.392520   0.386900
     4  H    0.005936  -0.002320   0.006992   0.000124
     5  H   -0.004389   0.015511  -0.002320  -0.000248
     6  H   -0.003481  -0.000248   0.000124  -0.000286
     7  H    0.497572  -0.004390   0.005936  -0.003481
     8  H   -0.004390   0.695752  -0.049632  -0.041732
     9  H    0.005936  -0.049632   0.606528  -0.027617
    10  H   -0.003481  -0.041732  -0.027617   0.610724
 Mulliken charges:
               1
     1  C   -0.166941
     2  N   -0.491125
     3  C   -0.166927
     4  H    0.111854
     5  H    0.079314
     6  H    0.102610
     7  H    0.237476
     8  H    0.079290
     9  H    0.111843
    10  H    0.102605
 Sum of Mulliken charges =  -0.00000
 Mulliken charges with hydrogens summed into heavy atoms:
               1
     1  C    0.126838
     2  N   -0.253649
     3  C    0.126811
 Electronic spatial extent (au):  <R**2>=            202.6587
 Charge=             -0.0000 electrons
 Dipole moment (field-independent basis, Debye):
    X=              0.0002    Y=             -0.1129    Z=              0.9583  Tot=              0.9649
 Quadrupole moment (field-independent basis, Debye-Ang):
   XX=            -19.5173   YY=            -19.9017   ZZ=            -21.5928
   XY=              0.0000   XZ=              0.0001   YZ=              2.0283
 Traceless Quadrupole moment (field-independent basis, Debye-Ang):
   XX=              0.8200   YY=              0.4355   ZZ=             -1.2555
   XY=              0.0000   XZ=              0.0001   YZ=              2.0283
 Octapole moment (field-independent basis, Debye-Ang**2):
  XXX=              0.0004  YYY=              3.5875  ZZZ=              0.7828  XYY=              0.0001
  XXY=              1.5711  XXZ=             -0.8782  XZZ=              0.0006  YZZ=             -0.4928
  YYZ=              1.3102  XYZ=             -0.0000
 Hexadecapole moment (field-independent basis, Debye-Ang**3):
 XXXX=           -174.3260 YYYY=            -53.8391 ZZZZ=            -37.7709 XXXY=             -0.0000
 XXXZ=              0.0003 YYYX=              0.0002 YYYZ=              4.4595 ZZZX=              0.0002
 ZZZY=              2.0327 XXYY=            -38.3483 XXZZ=            -36.7757 YYZZ=            -15.3218
 XXYZ=              0.6813 YYXZ=              0.0001 ZZXY=             -0.0003
 N-N= 8.425504518674D+01 E-N=-4.817465577459D+02  KE= 1.338816324896D+02
 Calling FoFJK, ICntrl=      2127 FMM=F ISym2X=0 I1Cent= 0 IOpClX= 0 NMat=1 NMatS=1 NMatT=0.
 ***** Axes restored to original set *****
 -------------------------------------------------------------------
 Center     Atomic                   Forces (Hartrees/Bohr)
 Number     Number              X              Y              Z
 -------------------------------------------------------------------
      1        6          -0.001776682   -0.005796746    0.011435566
      2        7           0.001887342    0.018640254   -0.004138229
      3        6           0.000156383   -0.005999059    0.011428325
      4        1          -0.002665134    0.002191075   -0.000702650
      5        1           0.002910044   -0.005143743   -0.008934558
      6        1           0.001727038    0.000324166    0.001907257
      7        1          -0.000129861   -0.001990189   -0.003221881
      8        1          -0.003485417   -0.004511202   -0.009037089
      9        1           0.003064449    0.001631841   -0.000569967
     10        1          -0.001688163    0.000653603    0.001833226
 -------------------------------------------------------------------
 Cartesian Forces:  Max     0.018640254 RMS     0.005726300

 GradGradGradGradGradGradGradGradGradGradGradGradGradGradGradGradGradGrad
 Berny optimization.
 FormGI is forming the generalized inverse of G from B-inverse, IUseBI=4.
 Internal  Forces:  Max     0.009362091 RMS     0.003960563
 Search for a local minimum.
 Step number   1 out of a maximum of   46
 All quantities printed in internal units (Hartrees-Bohrs-Radians)
 Mixed Optimization -- RFO/linear search
 Second derivative matrix not updated -- first step.
 ITU=  0
     Eigenvalues ---    0.00932   0.00933   0.02692   0.07206   0.07206
     Eigenvalues ---    0.07447   0.07447   0.11209   0.16000   0.16000
     Eigenvalues ---    0.16000   0.16000   0.16000   0.16000   0.23138
     Eigenvalues ---    0.34599   0.34603   0.34605   0.34611   0.34668
     Eigenvalues ---    0.34672   0.37289   0.37295   0.45291
 RFO step:  Lambda=-3.35710324D-03 EMin= 9.32249811D-03
 Linear search not attempted -- first point.
 Iteration  1 RMS(Cart)=  0.02844735 RMS(Int)=  0.00105519
 Iteration  2 RMS(Cart)=  0.00175793 RMS(Int)=  0.00036545
 Iteration  3 RMS(Cart)=  0.00000237 RMS(Int)=  0.00036544
 Iteration  4 RMS(Cart)=  0.00000000 RMS(Int)=  0.00036544
 Variable       Old X    -DE/DX   Delta X   Delta X   Delta X     New X
                                 (Linear)    (Quad)   (Total)
    R1        2.75412  -0.00117   0.00000  -0.00312  -0.00312   2.75100
    R2        2.06325   0.00180   0.00000   0.00516   0.00516   2.06841
    R3        2.06312   0.00936   0.00000   0.02679   0.02679   2.08991
    R4        2.06212   0.00248   0.00000   0.00710   0.00710   2.06921
    R5        2.75404  -0.00116   0.00000  -0.00308  -0.00308   2.75096
    R6        1.91639  -0.00064   0.00000  -0.00140  -0.00140   1.91499
    R7        2.06321   0.00933   0.00000   0.02672   0.02672   2.08993
    R8        2.06331   0.00178   0.00000   0.00510   0.00510   2.06841
    R9        2.06217   0.00247   0.00000   0.00704   0.00704   2.06921
    A1        1.94030  -0.00611   0.00000  -0.04522  -0.04511   1.89520
    A2        1.95068   0.00793   0.00000   0.05306   0.05294   2.00362
    A3        1.92176  -0.00068   0.00000  -0.00088  -0.00151   1.92025
    A4        1.89636  -0.00202   0.00000  -0.01828  -0.01772   1.87864
    A5        1.87422   0.00175   0.00000   0.00176   0.00135   1.87557
    A6        1.87779  -0.00095   0.00000   0.00916   0.00841   1.88621
    A7        1.93833   0.00901   0.00000   0.02759   0.02741   1.96574
    A8        1.95188  -0.00416   0.00000  -0.04217  -0.04244   1.90944
    A9        1.95190  -0.00416   0.00000  -0.04219  -0.04246   1.90944
   A10        1.95070   0.00793   0.00000   0.05307   0.05295   2.00366
   A11        1.94040  -0.00613   0.00000  -0.04530  -0.04519   1.89521
   A12        1.92183  -0.00069   0.00000  -0.00093  -0.00156   1.92027
   A13        1.89621  -0.00201   0.00000  -0.01817  -0.01761   1.87860
   A14        1.87776  -0.00095   0.00000   0.00917   0.00842   1.88619
   A15        1.87421   0.00176   0.00000   0.00177   0.00135   1.87556
    D1        1.08513   0.00139   0.00000   0.05812   0.05768   1.14281
    D2       -3.00406  -0.00033   0.00000  -0.00845  -0.00880  -3.01286
    D3       -1.03717   0.00275   0.00000   0.07641   0.07687  -0.96030
    D4        1.15682   0.00104   0.00000   0.00985   0.01039   1.16721
    D5       -3.12316  -0.00073   0.00000   0.03117   0.03102  -3.09214
    D6       -0.92917  -0.00245   0.00000  -0.03539  -0.03546  -0.96463
    D7        1.03713  -0.00275   0.00000  -0.07637  -0.07682   0.96030
    D8       -1.08506  -0.00139   0.00000  -0.05816  -0.05773  -1.14279
    D9        3.12314   0.00073   0.00000  -0.03114  -0.03098   3.09216
   D10       -1.15685  -0.00103   0.00000  -0.00981  -0.01036  -1.16721
   D11        3.00415   0.00033   0.00000   0.00839   0.00874   3.01289
   D12        0.92916   0.00245   0.00000   0.03542   0.03549   0.96465
         Item               Value     Threshold  Converged?
 Maximum Force            0.009362     0.000450     NO 
 RMS     Force            0.003961     0.000300     NO 
 Maximum Displacement     0.067692     0.001800     NO 
 RMS     Displacement     0.029238     0.001200     NO 
 Predicted change in Energy=-1.750551D-03
 GradGradGradGradGradGradGradGradGradGradGradGradGradGradGradGradGradGrad

                          Input orientation:                          
 ---------------------------------------------------------------------
 Center     Atomic      Atomic             Coordinates (Angstroms)
 Number     Number       Type             X           Y           Z
 ---------------------------------------------------------------------
      1          6           0        1.213255   -0.055801   -0.074666
      2          7           0       -0.002708    0.115821    0.707153
      3          6           0       -1.197809    0.176056   -0.121882
      4          1           0        1.362991    0.838509   -0.687721
      5          1           0        1.209564   -0.929824   -0.752276
      6          1           0        2.077633   -0.146064    0.591431
      7          1           0       -0.089103   -0.648130    1.367330
      8          1           0       -1.334430   -0.685183   -0.802113
      9          1           0       -1.150545    1.080205   -0.736972
     10          1           0       -2.088747    0.254609    0.509816
 ---------------------------------------------------------------------
                    Distance matrix (angstroms):
                    1          2          3          4          5
     1  C    0.000000
     2  N    1.455768   0.000000
     3  C    2.422647   1.455745   0.000000
     4  H    1.094553   2.081606   2.704943   0.000000
     5  H    1.105932   2.166312   2.723199   1.776150   0.000000
     6  H    1.094980   2.099951   3.367655   1.765312   1.781396
     7  H    2.031340   1.013370   2.031321   2.922654   2.501723
     8  H    2.723233   2.166327   1.105943   3.100130   2.556216
     9  H    2.704942   2.081601   1.094557   2.525610   3.100092
    10  H    3.367669   2.099944   1.094981   3.699937   3.724865
                    6          7          8          9         10
     6  H    0.000000
     7  H    2.355596   0.000000
     8  H    3.724888   2.501738   0.000000
     9  H    3.699936   2.922651   1.776134   0.000000
    10  H    4.186398   2.355599   1.781392   1.765308   0.000000
 Stoichiometry    C2H7N
 Framework group  C1[X(C2H7N)]
 Deg. of freedom    24
 Full point group                 C1      NOp   1
 Largest Abelian subgroup         C1      NOp   1
 Largest concise Abelian subgroup C1      NOp   1
                         Standard orientation:                         
 ---------------------------------------------------------------------
 Center     Atomic      Atomic             Coordinates (Angstroms)
 Number     Number       Type             X           Y           Z
 ---------------------------------------------------------------------
      1          6           0        1.211329   -0.222988    0.020966
      2          7           0       -0.000006    0.566834   -0.146687
      3          6           0       -1.211318   -0.222983    0.020965
      4          1           0        1.262811   -0.958741   -0.787777
      5          1           0        1.278096   -0.772318    0.978497
      6          1           0        2.093196    0.420543   -0.063648
      7          1           0       -0.000007    1.329072    0.521080
      8          1           0       -1.278121   -0.772330    0.978496
      9          1           0       -1.262799   -0.958762   -0.787760
     10          1           0       -2.093201    0.420525   -0.063666
 ---------------------------------------------------------------------
 Rotational constants (GHZ):          34.5934811           9.3135529           8.2236953
 Standard basis: 6-31G(d,p) (6D, 7F)
 There are    80 symmetry adapted cartesian basis functions of A   symmetry.
 There are    80 symmetry adapted basis functions of A   symmetry.
    80 basis functions,   133 primitive gaussians,    80 cartesian basis functions
    13 alpha electrons       13 beta electrons
       nuclear repulsion energy        84.0725610260 Hartrees.
 NAtoms=   10 NActive=   10 NUniq=   10 SFac= 1.00D+00 NAtFMM=   60 NAOKFM=F Big=F
 Integral buffers will be    131072 words long.
 Raffenetti 2 integral format.
 Two-electron integral symmetry is turned on.
 Nuclear repulsion after empirical dispersion term =       84.0640066783 Hartrees.
 One-electron integrals computed using PRISM.
 NBasis=    80 RedAO= T EigKep=  7.30D-03  NBF=    80
 NBsUse=    80 1.00D-06 EigRej= -1.00D+00 NBFU=    80
 Initial guess from the checkpoint file:  "SecN4_conf-1.chk"
 B after Tr=     0.000000    0.000000   -0.000000
         Rot=    0.999717   -0.023780    0.000002    0.000000 Ang=  -2.73 deg.
 ExpMin= 1.61D-01 ExpMax= 4.17D+03 ExpMxC= 6.27D+02 IAcc=3 IRadAn=         5 AccDes= 0.00D+00
 Harris functional with IExCor=  402 and IRadAn=       5 diagonalized for initial guess.
 HarFok:  IExCor=  402 AccDes= 0.00D+00 IRadAn=         5 IDoV= 1 UseB2=F ITyADJ=14
 ICtDFT=  3500011 ScaDFX=  1.000000  1.000000  1.000000  1.000000
 FoFCou: FMM=F IPFlag=           0 FMFlag=      100000 FMFlg1=           0
         NFxFlg=           0 DoJE=T BraDBF=F KetDBF=T FulRan=T
         wScrn=  0.000000 ICntrl=       500 IOpCl=  0 I1Cent=   200000004 NGrid=           0
         NMat0=    1 NMatS0=      1 NMatT0=    0 NMatD0=    1 NMtDS0=    0 NMtDT0=    0
 Petite list used in FoFCou.
 Keep R1 ints in memory in canonical form, NReq=63224655.
 Requested convergence on RMS density matrix=1.00D-08 within 128 cycles.
 Requested convergence on MAX density matrix=1.00D-06.
 Requested convergence on             energy=1.00D-06.
 No special actions if energy rises.
 Integral accuracy reduced to 1.0D-05 until final iterations.
 Initial convergence to 1.0D-05 achieved.  Increase integral accuracy.
 SCF Done:  E(RB3LYP) =  -135.182515123     A.U. after   10 cycles
            NFock= 10  Conv=0.96D-08     -V/T= 2.0100
 Calling FoFJK, ICntrl=      2127 FMM=F ISym2X=0 I1Cent= 0 IOpClX= 0 NMat=1 NMatS=1 NMatT=0.
 ***** Axes restored to original set *****
 -------------------------------------------------------------------
 Center     Atomic                   Forces (Hartrees/Bohr)
 Number     Number              X              Y              Z
 -------------------------------------------------------------------
      1        6           0.000414272    0.000822827    0.000995659
      2        7           0.000018870    0.000030586   -0.000404249
      3        6          -0.000301382    0.000890838    0.000966979
      4        1           0.000911217    0.000197993   -0.001473495
      5        1          -0.000559442    0.000025169   -0.000199929
      6        1          -0.000741449    0.000003860    0.000109610
      7        1          -0.000233129   -0.002115685    0.001542714
      8        1           0.000564548   -0.000081115   -0.000172675
      9        1          -0.000797961    0.000362501   -0.001504245
     10        1           0.000724457   -0.000136974    0.000139632
 -------------------------------------------------------------------
 Cartesian Forces:  Max     0.002115685 RMS     0.000788243

 GradGradGradGradGradGradGradGradGradGradGradGradGradGradGradGradGradGrad
 Berny optimization.
 Using GEDIIS/GDIIS optimizer.
 FormGI is forming the generalized inverse of G from B-inverse, IUseBI=4.
 Internal  Forces:  Max     0.002620047 RMS     0.000828937
 Search for a local minimum.
 Step number   2 out of a maximum of   46
 All quantities printed in internal units (Hartrees-Bohrs-Radians)
 Mixed Optimization -- En-DIIS/RFO-DIIS
 Update second derivatives using D2CorX and points    1    2
 DE= -1.53D-03 DEPred=-1.75D-03 R= 8.75D-01
 TightC=F SS=  1.41D+00  RLast= 1.99D-01 DXNew= 5.0454D-01 5.9772D-01
 Trust test= 8.75D-01 RLast= 1.99D-01 DXMaxT set to 5.05D-01
 ITU=  1  0
 Use linear search instead of GDIIS.
     Eigenvalues ---    0.00933   0.00943   0.02848   0.06931   0.07076
     Eigenvalues ---    0.07638   0.07836   0.11111   0.15431   0.16000
     Eigenvalues ---    0.16000   0.16000   0.16000   0.18239   0.23369
     Eigenvalues ---    0.33502   0.34601   0.34608   0.34649   0.34670
     Eigenvalues ---    0.35085   0.37292   0.37318   0.45753
 RFO step:  Lambda=-8.73495890D-05 EMin= 9.32531522D-03
 Quartic linear search produced a step of -0.07974.
 Iteration  1 RMS(Cart)=  0.00692346 RMS(Int)=  0.00004298
 Iteration  2 RMS(Cart)=  0.00003757 RMS(Int)=  0.00002071
 Iteration  3 RMS(Cart)=  0.00000000 RMS(Int)=  0.00002071
 Variable       Old X    -DE/DX   Delta X   Delta X   Delta X     New X
                                 (Linear)    (Quad)   (Total)
    R1        2.75100   0.00020   0.00025   0.00017   0.00042   2.75142
    R2        2.06841   0.00111  -0.00041   0.00350   0.00309   2.07150
    R3        2.08991   0.00010  -0.00214   0.00312   0.00098   2.09089
    R4        2.06921  -0.00052  -0.00057  -0.00062  -0.00119   2.06802
    R5        2.75096   0.00021   0.00025   0.00020   0.00044   2.75140
    R6        1.91499   0.00262   0.00011   0.00517   0.00529   1.92028
    R7        2.08993   0.00010  -0.00213   0.00310   0.00097   2.09090
    R8        2.06841   0.00111  -0.00041   0.00349   0.00309   2.07150
    R9        2.06921  -0.00052  -0.00056  -0.00063  -0.00119   2.06802
    A1        1.89520   0.00208   0.00360   0.00821   0.01181   1.90700
    A2        2.00362  -0.00099  -0.00422  -0.00131  -0.00553   1.99809
    A3        1.92025  -0.00080   0.00012  -0.00462  -0.00446   1.91579
    A4        1.87864  -0.00075   0.00141  -0.00659  -0.00521   1.87343
    A5        1.87557  -0.00011  -0.00011   0.00216   0.00208   1.87765
    A6        1.88621   0.00061  -0.00067   0.00232   0.00169   1.88789
    A7        1.96574  -0.00016  -0.00219   0.00179  -0.00039   1.96535
    A8        1.90944  -0.00000   0.00338  -0.00595  -0.00256   1.90688
    A9        1.90944  -0.00000   0.00339  -0.00595  -0.00255   1.90689
   A10        2.00366  -0.00100  -0.00422  -0.00134  -0.00556   1.99810
   A11        1.89521   0.00208   0.00360   0.00820   0.01180   1.90701
   A12        1.92027  -0.00080   0.00012  -0.00463  -0.00447   1.91580
   A13        1.87860  -0.00075   0.00140  -0.00655  -0.00518   1.87342
   A14        1.88619   0.00061  -0.00067   0.00233   0.00169   1.88788
   A15        1.87556  -0.00011  -0.00011   0.00216   0.00209   1.87765
    D1        1.14281  -0.00021  -0.00460   0.00347  -0.00110   1.14171
    D2       -3.01286  -0.00031   0.00070  -0.00714  -0.00642  -3.01928
    D3       -0.96030  -0.00011  -0.00613   0.00678   0.00063  -0.95967
    D4        1.16721  -0.00022  -0.00083  -0.00383  -0.00469   1.16253
    D5       -3.09214   0.00042  -0.00247   0.00825   0.00578  -3.08636
    D6       -0.96463   0.00031   0.00283  -0.00236   0.00047  -0.96416
    D7        0.96030   0.00011   0.00613  -0.00677  -0.00062   0.95968
    D8       -1.14279   0.00021   0.00460  -0.00349   0.00109  -1.14170
    D9        3.09216  -0.00042   0.00247  -0.00826  -0.00579   3.08637
   D10       -1.16721   0.00022   0.00083   0.00384   0.00469  -1.16251
   D11        3.01289   0.00031  -0.00070   0.00713   0.00641   3.01929
   D12        0.96465  -0.00031  -0.00283   0.00235  -0.00047   0.96418
         Item               Value     Threshold  Converged?
 Maximum Force            0.002620     0.000450     NO 
 RMS     Force            0.000829     0.000300     NO 
 Maximum Displacement     0.020100     0.001800     NO 
 RMS     Displacement     0.006929     0.001200     NO 
 Predicted change in Energy=-5.526902D-05
 GradGradGradGradGradGradGradGradGradGradGradGradGradGradGradGradGradGrad

                          Input orientation:                          
 ---------------------------------------------------------------------
 Center     Atomic      Atomic             Coordinates (Angstroms)
 Number     Number       Type             X           Y           Z
 ---------------------------------------------------------------------
      1          6           0        1.213547   -0.052929   -0.074017
      2          7           0       -0.002509    0.118092    0.708199
      3          6           0       -1.197582    0.178938   -0.121243
      4          1           0        1.373627    0.837511   -0.692985
      5          1           0        1.203893   -0.927889   -0.751208
      6          1           0        2.073818   -0.149116    0.595523
      7          1           0       -0.089450   -0.652189    1.365242
      8          1           0       -1.328527   -0.684361   -0.800809
      9          1           0       -1.160968    1.081243   -0.742644
     10          1           0       -2.085749    0.250900    0.514041
 ---------------------------------------------------------------------
                    Distance matrix (angstroms):
                    1          2          3          4          5
     1  C    0.000000
     2  N    1.455988   0.000000
     3  C    2.422712   1.455979   0.000000
     4  H    1.096189   2.091562   2.715092   0.000000
     5  H    1.106452   2.163181   2.718273   1.774496   0.000000
     6  H    1.094351   2.096481   3.365031   1.767471   1.782398
     7  H    2.031841   1.016167   2.031838   2.931910   2.495617
     8  H    2.718284   2.163183   1.106455   3.103121   2.544585
     9  H    2.715093   2.091562   1.096191   2.546771   3.103104
    10  H    3.365037   2.096479   1.094351   3.710567   3.716469
                    6          7          8          9         10
     6  H    0.000000
     7  H    2.350591   0.000000
     8  H    3.716475   2.495621   0.000000
     9  H    3.710569   2.931914   1.774491   0.000000
    10  H    4.179552   2.350600   1.782394   1.767469   0.000000
 Stoichiometry    C2H7N
 Framework group  C1[X(C2H7N)]
 Deg. of freedom    24
 Full point group                 C1      NOp   1
 Largest Abelian subgroup         C1      NOp   1
 Largest concise Abelian subgroup C1      NOp   1
                         Standard orientation:                         
 ---------------------------------------------------------------------
 Center     Atomic      Atomic             Coordinates (Angstroms)
 Number     Number       Type             X           Y           Z
 ---------------------------------------------------------------------
      1          6           0        1.211358   -0.222938    0.020500
      2          7           0       -0.000003    0.566766   -0.149424
      3          6           0       -1.211354   -0.222936    0.020499
      4          1           0        1.273387   -0.967213   -0.781896
      5          1           0        1.272288   -0.768105    0.981394
      6          1           0        2.089775    0.424669   -0.060695
      7          1           0        0.000001    1.329198    0.522360
      8          1           0       -1.272297   -0.768102    0.981397
      9          1           0       -1.273384   -0.967223   -0.781887
     10          1           0       -2.089777    0.424661   -0.060703
 ---------------------------------------------------------------------
 Rotational constants (GHZ):          34.5249029           9.3136563           8.2204722
 Standard basis: 6-31G(d,p) (6D, 7F)
 There are    80 symmetry adapted cartesian basis functions of A   symmetry.
 There are    80 symmetry adapted basis functions of A   symmetry.
    80 basis functions,   133 primitive gaussians,    80 cartesian basis functions
    13 alpha electrons       13 beta electrons
       nuclear repulsion energy        84.0387748969 Hartrees.
 NAtoms=   10 NActive=   10 NUniq=   10 SFac= 1.00D+00 NAtFMM=   60 NAOKFM=F Big=F
 Integral buffers will be    131072 words long.
 Raffenetti 2 integral format.
 Two-electron integral symmetry is turned on.
 Nuclear repulsion after empirical dispersion term =       84.0302225573 Hartrees.
 One-electron integrals computed using PRISM.
 NBasis=    80 RedAO= T EigKep=  7.28D-03  NBF=    80
 NBsUse=    80 1.00D-06 EigRej= -1.00D+00 NBFU=    80
 Initial guess from the checkpoint file:  "SecN4_conf-1.chk"
 B after Tr=    -0.000000   -0.000000    0.000000
         Rot=    0.999998    0.001827   -0.000001    0.000001 Ang=   0.21 deg.
 ExpMin= 1.61D-01 ExpMax= 4.17D+03 ExpMxC= 6.27D+02 IAcc=3 IRadAn=         5 AccDes= 0.00D+00
 Harris functional with IExCor=  402 and IRadAn=       5 diagonalized for initial guess.
 HarFok:  IExCor=  402 AccDes= 0.00D+00 IRadAn=         5 IDoV= 1 UseB2=F ITyADJ=14
 ICtDFT=  3500011 ScaDFX=  1.000000  1.000000  1.000000  1.000000
 FoFCou: FMM=F IPFlag=           0 FMFlag=      100000 FMFlg1=           0
         NFxFlg=           0 DoJE=T BraDBF=F KetDBF=T FulRan=T
         wScrn=  0.000000 ICntrl=       500 IOpCl=  0 I1Cent=   200000004 NGrid=           0
         NMat0=    1 NMatS0=      1 NMatT0=    0 NMatD0=    1 NMtDS0=    0 NMtDT0=    0
 Petite list used in FoFCou.
 Keep R1 ints in memory in canonical form, NReq=63224655.
 Requested convergence on RMS density matrix=1.00D-08 within 128 cycles.
 Requested convergence on MAX density matrix=1.00D-06.
 Requested convergence on             energy=1.00D-06.
 No special actions if energy rises.
 Integral accuracy reduced to 1.0D-05 until final iterations.
 Initial convergence to 1.0D-05 achieved.  Increase integral accuracy.
 SCF Done:  E(RB3LYP) =  -135.182574150     A.U. after    9 cycles
            NFock=  9  Conv=0.63D-08     -V/T= 2.0100
 Calling FoFJK, ICntrl=      2127 FMM=F ISym2X=0 I1Cent= 0 IOpClX= 0 NMat=1 NMatS=1 NMatT=0.
 ***** Axes restored to original set *****
 -------------------------------------------------------------------
 Center     Atomic                   Forces (Hartrees/Bohr)
 Number     Number              X              Y              Z
 -------------------------------------------------------------------
      1        6           0.000333240   -0.000043882    0.000257432
      2        7           0.000028558    0.000225175   -0.000164407
      3        6          -0.000350451    0.000020608    0.000239235
      4        1          -0.000016642   -0.000100919   -0.000075401
      5        1          -0.000131055    0.000110159   -0.000025044
      6        1          -0.000110528    0.000014426   -0.000079454
      7        1          -0.000019853   -0.000199620    0.000014254
      8        1           0.000151536    0.000083638   -0.000018271
      9        1           0.000000753   -0.000102548   -0.000074048
     10        1           0.000114442   -0.000007037   -0.000074298
 -------------------------------------------------------------------
 Cartesian Forces:  Max     0.000350451 RMS     0.000142419

 GradGradGradGradGradGradGradGradGradGradGradGradGradGradGradGradGradGrad
 Berny optimization.
 Using GEDIIS/GDIIS optimizer.
 FormGI is forming the generalized inverse of G from B-inverse, IUseBI=4.
 Internal  Forces:  Max     0.000168999 RMS     0.000083504
 Search for a local minimum.
 Step number   3 out of a maximum of   46
 All quantities printed in internal units (Hartrees-Bohrs-Radians)
 Mixed Optimization -- En-DIIS/RFO-DIIS
 Swapping is turned off.
 Update second derivatives using D2CorX and points    1    2    3
 DE= -5.90D-05 DEPred=-5.53D-05 R= 1.07D+00
 TightC=F SS=  1.41D+00  RLast= 2.67D-02 DXNew= 8.4853D-01 7.9959D-02
 Trust test= 1.07D+00 RLast= 2.67D-02 DXMaxT set to 5.05D-01
 ITU=  1  1  0
     Eigenvalues ---    0.00933   0.00943   0.02751   0.06960   0.06974
     Eigenvalues ---    0.07592   0.07712   0.11086   0.15799   0.16000
     Eigenvalues ---    0.16000   0.16000   0.16026   0.17527   0.23429
     Eigenvalues ---    0.33927   0.34601   0.34608   0.34640   0.34670
     Eigenvalues ---    0.35067   0.37292   0.37304   0.45373
 En-DIIS/RFO-DIIS/Sim-DIIS IScMMF=       -3 using points:     3    2
 RFO step:  Lambda=-2.74424376D-06.
 DidBck=F Rises=F RFO-DIIS coefs:    1.15155   -0.15155
 Iteration  1 RMS(Cart)=  0.00165357 RMS(Int)=  0.00000266
 Iteration  2 RMS(Cart)=  0.00000229 RMS(Int)=  0.00000149
 Iteration  3 RMS(Cart)=  0.00000000 RMS(Int)=  0.00000149
 Variable       Old X    -DE/DX   Delta X   Delta X   Delta X     New X
                                 (Linear)    (Quad)   (Total)
    R1        2.75142   0.00002   0.00006   0.00001   0.00007   2.75149
    R2        2.07150  -0.00004   0.00047  -0.00053  -0.00006   2.07144
    R3        2.09089  -0.00007   0.00015  -0.00029  -0.00014   2.09075
    R4        2.06802  -0.00014  -0.00018  -0.00025  -0.00043   2.06759
    R5        2.75140   0.00003   0.00007   0.00001   0.00008   2.75148
    R6        1.92028   0.00016   0.00080  -0.00031   0.00049   1.92077
    R7        2.09090  -0.00007   0.00015  -0.00029  -0.00015   2.09075
    R8        2.07150  -0.00004   0.00047  -0.00053  -0.00006   2.07144
    R9        2.06802  -0.00014  -0.00018  -0.00025  -0.00043   2.06759
    A1        1.90700   0.00008   0.00179  -0.00122   0.00057   1.90757
    A2        1.99809  -0.00017  -0.00084  -0.00052  -0.00136   1.99673
    A3        1.91579   0.00005  -0.00068   0.00128   0.00060   1.91639
    A4        1.87343  -0.00007  -0.00079  -0.00047  -0.00126   1.87217
    A5        1.87765   0.00002   0.00032   0.00033   0.00064   1.87830
    A6        1.88789   0.00009   0.00026   0.00063   0.00088   1.88877
    A7        1.96535   0.00008  -0.00006   0.00003  -0.00003   1.96532
    A8        1.90688  -0.00006  -0.00039  -0.00117  -0.00156   1.90533
    A9        1.90689  -0.00006  -0.00039  -0.00117  -0.00156   1.90533
   A10        1.99810  -0.00017  -0.00084  -0.00053  -0.00137   1.99673
   A11        1.90701   0.00008   0.00179  -0.00123   0.00056   1.90758
   A12        1.91580   0.00005  -0.00068   0.00128   0.00060   1.91640
   A13        1.87342  -0.00006  -0.00078  -0.00046  -0.00125   1.87217
   A14        1.88788   0.00009   0.00026   0.00064   0.00089   1.88877
   A15        1.87765   0.00002   0.00032   0.00033   0.00065   1.87830
    D1        1.14171  -0.00003  -0.00017   0.00132   0.00115   1.14286
    D2       -3.01928  -0.00011  -0.00097  -0.00097  -0.00194  -3.02122
    D3       -0.95967   0.00010   0.00010   0.00317   0.00327  -0.95640
    D4        1.16253   0.00003  -0.00071   0.00088   0.00017   1.16270
    D5       -3.08636   0.00006   0.00088   0.00175   0.00262  -3.08374
    D6       -0.96416  -0.00001   0.00007  -0.00054  -0.00047  -0.96464
    D7        0.95968  -0.00010  -0.00009  -0.00318  -0.00327   0.95641
    D8       -1.14170   0.00003   0.00016  -0.00132  -0.00116  -1.14286
    D9        3.08637  -0.00006  -0.00088  -0.00175  -0.00263   3.08374
   D10       -1.16251  -0.00003   0.00071  -0.00089  -0.00018  -1.16269
   D11        3.01929   0.00011   0.00097   0.00096   0.00194   3.02123
   D12        0.96418   0.00001  -0.00007   0.00054   0.00047   0.96464
         Item               Value     Threshold  Converged?
 Maximum Force            0.000169     0.000450     YES
 RMS     Force            0.000084     0.000300     YES
 Maximum Displacement     0.005422     0.001800     NO 
 RMS     Displacement     0.001654     0.001200     NO 
 Predicted change in Energy=-1.371445D-06
 GradGradGradGradGradGradGradGradGradGradGradGradGradGradGradGradGradGrad

                          Input orientation:                          
 ---------------------------------------------------------------------
 Center     Atomic      Atomic             Coordinates (Angstroms)
 Number     Number       Type             X           Y           Z
 ---------------------------------------------------------------------
      1          6           0        1.213584   -0.052639   -0.073527
      2          7           0       -0.002363    0.119695    0.708638
      3          6           0       -1.197586    0.179232   -0.120757
      4          1           0        1.374739    0.837008   -0.693303
      5          1           0        1.201122   -0.927115   -0.751175
      6          1           0        2.073840   -0.150489    0.595416
      7          1           0       -0.089409   -0.651884    1.364545
      8          1           0       -1.325658   -0.684129   -0.800666
      9          1           0       -1.162141    1.080965   -0.743001
     10          1           0       -2.086028    0.249554    0.513929
 ---------------------------------------------------------------------
                    Distance matrix (angstroms):
                    1          2          3          4          5
     1  C    0.000000
     2  N    1.456025   0.000000
     3  C    2.422754   1.456022   0.000000
     4  H    1.096160   2.091982   2.716126   0.000000
     5  H    1.106377   2.162230   2.715738   1.773590   0.000000
     6  H    1.094121   2.096768   3.365093   1.767679   1.782721
     7  H    2.030994   1.016428   2.030993   2.931769   2.493490
     8  H    2.715743   2.162231   1.106378   3.101214   2.538918
     9  H    2.716123   2.091980   1.096160   2.549068   3.101203
    10  H    3.365095   2.096768   1.094121   3.712065   3.713542
                    6          7          8          9         10
     6  H    0.000000
     7  H    2.350022   0.000000
     8  H    3.713543   2.493490   0.000000
     9  H    3.712063   2.931769   1.773589   0.000000
    10  H    4.179854   2.350027   1.782720   1.767678   0.000000
 Stoichiometry    C2H7N
 Framework group  C1[X(C2H7N)]
 Deg. of freedom    24
 Full point group                 C1      NOp   1
 Largest Abelian subgroup         C1      NOp   1
 Largest concise Abelian subgroup C1      NOp   1
                         Standard orientation:                         
 ---------------------------------------------------------------------
 Center     Atomic      Atomic             Coordinates (Angstroms)
 Number     Number       Type             X           Y           Z
 ---------------------------------------------------------------------
      1          6           0        1.211378   -0.222735    0.020419
      2          7           0       -0.000001    0.566914   -0.149944
      3          6           0       -1.211376   -0.222735    0.020419
      4          1           0        1.274536   -0.966860   -0.781987
      5          1           0        1.269457   -0.769372    0.980567
      6          1           0        2.089926    0.424604   -0.058347
      7          1           0        0.000000    1.327680    0.524119
      8          1           0       -1.269461   -0.769368    0.980569
      9          1           0       -1.274532   -0.966866   -0.781982
     10          1           0       -2.089928    0.424600   -0.058354
 ---------------------------------------------------------------------
 Rotational constants (GHZ):          34.5281438           9.3147205           8.2214686
 Standard basis: 6-31G(d,p) (6D, 7F)
 There are    80 symmetry adapted cartesian basis functions of A   symmetry.
 There are    80 symmetry adapted basis functions of A   symmetry.
    80 basis functions,   133 primitive gaussians,    80 cartesian basis functions
    13 alpha electrons       13 beta electrons
       nuclear repulsion energy        84.0427276424 Hartrees.
 NAtoms=   10 NActive=   10 NUniq=   10 SFac= 1.00D+00 NAtFMM=   60 NAOKFM=F Big=F
 Integral buffers will be    131072 words long.
 Raffenetti 2 integral format.
 Two-electron integral symmetry is turned on.
 Nuclear repulsion after empirical dispersion term =       84.0341739439 Hartrees.
 One-electron integrals computed using PRISM.
 NBasis=    80 RedAO= T EigKep=  7.28D-03  NBF=    80
 NBsUse=    80 1.00D-06 EigRej= -1.00D+00 NBFU=    80
 Initial guess from the checkpoint file:  "SecN4_conf-1.chk"
 B after Tr=     0.000000   -0.000000    0.000000
         Rot=    1.000000   -0.000339   -0.000000    0.000000 Ang=  -0.04 deg.
 Keep R1 ints in memory in canonical form, NReq=63224655.
 Requested convergence on RMS density matrix=1.00D-08 within 128 cycles.
 Requested convergence on MAX density matrix=1.00D-06.
 Requested convergence on             energy=1.00D-06.
 No special actions if energy rises.
 SCF Done:  E(RB3LYP) =  -135.182575538     A.U. after    7 cycles
            NFock=  7  Conv=0.44D-08     -V/T= 2.0100
 Calling FoFJK, ICntrl=      2127 FMM=F ISym2X=0 I1Cent= 0 IOpClX= 0 NMat=1 NMatS=1 NMatT=0.
 ***** Axes restored to original set *****
 -------------------------------------------------------------------
 Center     Atomic                   Forces (Hartrees/Bohr)
 Number     Number              X              Y              Z
 -------------------------------------------------------------------
      1        6           0.000071888   -0.000036631   -0.000080522
      2        7           0.000002285    0.000045239    0.000163733
      3        6          -0.000076040   -0.000022661   -0.000084672
      4        1          -0.000005482   -0.000003878    0.000009270
      5        1           0.000000668    0.000006357   -0.000009039
      6        1          -0.000037086    0.000006543   -0.000001654
      7        1           0.000000231    0.000003979    0.000002051
      8        1           0.000001210    0.000006526   -0.000008736
      9        1           0.000004370   -0.000004833    0.000009626
     10        1           0.000037956   -0.000000643   -0.000000056
 -------------------------------------------------------------------
 Cartesian Forces:  Max     0.000163733 RMS     0.000044238

 GradGradGradGradGradGradGradGradGradGradGradGradGradGradGradGradGradGrad
 Berny optimization.
 Using GEDIIS/GDIIS optimizer.
 FormGI is forming the generalized inverse of G from B-inverse, IUseBI=4.
 Internal  Forces:  Max     0.000090313 RMS     0.000026967
 Search for a local minimum.
 Step number   4 out of a maximum of   46
 All quantities printed in internal units (Hartrees-Bohrs-Radians)
 Mixed Optimization -- En-DIIS/RFO-DIIS
 Swapping is turned off.
 Update second derivatives using D2CorX and points    1    2    3    4
 DE= -1.39D-06 DEPred=-1.37D-06 R= 1.01D+00
 TightC=F SS=  1.41D+00  RLast= 7.88D-03 DXNew= 8.4853D-01 2.3631D-02
 Trust test= 1.01D+00 RLast= 7.88D-03 DXMaxT set to 5.05D-01
 ITU=  1  1  1  0
     Eigenvalues ---    0.00918   0.00933   0.02547   0.06982   0.06991
     Eigenvalues ---    0.07586   0.07818   0.11073   0.15909   0.16000
     Eigenvalues ---    0.16000   0.16000   0.16248   0.17810   0.24432
     Eigenvalues ---    0.33998   0.34207   0.34601   0.34608   0.34670
     Eigenvalues ---    0.35066   0.37292   0.37625   0.45511
 En-DIIS/RFO-DIIS/Sim-DIIS IScMMF=       -3 using points:     4    3    2
 RFO step:  Lambda=-1.30181752D-07.
 DidBck=F Rises=F RFO-DIIS coefs:    1.16908   -0.17786    0.00878
 Iteration  1 RMS(Cart)=  0.00038652 RMS(Int)=  0.00000018
 Iteration  2 RMS(Cart)=  0.00000013 RMS(Int)=  0.00000015
 Variable       Old X    -DE/DX   Delta X   Delta X   Delta X     New X
                                 (Linear)    (Quad)   (Total)
    R1        2.75149   0.00007   0.00001   0.00020   0.00021   2.75169
    R2        2.07144  -0.00001  -0.00004   0.00001  -0.00002   2.07142
    R3        2.09075   0.00000  -0.00003   0.00003  -0.00000   2.09074
    R4        2.06759  -0.00003  -0.00006  -0.00005  -0.00012   2.06747
    R5        2.75148   0.00007   0.00001   0.00020   0.00021   2.75169
    R6        1.92077  -0.00000   0.00004  -0.00001   0.00003   1.92080
    R7        2.09075   0.00000  -0.00003   0.00003  -0.00001   2.09074
    R8        2.07144  -0.00001  -0.00004   0.00001  -0.00003   2.07142
    R9        2.06759  -0.00003  -0.00006  -0.00005  -0.00012   2.06747
    A1        1.90757  -0.00001  -0.00001  -0.00001  -0.00002   1.90756
    A2        1.99673   0.00002  -0.00018   0.00024   0.00006   1.99679
    A3        1.91639  -0.00003   0.00014  -0.00034  -0.00019   1.91620
    A4        1.87217  -0.00000  -0.00017   0.00011  -0.00006   1.87212
    A5        1.87830   0.00001   0.00009  -0.00002   0.00007   1.87836
    A6        1.88877   0.00001   0.00013   0.00002   0.00015   1.88893
    A7        1.96532  -0.00009  -0.00000  -0.00046  -0.00046   1.96486
    A8        1.90533   0.00002  -0.00024   0.00014  -0.00010   1.90523
    A9        1.90533   0.00002  -0.00024   0.00014  -0.00010   1.90523
   A10        1.99673   0.00002  -0.00018   0.00024   0.00005   1.99679
   A11        1.90758  -0.00001  -0.00001  -0.00001  -0.00002   1.90756
   A12        1.91640  -0.00003   0.00014  -0.00034  -0.00020   1.91620
   A13        1.87217  -0.00000  -0.00017   0.00011  -0.00006   1.87212
   A14        1.88877   0.00001   0.00014   0.00002   0.00016   1.88893
   A15        1.87830   0.00001   0.00009  -0.00002   0.00007   1.87836
    D1        1.14286   0.00001   0.00020   0.00048   0.00068   1.14354
    D2       -3.02122   0.00000  -0.00027   0.00045   0.00018  -3.02104
    D3       -0.95640   0.00001   0.00055   0.00018   0.00073  -0.95567
    D4        1.16270  -0.00000   0.00007   0.00016   0.00023   1.16293
    D5       -3.08374   0.00001   0.00039   0.00024   0.00064  -3.08310
    D6       -0.96464  -0.00001  -0.00008   0.00022   0.00013  -0.96450
    D7        0.95641  -0.00001  -0.00055  -0.00018  -0.00073   0.95568
    D8       -1.14286  -0.00001  -0.00021  -0.00048  -0.00068  -1.14354
    D9        3.08374  -0.00001  -0.00039  -0.00025  -0.00064   3.08311
   D10       -1.16269   0.00000  -0.00007  -0.00016  -0.00023  -1.16292
   D11        3.02123  -0.00000   0.00027  -0.00045  -0.00018   3.02105
   D12        0.96464   0.00001   0.00008  -0.00022  -0.00014   0.96451
         Item               Value     Threshold  Converged?
 Maximum Force            0.000090     0.000450     YES
 RMS     Force            0.000027     0.000300     YES
 Maximum Displacement     0.001043     0.001800     YES
 RMS     Displacement     0.000387     0.001200     YES
 Predicted change in Energy=-6.502385D-08
 Optimization completed.
    -- Stationary point found.
                           ----------------------------
                           !   Optimized Parameters   !
                           ! (Angstroms and Degrees)  !
 --------------------------                            --------------------------
 ! Name  Definition              Value          Derivative Info.                !
 --------------------------------------------------------------------------------
 ! R1    R(1,2)                  1.456          -DE/DX =    0.0001              !
 ! R2    R(1,4)                  1.0962         -DE/DX =    0.0                 !
 ! R3    R(1,5)                  1.1064         -DE/DX =    0.0                 !
 ! R4    R(1,6)                  1.0941         -DE/DX =    0.0                 !
 ! R5    R(2,3)                  1.456          -DE/DX =    0.0001              !
 ! R6    R(2,7)                  1.0164         -DE/DX =    0.0                 !
 ! R7    R(3,8)                  1.1064         -DE/DX =    0.0                 !
 ! R8    R(3,9)                  1.0962         -DE/DX =    0.0                 !
 ! R9    R(3,10)                 1.0941         -DE/DX =    0.0                 !
 ! A1    A(2,1,4)              109.296          -DE/DX =    0.0                 !
 ! A2    A(2,1,5)              114.4042         -DE/DX =    0.0                 !
 ! A3    A(2,1,6)              109.8013         -DE/DX =    0.0                 !
 ! A4    A(4,1,5)              107.2677         -DE/DX =    0.0                 !
 ! A5    A(4,1,6)              107.6185         -DE/DX =    0.0                 !
 ! A6    A(5,1,6)              108.2188         -DE/DX =    0.0                 !
 ! A7    A(1,2,3)              112.6046         -DE/DX =   -0.0001              !
 ! A8    A(1,2,7)              109.1671         -DE/DX =    0.0                 !
 ! A9    A(3,2,7)              109.1672         -DE/DX =    0.0                 !
 ! A10   A(2,3,8)              114.4043         -DE/DX =    0.0                 !
 ! A11   A(2,3,9)              109.296          -DE/DX =    0.0                 !
 ! A12   A(2,3,10)             109.8014         -DE/DX =    0.0                 !
 ! A13   A(8,3,9)              107.2675         -DE/DX =    0.0                 !
 ! A14   A(8,3,10)             108.2186         -DE/DX =    0.0                 !
 ! A15   A(9,3,10)             107.6184         -DE/DX =    0.0                 !
 ! D1    D(4,1,2,3)             65.4813         -DE/DX =    0.0                 !
 ! D2    D(4,1,2,7)           -173.1031         -DE/DX =    0.0                 !
 ! D3    D(5,1,2,3)            -54.7977         -DE/DX =    0.0                 !
 ! D4    D(5,1,2,7)             66.6179         -DE/DX =    0.0                 !
 ! D5    D(6,1,2,3)           -176.6852         -DE/DX =    0.0                 !
 ! D6    D(6,1,2,7)            -55.2695         -DE/DX =    0.0                 !
 ! D7    D(1,2,3,8)             54.7981         -DE/DX =    0.0                 !
 ! D8    D(1,2,3,9)            -65.4809         -DE/DX =    0.0                 !
 ! D9    D(1,2,3,10)           176.6856         -DE/DX =    0.0                 !
 ! D10   D(7,2,3,8)            -66.6174         -DE/DX =    0.0                 !
 ! D11   D(7,2,3,9)            173.1036         -DE/DX =    0.0                 !
 ! D12   D(7,2,3,10)            55.27           -DE/DX =    0.0                 !
 --------------------------------------------------------------------------------
 GradGradGradGradGradGradGradGradGradGradGradGradGradGradGradGradGradGrad

                          Input orientation:                          
 ---------------------------------------------------------------------
 Center     Atomic      Atomic             Coordinates (Angstroms)
 Number     Number       Type             X           Y           Z
 ---------------------------------------------------------------------
      1          6           0        1.213584   -0.052639   -0.073527
      2          7           0       -0.002363    0.119695    0.708638
      3          6           0       -1.197586    0.179232   -0.120757
      4          1           0        1.374739    0.837008   -0.693303
      5          1           0        1.201122   -0.927115   -0.751175
      6          1           0        2.073840   -0.150489    0.595416
      7          1           0       -0.089409   -0.651884    1.364545
      8          1           0       -1.325658   -0.684129   -0.800666
      9          1           0       -1.162141    1.080965   -0.743001
     10          1           0       -2.086028    0.249554    0.513929
 ---------------------------------------------------------------------
                    Distance matrix (angstroms):
                    1          2          3          4          5
     1  C    0.000000
     2  N    1.456025   0.000000
     3  C    2.422754   1.456022   0.000000
     4  H    1.096160   2.091982   2.716126   0.000000
     5  H    1.106377   2.162230   2.715738   1.773590   0.000000
     6  H    1.094121   2.096768   3.365093   1.767679   1.782721
     7  H    2.030994   1.016428   2.030993   2.931769   2.493490
     8  H    2.715743   2.162231   1.106378   3.101214   2.538918
     9  H    2.716123   2.091980   1.096160   2.549068   3.101203
    10  H    3.365095   2.096768   1.094121   3.712065   3.713542
                    6          7          8          9         10
     6  H    0.000000
     7  H    2.350022   0.000000
     8  H    3.713543   2.493490   0.000000
     9  H    3.712063   2.931769   1.773589   0.000000
    10  H    4.179854   2.350027   1.782720   1.767678   0.000000
 Stoichiometry    C2H7N
 Framework group  C1[X(C2H7N)]
 Deg. of freedom    24
 Full point group                 C1      NOp   1
 Largest Abelian subgroup         C1      NOp   1
 Largest concise Abelian subgroup C1      NOp   1
                         Standard orientation:                         
 ---------------------------------------------------------------------
 Center     Atomic      Atomic             Coordinates (Angstroms)
 Number     Number       Type             X           Y           Z
 ---------------------------------------------------------------------
      1          6           0        1.211378   -0.222735    0.020419
      2          7           0       -0.000001    0.566914   -0.149944
      3          6           0       -1.211376   -0.222735    0.020419
      4          1           0        1.274536   -0.966860   -0.781987
      5          1           0        1.269457   -0.769372    0.980567
      6          1           0        2.089926    0.424604   -0.058347
      7          1           0        0.000000    1.327680    0.524119
      8          1           0       -1.269461   -0.769368    0.980569
      9          1           0       -1.274532   -0.966866   -0.781982
     10          1           0       -2.089928    0.424600   -0.058354
 ---------------------------------------------------------------------
 Rotational constants (GHZ):          34.5281438           9.3147205           8.2214686

 **********************************************************************

            Population analysis using the SCF Density.

 **********************************************************************

 Orbital symmetries:
       Occupied  (A) (A) (A) (A) (A) (A) (A) (A) (A) (A) (A) (A)
                 (A)
       Virtual   (A) (A) (A) (A) (A) (A) (A) (A) (A) (A) (A) (A)
                 (A) (A) (A) (A) (A) (A) (A) (A) (A) (A) (A) (A)
                 (A) (A) (A) (A) (A) (A) (A) (A) (A) (A) (A) (A)
                 (A) (A) (A) (A) (A) (A) (A) (A) (A) (A) (A) (A)
                 (A) (A) (A) (A) (A) (A) (A) (A) (A) (A) (A) (A)
                 (A) (A) (A) (A) (A) (A) (A)
 The electronic state is 1-A.
 Alpha  occ. eigenvalues --  -14.31359 -10.19732 -10.19731  -0.89213  -0.69490
 Alpha  occ. eigenvalues --   -0.62255  -0.48277  -0.43548  -0.42986  -0.38142
 Alpha  occ. eigenvalues --   -0.35989  -0.35729  -0.21527
 Alpha virt. eigenvalues --    0.08716   0.13346   0.15167   0.15610   0.17092
 Alpha virt. eigenvalues --    0.18921   0.19323   0.21133   0.26782   0.51878
 Alpha virt. eigenvalues --    0.52867   0.57483   0.57965   0.58525   0.72168
 Alpha virt. eigenvalues --    0.73854   0.79494   0.80957   0.83535   0.88266
 Alpha virt. eigenvalues --    0.89875   0.89907   0.92012   0.95333   0.95609
 Alpha virt. eigenvalues --    1.00914   1.30798   1.32416   1.38734   1.40779
 Alpha virt. eigenvalues --    1.58871   1.71965   1.79271   1.87205   1.93465
 Alpha virt. eigenvalues --    1.97274   2.04478   2.04635   2.05618   2.09128
 Alpha virt. eigenvalues --    2.09403   2.11188   2.14151   2.28200   2.35499
 Alpha virt. eigenvalues --    2.39159   2.41213   2.56731   2.59446   2.67286
 Alpha virt. eigenvalues --    2.69140   2.72760   2.74846   2.87526   2.89235
 Alpha virt. eigenvalues --    2.94022   2.97724   3.15431   3.20320   3.31426
 Alpha virt. eigenvalues --    3.41576   3.45699   3.47935   3.53984   4.01495
 Alpha virt. eigenvalues --    4.44340   4.49477
          Condensed to atoms (all electrons):
               1          2          3          4          5          6
     1  C    4.798428   0.332074  -0.058830   0.391152   0.365600   0.387963
     2  N    0.332074   6.728416   0.332075  -0.043972  -0.050290  -0.033070
     3  C   -0.058830   0.332075   4.798426  -0.003598  -0.006666   0.005612
     4  H    0.391152  -0.043972  -0.003598   0.610576  -0.049883  -0.026959
     5  H    0.365600  -0.050290  -0.006666  -0.049883   0.697194  -0.040654
     6  H    0.387963  -0.033070   0.005612  -0.026959  -0.040654   0.607127
     7  H   -0.042709   0.345815  -0.042709   0.006635  -0.004661  -0.004202
     8  H   -0.006666  -0.050290   0.365600  -0.002132   0.014635  -0.000190
     9  H   -0.003598  -0.043972   0.391152   0.006995  -0.002132   0.000043
    10  H    0.005612  -0.033070   0.387963   0.000043  -0.000190  -0.000278
               7          8          9         10
     1  C   -0.042709  -0.006666  -0.003598   0.005612
     2  N    0.345815  -0.050290  -0.043972  -0.033070
     3  C   -0.042709   0.365600   0.391152   0.387963
     4  H    0.006635  -0.002132   0.006995   0.000043
     5  H   -0.004661   0.014635  -0.002132  -0.000190
     6  H   -0.004202  -0.000190   0.000043  -0.000278
     7  H    0.507891  -0.004661   0.006635  -0.004202
     8  H   -0.004661   0.697195  -0.049883  -0.040654
     9  H    0.006635  -0.049883   0.610576  -0.026959
    10  H   -0.004202  -0.040654  -0.026959   0.607127
 Mulliken charges:
               1
     1  C   -0.169024
     2  N   -0.483717
     3  C   -0.169024
     4  H    0.111143
     5  H    0.077047
     6  H    0.104608
     7  H    0.236168
     8  H    0.077047
     9  H    0.111143
    10  H    0.104608
 Sum of Mulliken charges =  -0.00000
 Mulliken charges with hydrogens summed into heavy atoms:
               1
     1  C    0.123775
     2  N   -0.247549
     3  C    0.123774
 Electronic spatial extent (au):  <R**2>=            204.2045
 Charge=             -0.0000 electrons
 Dipole moment (field-independent basis, Debye):
    X=              0.0000    Y=             -0.1520    Z=              0.9933  Tot=              1.0049
 Quadrupole moment (field-independent basis, Debye-Ang):
   XX=            -19.5312   YY=            -20.2254   ZZ=            -21.5060
   XY=              0.0000   XZ=              0.0000   YZ=              1.9976
 Traceless Quadrupole moment (field-independent basis, Debye-Ang):
   XX=              0.8897   YY=              0.1954   ZZ=             -1.0851
   XY=              0.0000   XZ=              0.0000   YZ=              1.9976
 Octapole moment (field-independent basis, Debye-Ang**2):
  XXX=              0.0000  YYY=              3.1432  ZZZ=              0.6420  XYY=              0.0000
  XXY=              1.7647  XXZ=             -0.7193  XZZ=              0.0000  YZZ=             -0.4192
  YYZ=              1.5022  XYZ=              0.0000
 Hexadecapole moment (field-independent basis, Debye-Ang**3):
 XXXX=           -177.0557 YYYY=            -54.7089 ZZZZ=            -38.1518 XXXY=              0.0000
 XXXZ=              0.0000 YYYX=              0.0000 YYYZ=              4.1846 ZZZX=             -0.0000
 ZZZY=              2.1436 XXYY=            -38.6760 XXZZ=            -37.3654 YYZZ=            -15.1123
 XXYZ=              0.5563 YYXZ=              0.0000 ZZXY=             -0.0000
 N-N= 8.403417394385D+01 E-N=-4.812522480977D+02  KE= 1.338397820700D+02
 Unable to Open any file for archive entry.
 1\1\GINC-NOTCH289\FOpt\RB3LYP\6-31G(d,p)\C2H7N1\U6032257\23-Sep-2022\0
 \\# B3LYP/6-31G(d,p) empiricaldispersion=GD3BJ int=(grid=ultrafine) op
 t freq=noraman\\SecN4.xyz\\0,1\C,1.2135838519,-0.0526390615,-0.0735269
 049\N,-0.0023628334,0.1196951033,0.708638117\C,-1.1975863633,0.1792322
 752,-0.120756597\H,1.3747393561,0.8370082734,-0.693302943\H,1.20112166
 12,-0.9271146542,-0.7511748975\H,2.073840152,-0.150488612,0.5954159263
 \H,-0.0894088405,-0.6518836175,1.3645452307\H,-1.3256576307,-0.6841288
 83,-0.8006661288\H,-1.1621409489,1.0809649163,-0.7430011776\H,-2.08602
 84043,0.2495542601,0.5139293749\\Version=ES64L-G16RevC.01\State=1-A\HF
 =-135.1825755\RMSD=4.400e-09\RMSF=4.424e-05\Dipole=-0.0339576,-0.37663
 3,-0.115315\Quadrupole=0.6574961,-0.361197,-0.2962991,-0.0679158,-0.13
 06359,-1.5535609\PG=C01 [X(C2H7N1)]\\@
 The archive entry for this job was punched.


 DO NOT LET SELFISH MEN OR GREEDY INTERESTS SKIN YOUR COUNTRY OF ITS
 BEAUTY, ITS RICHES, OR ITS ROMANCE. -- THEODORE ROOSEVELT
 Job cpu time:       0 days  0 hours  5 minutes 54.7 seconds.
 Elapsed time:       0 days  0 hours  0 minutes  6.2 seconds.
 File lengths (MBytes):  RWF=     10 Int=      0 D2E=      0 Chk=      2 Scr=      1
 Normal termination of Gaussian 16 at Fri Sep 23 15:52:35 2022.
 Link1:  Proceeding to internal job step number  2.
 ----------------------------------------------------------------------
 #N Geom=AllCheck Guess=TCheck SCRF=Check GenChk RB3LYP/6-31G(d,p) Freq
 ----------------------------------------------------------------------
 1/10=4,29=7,30=1,38=1,40=1/1,3;
 2/12=2,40=1/2;
 3/5=1,6=6,7=101,11=2,14=-4,25=1,30=1,70=2,71=2,74=-5,75=-5,116=1,124=41,140=1/1,2,3;
 4/5=101/1;
 5/5=2,38=6,98=1/2;
 8/6=4,10=90,11=11/1;
 11/6=1,8=1,9=11,15=111,16=1/1,2,10;
 10/6=1/2;
 6/7=2,8=2,9=2,10=2,28=1/1;
 7/8=1,10=1,25=1/1,2,3,16;
 1/10=4,30=1/3;
 99//99;
 Structure from the checkpoint file:  "SecN4_conf-1.chk"
 ---------
 SecN4.xyz
 ---------
 Charge =  0 Multiplicity = 1
 Redundant internal coordinates found in file.  (old form).
 C,0,1.2135838519,-0.0526390615,-0.0735269049
 N,0,-0.0023628334,0.1196951033,0.708638117
 C,0,-1.1975863633,0.1792322752,-0.120756597
 H,0,1.3747393561,0.8370082734,-0.693302943
 H,0,1.2011216612,-0.9271146542,-0.7511748975
 H,0,2.073840152,-0.150488612,0.5954159263
 H,0,-0.0894088405,-0.6518836175,1.3645452307
 H,0,-1.3256576307,-0.684128883,-0.8006661288
 H,0,-1.1621409489,1.0809649163,-0.7430011776
 H,0,-2.0860284043,0.2495542601,0.5139293749
 Recover connectivity data from disk.

 GradGradGradGradGradGradGradGradGradGradGradGradGradGradGradGradGradGrad
 Berny optimization.
 Initialization pass.
                           ----------------------------
                           !    Initial Parameters    !
                           ! (Angstroms and Degrees)  !
 --------------------------                            --------------------------
 ! Name  Definition              Value          Derivative Info.                !
 --------------------------------------------------------------------------------
 ! R1    R(1,2)                  1.456          calculate D2E/DX2 analytically  !
 ! R2    R(1,4)                  1.0962         calculate D2E/DX2 analytically  !
 ! R3    R(1,5)                  1.1064         calculate D2E/DX2 analytically  !
 ! R4    R(1,6)                  1.0941         calculate D2E/DX2 analytically  !
 ! R5    R(2,3)                  1.456          calculate D2E/DX2 analytically  !
 ! R6    R(2,7)                  1.0164         calculate D2E/DX2 analytically  !
 ! R7    R(3,8)                  1.1064         calculate D2E/DX2 analytically  !
 ! R8    R(3,9)                  1.0962         calculate D2E/DX2 analytically  !
 ! R9    R(3,10)                 1.0941         calculate D2E/DX2 analytically  !
 ! A1    A(2,1,4)              109.296          calculate D2E/DX2 analytically  !
 ! A2    A(2,1,5)              114.4042         calculate D2E/DX2 analytically  !
 ! A3    A(2,1,6)              109.8013         calculate D2E/DX2 analytically  !
 ! A4    A(4,1,5)              107.2677         calculate D2E/DX2 analytically  !
 ! A5    A(4,1,6)              107.6185         calculate D2E/DX2 analytically  !
 ! A6    A(5,1,6)              108.2188         calculate D2E/DX2 analytically  !
 ! A7    A(1,2,3)              112.6046         calculate D2E/DX2 analytically  !
 ! A8    A(1,2,7)              109.1671         calculate D2E/DX2 analytically  !
 ! A9    A(3,2,7)              109.1672         calculate D2E/DX2 analytically  !
 ! A10   A(2,3,8)              114.4043         calculate D2E/DX2 analytically  !
 ! A11   A(2,3,9)              109.296          calculate D2E/DX2 analytically  !
 ! A12   A(2,3,10)             109.8014         calculate D2E/DX2 analytically  !
 ! A13   A(8,3,9)              107.2675         calculate D2E/DX2 analytically  !
 ! A14   A(8,3,10)             108.2186         calculate D2E/DX2 analytically  !
 ! A15   A(9,3,10)             107.6184         calculate D2E/DX2 analytically  !
 ! D1    D(4,1,2,3)             65.4813         calculate D2E/DX2 analytically  !
 ! D2    D(4,1,2,7)           -173.1031         calculate D2E/DX2 analytically  !
 ! D3    D(5,1,2,3)            -54.7977         calculate D2E/DX2 analytically  !
 ! D4    D(5,1,2,7)             66.6179         calculate D2E/DX2 analytically  !
 ! D5    D(6,1,2,3)           -176.6852         calculate D2E/DX2 analytically  !
 ! D6    D(6,1,2,7)            -55.2695         calculate D2E/DX2 analytically  !
 ! D7    D(1,2,3,8)             54.7981         calculate D2E/DX2 analytically  !
 ! D8    D(1,2,3,9)            -65.4809         calculate D2E/DX2 analytically  !
 ! D9    D(1,2,3,10)           176.6856         calculate D2E/DX2 analytically  !
 ! D10   D(7,2,3,8)            -66.6174         calculate D2E/DX2 analytically  !
 ! D11   D(7,2,3,9)            173.1036         calculate D2E/DX2 analytically  !
 ! D12   D(7,2,3,10)            55.27           calculate D2E/DX2 analytically  !
 --------------------------------------------------------------------------------
 Trust Radius=3.00D-01 FncErr=1.00D-07 GrdErr=1.00D-07 EigMax=2.50D+02 EigMin=1.00D-04
 Number of steps in this run=      2 maximum allowed number of steps=      2.
 GradGradGradGradGradGradGradGradGradGradGradGradGradGradGradGradGradGrad

                          Input orientation:                          
 ---------------------------------------------------------------------
 Center     Atomic      Atomic             Coordinates (Angstroms)
 Number     Number       Type             X           Y           Z
 ---------------------------------------------------------------------
      1          6           0        1.213584   -0.052639   -0.073527
      2          7           0       -0.002363    0.119695    0.708638
      3          6           0       -1.197586    0.179232   -0.120757
      4          1           0        1.374739    0.837008   -0.693303
      5          1           0        1.201122   -0.927115   -0.751175
      6          1           0        2.073840   -0.150489    0.595416
      7          1           0       -0.089409   -0.651884    1.364545
      8          1           0       -1.325658   -0.684129   -0.800666
      9          1           0       -1.162141    1.080965   -0.743001
     10          1           0       -2.086028    0.249554    0.513929
 ---------------------------------------------------------------------
                    Distance matrix (angstroms):
                    1          2          3          4          5
     1  C    0.000000
     2  N    1.456025   0.000000
     3  C    2.422754   1.456022   0.000000
     4  H    1.096160   2.091982   2.716126   0.000000
     5  H    1.106377   2.162230   2.715738   1.773590   0.000000
     6  H    1.094121   2.096768   3.365093   1.767679   1.782721
     7  H    2.030994   1.016428   2.030993   2.931769   2.493490
     8  H    2.715743   2.162231   1.106378   3.101214   2.538918
     9  H    2.716123   2.091980   1.096160   2.549068   3.101203
    10  H    3.365095   2.096768   1.094121   3.712065   3.713542
                    6          7          8          9         10
[...]
 ! R9    R(3,10)                 1.0941                                         !
 ! A1    A(2,1,4)              109.296                                          !
 ! A2    A(2,1,5)              114.4042                                         !
 ! A3    A(2,1,6)              109.8013                                         !
 ! A4    A(4,1,5)              107.2677                                         !
 ! A5    A(4,1,6)              107.6185                                         !
 ! A6    A(5,1,6)              108.2188                                         !
 ! A7    A(1,2,3)              112.6046                                         !
 ! A8    A(1,2,7)              109.1671                                         !
 ! A9    A(3,2,7)              109.1672                                         !
 ! A10   A(2,3,8)              114.4043                                         !
 ! A11   A(2,3,9)              109.296                                          !
 ! A12   A(2,3,10)             109.8014                                         !
 ! A13   A(8,3,9)              107.2675                                         !
 ! A14   A(8,3,10)             108.2186                                         !
 ! A15   A(9,3,10)             107.6184                                         !
 ! D1    D(4,1,2,3)             65.4813                                         !
 ! D2    D(4,1,2,7)           -173.1031                                         !
 ! D3    D(5,1,2,3)            -54.7977                                         !
 ! D4    D(5,1,2,7)             66.6179                                         !
 ! D5    D(6,1,2,3)           -176.6852                                         !
 ! D6    D(6,1,2,7)            -55.2695                                         !
 ! D7    D(1,2,3,8)             54.7981                                         !
 ! D8    D(1,2,3,9)            -65.4809                                         !
 ! D9    D(1,2,3,10)           176.6856                                         !
 ! D10   D(7,2,3,8)            -66.6174                                         !
 ! D11   D(7,2,3,9)            173.1036                                         !
 ! D12   D(7,2,3,10)            55.27                                           !
 --------------------------------------------------------------------------------
                          Input orientation:                          
 ---------------------------------------------------------------------
 Center     Atomic      Atomic             Coordinates (Angstroms)
 Number     Number       Type             X           Y           Z
 ---------------------------------------------------------------------
      1          6           0        1.213584   -0.052639   -0.073527
      2          7           0       -0.002363    0.119695    0.708638
      3          6           0       -1.197586    0.179232   -0.120757
      4          1           0        1.374739    0.837008   -0.693303
      5          1           0        1.201122   -0.927115   -0.751175
      6          1           0        2.073840   -0.150489    0.595416
      7          1           0       -0.089409   -0.651884    1.364545
      8          1           0       -1.325658   -0.684129   -0.800666
      9          1           0       -1.162141    1.080965   -0.743001
     10          1           0       -2.086028    0.249554    0.513929
 ---------------------------------------------------------------------
                    Distance matrix (angstroms):
                    1          2          3          4          5
     1  C    0.000000
     2  N    1.456025   0.000000
     3  C    2.422754   1.456022   0.000000
     4  H    1.096160   2.091982   2.716126   0.000000
     5  H    1.106377   2.162230   2.715738   1.773590   0.000000
     6  H    1.094121   2.096768   3.365093   1.767679   1.782721
     7  H    2.030994   1.016428   2.030993   2.931769   2.493490
     8  H    2.715743   2.162231   1.106378   3.101214   2.538918
     9  H    2.716123   2.091980   1.096160   2.549068   3.101203
    10  H    3.365095   2.096768   1.094121   3.712065   3.713542
                    6          7          8          9         10
     6  H    0.000000
     7  H    2.350022   0.000000
     8  H    3.713543   2.493490   0.000000
     9  H    3.712063   2.931769   1.773589   0.000000
    10  H    4.179854   2.350027   1.782720   1.767678   0.000000
 Stoichiometry    C2H7N
 Framework group  C1[X(C2H7N)]
 Deg. of freedom    24
 Full point group                 C1      NOp   1
 Largest Abelian subgroup         C1      NOp   1
 Largest concise Abelian subgroup C1      NOp   1
                         Standard orientation:                         
 ---------------------------------------------------------------------
 Center     Atomic      Atomic             Coordinates (Angstroms)
 Number     Number       Type             X           Y           Z
 ---------------------------------------------------------------------
      1          6           0        1.211378   -0.222735    0.020419
      2          7           0       -0.000001    0.566914   -0.149944
      3          6           0       -1.211376   -0.222735    0.020419
      4          1           0        1.274536   -0.966860   -0.781987
      5          1           0        1.269457   -0.769372    0.980567
      6          1           0        2.089926    0.424604   -0.058347
      7          1           0        0.000000    1.327680    0.524119
      8          1           0       -1.269461   -0.769368    0.980569
      9          1           0       -1.274532   -0.966866   -0.781982
     10          1           0       -2.089928    0.424600   -0.058354
 ---------------------------------------------------------------------
 Rotational constants (GHZ):          34.5281438           9.3147205           8.2214686
 Standard basis: def2TZVP (5D, 7F)
 There are   150 symmetry adapted cartesian basis functions of A   symmetry.
 There are   135 symmetry adapted basis functions of A   symmetry.
   135 basis functions,   209 primitive gaussians,   150 cartesian basis functions
    13 alpha electrons       13 beta electrons
       nuclear repulsion energy        84.0427276424 Hartrees.
 NAtoms=   10 NActive=   10 NUniq=   10 SFac= 1.00D+00 NAtFMM=   60 NAOKFM=F Big=F
 Integral buffers will be    131072 words long.
 Raffenetti 2 integral format.
 Two-electron integral symmetry is turned on.
 One-electron integrals computed using PRISM.
   1 Symmetry operations used in ECPInt.
 ECPInt:  NShTT=    1891 NPrTT=    5340 LenC2=    1889 LenP2D=    4753.
 LDataN:  DoStor=T MaxTD1= 6 Len=  172
 NBasis=   135 RedAO= T EigKep=  9.40D-04  NBF=   135
 NBsUse=   135 1.00D-06 EigRej= -1.00D+00 NBFU=   135
 Initial guess from the checkpoint file:  "SecN4_conf-1.chk"
 B after Tr=     0.000000    0.000000   -0.000000
         Rot=    1.000000   -0.000000   -0.000000    0.000000 Ang=   0.00 deg.
 Keep R1 ints in memory in canonical form, NReq=104688872.
 Requested convergence on RMS density matrix=1.00D-08 within 128 cycles.
 Requested convergence on MAX density matrix=1.00D-06.
 Requested convergence on             energy=1.00D-06.
 No special actions if energy rises.
 SCF Done:  E(RM062X) =  -135.141358095     A.U. after    1 cycles
            NFock=  1  Conv=0.32D-09     -V/T= 2.0056
 DoSCS=F DFT=T ScalE2(SS,OS)=  1.000000  1.000000
 Range of M.O.s used for correlation:     1   135
 NBasis=   135 NAE=    13 NBE=    13 NFC=     0 NFV=     0
 NROrb=    135 NOA=    13 NOB=    13 NVA=   122 NVB=   122

 **** Warning!!: The largest alpha MO coefficient is  0.10227268D+02

          Differentiating once with respect to magnetic field using GIAOs.
          Electric field/nuclear overlap derivatives assumed to be zero.
 Keep R3 ints in memory in canonical form, NReq=107987515.
   1 Symmetry operations used in ECPInt.
 ECPInt:  NShTT=    1891 NPrTT=    5340 LenC2=    1892 LenP2D=    5340.
 LDataN:  DoStor=T MaxTD1= 7 Len=  274
 FoFJK:  IHMeth= 1 ICntrl=    6127 DoSepK=F KAlg= 0 I1Cent=           0 FoldK=F
 IRaf=         1 NMat=       1 IRICut=       1 DoRegI=T DoRafI=F ISym2E= 0 IDoP0=0 IntGTp=1.
          There are     3 degrees of freedom in the 1st order CPHF.  IDoFFX=0 NUNeed=     3.
      3 vectors produced by pass  0 Test12= 5.29D-14 3.33D-08 XBig12= 1.03D+00 3.96D-01.
 AX will form     3 AO Fock derivatives at one time.
      3 vectors produced by pass  1 Test12= 5.29D-14 3.33D-08 XBig12= 3.76D-03 2.85D-02.
      3 vectors produced by pass  2 Test12= 5.29D-14 3.33D-08 XBig12= 3.36D-05 2.37D-03.
      3 vectors produced by pass  3 Test12= 5.29D-14 3.33D-08 XBig12= 2.70D-07 1.91D-04.
      3 vectors produced by pass  4 Test12= 5.29D-14 3.33D-08 XBig12= 2.62D-09 1.48D-05.
      3 vectors produced by pass  5 Test12= 5.29D-14 3.33D-08 XBig12= 1.63D-11 1.19D-06.
      3 vectors produced by pass  6 Test12= 5.29D-14 3.33D-08 XBig12= 1.06D-13 8.67D-08.
 InvSVY:  IOpt=1 It=  1 EMax= 2.22D-16
 Solved reduced A of dimension    21 with     3 vectors.
 Calculating GIAO nuclear magnetic shielding tensors.
 SCF GIAO Magnetic shielding tensor (ppm):
      1  C    Isotropic =   145.3241   Anisotropy =    60.7131
   XX=   171.9944   YX=   -22.5982   ZX=     0.9648
   XY=   -29.0836   YY=   135.9519   ZY=    -7.5417
   XZ=     0.7797   YZ=    -7.6649   ZZ=   128.0262
   Eigenvalues:   118.2447   131.9282   185.7996
      2  N    Isotropic =   235.0800   Anisotropy =    64.9932
   XX=   221.2818   YX=    -0.0003   ZX=    -0.0001
   XY=    -0.0002   YY=   268.6568   ZY=    25.9749
   XZ=    -0.0001   YZ=    23.6406   ZZ=   215.3014
   Eigenvalues:   205.5494   221.2818   278.4088
      3  C    Isotropic =   145.3243   Anisotropy =    60.7129
   XX=   171.9944   YX=    22.5982   ZX=    -0.9647
   XY=    29.0836   YY=   135.9522   ZY=    -7.5417
   XZ=    -0.7795   YZ=    -7.6649   ZZ=   128.0264
   Eigenvalues:   118.2448   131.9285   185.7996
      4  H    Isotropic =    29.7045   Anisotropy =     8.1012
   XX=    29.2630   YX=    -4.2624   ZX=    -2.2530
   XY=    -2.5525   YY=    29.9953   ZY=     3.1470
   XZ=    -1.3258   YZ=     2.4293   ZZ=    29.8552
   Eigenvalues:    26.0761    27.9321    35.1053
      5  H    Isotropic =    29.6575   Anisotropy =     8.5371
   XX=    28.8993   YX=    -3.9506   ZX=     3.2442
   XY=    -1.8961   YY=    28.9621   ZY=    -3.4163
   XZ=     1.7660   YZ=    -2.4430   ZZ=    31.1112
   Eigenvalues:    25.9773    27.6463    35.3489
      6  H    Isotropic =    29.2422   Anisotropy =     9.0447
   XX=    35.1165   YX=     2.0675   ZX=    -0.3460
   XY=     0.1183   YY=    27.0792   ZY=    -0.5430
   XZ=    -0.0791   YZ=    -0.8622   ZZ=    25.5308
   Eigenvalues:    25.2554    27.1991    35.2719
      7  H    Isotropic =    32.2691   Anisotropy =    14.0354
   XX=    32.1742   YX=     0.0000   ZX=    -0.0000
   XY=     0.0000   YY=    36.9313   ZY=     8.7023
   XZ=     0.0000   YZ=     7.4681   ZZ=    27.7018
   Eigenvalues:    23.0071    32.1742    41.6261
      8  H    Isotropic =    29.6575   Anisotropy =     8.5371
   XX=    28.8993   YX=     3.9506   ZX=    -3.2442
   XY=     1.8961   YY=    28.9621   ZY=    -3.4163
   XZ=    -1.7660   YZ=    -2.4430   ZZ=    31.1112
   Eigenvalues:    25.9773    27.6463    35.3489
      9  H    Isotropic =    29.7045   Anisotropy =     8.1012
   XX=    29.2630   YX=     4.2624   ZX=     2.2529
   XY=     2.5525   YY=    29.9953   ZY=     3.1470
   XZ=     1.3258   YZ=     2.4293   ZZ=    29.8551
   Eigenvalues:    26.0761    27.9321    35.1053
     10  H    Isotropic =    29.2421   Anisotropy =     9.0447
   XX=    35.1165   YX=    -2.0675   ZX=     0.3460
   XY=    -0.1183   YY=    27.0792   ZY=    -0.5430
   XZ=     0.0791   YZ=    -0.8622   ZZ=    25.5308
   Eigenvalues:    25.2554    27.1991    35.2719
 End of Minotr F.D. properties file   721 does not exist.
 End of Minotr F.D. properties file   722 does not exist.
 End of Minotr F.D. properties file   788 does not exist.

 **********************************************************************

            Population analysis using the SCF Density.

 **********************************************************************

 Orbital symmetries:
       Occupied  (A) (A) (A) (A) (A) (A) (A) (A) (A) (A) (A) (A)
                 (A)
       Virtual   (A) (A) (A) (A) (A) (A) (A) (A) (A) (A) (A) (A)
                 (A) (A) (A) (A) (A) (A) (A) (A) (A) (A) (A) (A)
                 (A) (A) (A) (A) (A) (A) (A) (A) (A) (A) (A) (A)
                 (A) (A) (A) (A) (A) (A) (A) (A) (A) (A) (A) (A)
                 (A) (A) (A) (A) (A) (A) (A) (A) (A) (A) (A) (A)
                 (A) (A) (A) (A) (A) (A) (A) (A) (A) (A) (A) (A)
                 (A) (A) (A) (A) (A) (A) (A) (A) (A) (A) (A) (A)
                 (A) (A) (A) (A) (A) (A) (A) (A) (A) (A) (A) (A)
                 (A) (A) (A) (A) (A) (A) (A) (A) (A) (A) (A) (A)
                 (A) (A) (A) (A) (A) (A) (A) (A) (A) (A) (A) (A)
                 (A) (A)
 The electronic state is 1-A.
 Alpha  occ. eigenvalues --  -14.72880 -10.54922 -10.54921  -1.00325  -0.78984
 Alpha  occ. eigenvalues --   -0.71146  -0.55918  -0.51183  -0.50030  -0.44859
 Alpha  occ. eigenvalues --   -0.42434  -0.42090  -0.28878
 Alpha virt. eigenvalues --    0.06707   0.10569   0.11669   0.13575   0.14740
 Alpha virt. eigenvalues --    0.16734   0.17381   0.18551   0.22003   0.25405
 Alpha virt. eigenvalues --    0.25828   0.27670   0.33814   0.36321   0.36358
 Alpha virt. eigenvalues --    0.39725   0.42764   0.47528   0.47915   0.51247
 Alpha virt. eigenvalues --    0.51526   0.51624   0.52265   0.56139   0.57525
 Alpha virt. eigenvalues --    0.58446   0.63716   0.63920   0.75019   0.76709
 Alpha virt. eigenvalues --    0.85373   0.92709   0.94031   0.99671   1.04849
 Alpha virt. eigenvalues --    1.05073   1.07361   1.12879   1.32769   1.37368
 Alpha virt. eigenvalues --    1.39427   1.46197   1.48826   1.50008   1.55509
 Alpha virt. eigenvalues --    1.56970   1.58671   1.59812   1.61526   1.61972
 Alpha virt. eigenvalues --    1.63615   1.77491   1.78663   1.87316   1.90203
 Alpha virt. eigenvalues --    1.97121   1.97882   2.00693   2.03761   2.07384
 Alpha virt. eigenvalues --    2.07776   2.12870   2.18499   2.23354   2.28410
 Alpha virt. eigenvalues --    2.33043   2.35239   2.39471   2.44031   2.47342
 Alpha virt. eigenvalues --    2.50936   2.51039   2.55021   2.61281   2.62568
 Alpha virt. eigenvalues --    2.70363   2.70673   2.73716   2.80323   2.85510
 Alpha virt. eigenvalues --    2.99100   3.04395   3.07110   3.09282   3.11517
 Alpha virt. eigenvalues --    3.13496   3.14832   3.26852   3.29305   3.31105
 Alpha virt. eigenvalues --    3.36733   3.37758   3.42401   3.51732   3.56281
 Alpha virt. eigenvalues --    3.56767   3.59809   3.66586   3.69963   4.00065
 Alpha virt. eigenvalues --    4.02651   4.11426   4.13925   4.17607   4.22345
 Alpha virt. eigenvalues --    4.32965   4.35610   4.55228   4.73652   4.79995
 Alpha virt. eigenvalues --    4.93336   5.02311   5.02594   5.15529   5.19317
 Alpha virt. eigenvalues --    5.23859   5.43911   5.44420   5.72943  22.41947
 Alpha virt. eigenvalues --   22.47198  32.26804
          Condensed to atoms (all electrons):
               1          2          3          4          5          6
     1  C    4.938543   0.275008  -0.070943   0.408917   0.421890   0.405164
     2  N    0.275008   6.715760   0.275008  -0.038797  -0.061335  -0.032828
     3  C   -0.070943   0.275008   4.938544  -0.008935  -0.007515   0.010470
     4  H    0.408917  -0.038797  -0.008935   0.558552  -0.055470  -0.017387
     5  H    0.421890  -0.061335  -0.007515  -0.055470   0.612598  -0.034755
     6  H    0.405164  -0.032828   0.010470  -0.017387  -0.034755   0.538247
     7  H   -0.050210   0.363069  -0.050210   0.010297  -0.009571  -0.006615
     8  H   -0.007516  -0.061335   0.421891  -0.004298   0.017189  -0.000400
     9  H   -0.008935  -0.038797   0.408916   0.007316  -0.004298   0.000170
    10  H    0.010470  -0.032829   0.405164   0.000170  -0.000400  -0.000375
               7          8          9         10
     1  C   -0.050210  -0.007516  -0.008935   0.010470
     2  N    0.363069  -0.061335  -0.038797  -0.032829
     3  C   -0.050210   0.421891   0.408916   0.405164
     4  H    0.010297  -0.004298   0.007316   0.000170
     5  H   -0.009571   0.017189  -0.004298  -0.000400
     6  H   -0.006615  -0.000400   0.000170  -0.000375
     7  H    0.540650  -0.009571   0.010297  -0.006615
     8  H   -0.009571   0.612599  -0.055470  -0.034755
     9  H    0.010297  -0.055470   0.558552  -0.017387
    10  H   -0.006615  -0.034755  -0.017387   0.538247
 Mulliken charges:
               1
     1  C   -0.322389
     2  N   -0.362926
     3  C   -0.322390
     4  H    0.139636
     5  H    0.121667
     6  H    0.138310
     7  H    0.208479
     8  H    0.121667
     9  H    0.139636
    10  H    0.138311
 Sum of Mulliken charges =  -0.00000
 Mulliken charges with hydrogens summed into heavy atoms:
               1
     1  C    0.077224
     2  N   -0.154447
     3  C    0.077223
 Electronic spatial extent (au):  <R**2>=            205.0769
 Charge=              0.0000 electrons
 Dipole moment (field-independent basis, Debye):
    X=              0.0000    Y=             -0.1957    Z=              1.0255  Tot=              1.0440
 Quadrupole moment (field-independent basis, Debye-Ang):
   XX=            -19.8565   YY=            -20.7126   ZZ=            -21.8669
   XY=              0.0000   XZ=              0.0000   YZ=              2.0842
 Traceless Quadrupole moment (field-independent basis, Debye-Ang):
   XX=              0.9555   YY=              0.0994   ZZ=             -1.0549
   XY=              0.0000   XZ=              0.0000   YZ=              2.0842
 Octapole moment (field-independent basis, Debye-Ang**2):
  XXX=              0.0000  YYY=              3.2453  ZZZ=              0.8861  XYY=              0.0000
  XXY=              2.0017  XXZ=             -0.7201  XZZ=              0.0000  YZZ=             -0.7738
  YYZ=              1.6714  XYZ=              0.0000
 Hexadecapole moment (field-independent basis, Debye-Ang**3):
 XXXX=           -181.5958 YYYY=            -58.1941 ZZZZ=            -40.6613 XXXY=              0.0000
 XXXZ=              0.0000 YYYX=              0.0000 YYYZ=              4.9598 ZZZX=             -0.0000
 ZZZY=              2.4576 XXYY=            -39.7768 XXZZ=            -38.7557 YYZZ=            -15.9761
 XXYZ=              0.5205 YYXZ=              0.0000 ZZXY=             -0.0000
 N-N= 8.404272764241D+01 E-N=-4.817179983847D+02  KE= 1.343838110241D+02
 Unable to Open any file for archive entry.
 1\1\GINC-NOTCH289\SP\RM062X\def2TZVP\C2H7N1\U6032257\23-Sep-2022\0\\# 
 M062X/def2tzvp int=(grid=ultrafine) nmr=giao guess=read geom=check\\Se
 cN4.xyz\\0,1\C,0,1.2135838519,-0.0526390615,-0.0735269049\N,0,-0.00236
 28334,0.1196951033,0.708638117\C,0,-1.1975863633,0.1792322752,-0.12075
 6597\H,0,1.3747393561,0.8370082734,-0.693302943\H,0,1.2011216612,-0.92
 71146542,-0.7511748975\H,0,2.073840152,-0.150488612,0.5954159263\H,0,-
 0.0894088405,-0.6518836175,1.3645452307\H,0,-1.3256576307,-0.684128883
 ,-0.8006661288\H,0,-1.1621409489,1.0809649163,-0.7430011776\H,0,-2.086
 0284043,0.2495542601,0.5139293749\\Version=ES64L-G16RevC.01\State=1-A\
 HF=-135.1413581\RMSD=3.176e-10\Dipole=-0.0345554,-0.3866826,-0.1341454
 \Quadrupole=0.7064628,-0.3224416,-0.3840212,-0.0679464,-0.1326094,-1.6
 019215\PG=C01 [X(C2H7N1)]\\@
 The archive entry for this job was punched.


 The hours that make us happy make us wise.
                         -- John Masefield
 Job cpu time:       0 days  0 hours  2 minutes 57.8 seconds.
 Elapsed time:       0 days  0 hours  0 minutes  3.7 seconds.
 File lengths (MBytes):  RWF=     14 Int=      0 D2E=      0 Chk=      4 Scr=      1
 Normal termination of Gaussian 16 at Fri Sep 23 15:52:55 2022.
