 Entering Gaussian System, Link 0=/uufs/chpc.utah.edu/sys/installdir/gaussian16/C01/AVX2/g16/g16
 Input=SecN1_conf-1.com
 Output=SecN1_conf-1.log
 Initial command:
 /uufs/chpc.utah.edu/sys/installdir/gaussian16/C01/AVX2/g16/l1.exe "/scratch/general/lustre/u6032257/5776718/notchpeak.peaks/Gau-2000464.inp" -scrdir="/scratch/general/lustre/u6032257/5776718/notchpeak.peaks/"
 Entering Link 1 = /uufs/chpc.utah.edu/sys/installdir/gaussian16/C01/AVX2/g16/l1.exe PID=   2000466.
  
 Copyright (c) 1988-2019, Gaussian, Inc.  All Rights Reserved.
  
 This is part of the Gaussian(R) 16 program.  It is based on
 the Gaussian(R) 09 system (copyright 2009, Gaussian, Inc.),
 the Gaussian(R) 03 system (copyright 2003, Gaussian, Inc.),
 the Gaussian(R) 98 system (copyright 1998, Gaussian, Inc.),
 the Gaussian(R) 94 system (copyright 1995, Gaussian, Inc.),
 the Gaussian 92(TM) system (copyright 1992, Gaussian, Inc.),
 the Gaussian 90(TM) system (copyright 1990, Gaussian, Inc.),
 the Gaussian 88(TM) system (copyright 1988, Gaussian, Inc.),
 the Gaussian 86(TM) system (copyright 1986, Carnegie Mellon
 University), and the Gaussian 82(TM) system (copyright 1983,
 Carnegie Mellon University). Gaussian is a federally registered
 trademark of Gaussian, Inc.
  
 This software contains proprietary and confidential information,
 including trade secrets, belonging to Gaussian, Inc.
  
 This software is provided under written license and may be
 used, copied, transmitted, or stored only in accord with that
 written license.
  
 The following legend is applicable only to US Government
 contracts under FAR:
  
                    RESTRICTED RIGHTS LEGEND
  
 Use, reproduction and disclosure by the US Government is
 subject to restrictions as set forth in subparagraphs (a)
 and (c) of the Commercial Computer Software - Restricted
 Rights clause in FAR 52.227-19.
  
 Gaussian, Inc.
 340 Quinnipiac St., Bldg. 40, Wallingford CT 06492
  
  
 ---------------------------------------------------------------
 Warning -- This program may not be used in any manner that
 competes with the business of Gaussian, Inc. or will provide
 assistance to any competitor of Gaussian, Inc.  The licensee
 of this program is prohibited from giving any competitor of
 Gaussian, Inc. access to this program.  By using this program,
 the user acknowledges that Gaussian, Inc. is engaged in the
 business of creating and licensing software in the field of
 computational chemistry and represents and warrants to the
 licensee that it is not a competitor of Gaussian, Inc. and that
 it will not use this program in any manner prohibited above.
 ---------------------------------------------------------------
  

 Cite this work as:
 Gaussian 16, Revision C.01,
 M. J. Frisch, G. W. Trucks, H. B. Schlegel, G. E. Scuseria, 
 M. A. Robb, J. R. Cheeseman, G. Scalmani, V. Barone, 
 G. A. Petersson, H. Nakatsuji, X. Li, M. Caricato, A. V. Marenich, 
 J. Bloino, B. G. Janesko, R. Gomperts, B. Mennucci, H. P. Hratchian, 
 J. V. Ortiz, A. F. Izmaylov, J. L. Sonnenberg, D. Williams-Young, 
 F. Ding, F. Lipparini, F. Egidi, J. Goings, B. Peng, A. Petrone, 
 T. Henderson, D. Ranasinghe, V. G. Zakrzewski, J. Gao, N. Rega, 
 G. Zheng, W. Liang, M. Hada, M. Ehara, K. Toyota, R. Fukuda, 
 J. Hasegawa, M. Ishida, T. Nakajima, Y. Honda, O. Kitao, H. Nakai, 
 T. Vreven, K. Throssell, J. A. Montgomery, Jr., J. E. Peralta, 
 F. Ogliaro, M. J. Bearpark, J. J. Heyd, E. N. Brothers, K. N. Kudin, 
 V. N. Staroverov, T. A. Keith, R. Kobayashi, J. Normand, 
 K. Raghavachari, A. P. Rendell, J. C. Burant, S. S. Iyengar, 
 J. Tomasi, M. Cossi, J. M. Millam, M. Klene, C. Adamo, R. Cammi, 
 J. W. Ochterski, R. L. Martin, K. Morokuma, O. Farkas, 
 J. B. Foresman, and D. J. Fox, Gaussian, Inc., Wallingford CT, 2019.
 
 ******************************************
 Gaussian 16:  ES64L-G16RevC.01  3-Jul-2019
                25-Sep-2022 
 ******************************************
 %NProcShared=40
 Will use up to   40 processors via shared memory.
 %mem=16GB
 %chk=SecN1_conf-1.chk
 ----------------------------------------------------------------------
 # B3LYP/6-31G(d,p) empiricaldispersion=GD3BJ int=(grid=ultrafine) opt 
 freq=noraman
 ----------------------------------------------------------------------
 1/18=20,19=15,26=4,38=1/1,3;
 2/9=110,12=2,17=6,18=5,40=1/2;
 3/5=1,6=6,7=101,11=2,25=1,30=1,71=1,74=-5,75=-5,124=41/1,2,3;
 4//1;
 5/5=2,38=5/2;
 6/7=2,8=2,9=2,10=2,28=1/1;
 7//1,2,3,16;
 1/18=20,19=15,26=4/3(2);
 2/9=110/2;
 99//99;
 2/9=110/2;
 3/5=1,6=6,7=101,11=2,25=1,30=1,71=1,74=-5,75=-5,124=41/1,2,3;
 4/5=5,16=3,69=1/1;
 5/5=2,38=5/2;
 7//1,2,3,16;
 1/18=20,19=15,26=4/3(-5);
 2/9=110/2;
 6/7=2,8=2,9=2,10=2,19=2,28=1/1;
 99/9=1/99;
 ---------
 SecN1.xyz
 ---------
 Symbolic Z-matrix:
 Charge =  0 Multiplicity = 1
 C                     0.2862   -0.9612    1.0184 
 C                     0.6362    0.5098    1.3519 
 O                     0.9517    1.2283    0.1611 
 C                    -0.1408    1.2344   -0.7555 
 C                    -0.5163   -0.2129   -1.1579 
 N                    -0.7742   -1.0683    0.0078 
 H                     1.1817   -1.4758    0.6651 
 H                    -0.032    -1.4749    1.9269 
 H                     1.4972    0.5449    2.0197 
 H                    -0.1866    0.9916    1.8837 
 H                    -1.0006    1.7506   -0.3237 
 H                     0.148     1.8031   -1.6396 
 H                    -1.4035   -0.1959   -1.7927 
 H                     0.2888   -0.6432   -1.7565 
 H                    -0.9361   -2.0306   -0.2633 
 

 GradGradGradGradGradGradGradGradGradGradGradGradGradGradGradGradGradGrad
 Berny optimization.
 Initialization pass.
                           ----------------------------
                           !    Initial Parameters    !
                           ! (Angstroms and Degrees)  !
 --------------------------                            --------------------------
 ! Name  Definition              Value          Derivative Info.                !
 --------------------------------------------------------------------------------
 ! R1    R(1,2)                  1.5484         estimate D2E/DX2                !
 ! R2    R(1,6)                  1.4688         estimate D2E/DX2                !
 ! R3    R(1,7)                  1.0916         estimate D2E/DX2                !
 ! R4    R(1,8)                  1.0911         estimate D2E/DX2                !
 ! R5    R(2,3)                  1.4261         estimate D2E/DX2                !
 ! R6    R(2,9)                  1.0902         estimate D2E/DX2                !
 ! R7    R(2,10)                 1.0918         estimate D2E/DX2                !
 ! R8    R(3,4)                  1.4261         estimate D2E/DX2                !
 ! R9    R(4,5)                  1.5484         estimate D2E/DX2                !
 ! R10   R(4,11)                 1.0919         estimate D2E/DX2                !
 ! R11   R(4,12)                 1.0902         estimate D2E/DX2                !
 ! R12   R(5,6)                  1.4687         estimate D2E/DX2                !
 ! R13   R(5,13)                 1.091          estimate D2E/DX2                !
 ! R14   R(5,14)                 1.0916         estimate D2E/DX2                !
 ! R15   R(6,15)                 1.0128         estimate D2E/DX2                !
 ! A1    A(2,1,6)              112.3749         estimate D2E/DX2                !
 ! A2    A(2,1,7)              109.3983         estimate D2E/DX2                !
 ! A3    A(2,1,8)              109.5029         estimate D2E/DX2                !
 ! A4    A(6,1,7)              109.5853         estimate D2E/DX2                !
 ! A5    A(6,1,8)              109.1494         estimate D2E/DX2                !
 ! A6    A(7,1,8)              106.6656         estimate D2E/DX2                !
 ! A7    A(1,2,3)              110.4136         estimate D2E/DX2                !
 ! A8    A(1,2,9)              109.9402         estimate D2E/DX2                !
 ! A9    A(1,2,10)             110.7202         estimate D2E/DX2                !
 ! A10   A(3,2,9)              108.6956         estimate D2E/DX2                !
 ! A11   A(3,2,10)             110.556          estimate D2E/DX2                !
 ! A12   A(9,2,10)             106.4167         estimate D2E/DX2                !
 ! A13   A(2,3,4)              111.676          estimate D2E/DX2                !
 ! A14   A(3,4,5)              110.4147         estimate D2E/DX2                !
 ! A15   A(3,4,11)             110.5543         estimate D2E/DX2                !
 ! A16   A(3,4,12)             108.695          estimate D2E/DX2                !
 ! A17   A(5,4,11)             110.7141         estimate D2E/DX2                !
 ! A18   A(5,4,12)             109.943          estimate D2E/DX2                !
 ! A19   A(11,4,12)            106.4214         estimate D2E/DX2                !
 ! A20   A(4,5,6)              112.3773         estimate D2E/DX2                !
 ! A21   A(4,5,13)             109.5018         estimate D2E/DX2                !
 ! A22   A(4,5,14)             109.3957         estimate D2E/DX2                !
 ! A23   A(6,5,13)             109.1522         estimate D2E/DX2                !
 ! A24   A(6,5,14)             109.5818         estimate D2E/DX2                !
 ! A25   A(13,5,14)            106.6676         estimate D2E/DX2                !
 ! A26   A(1,6,5)              112.1399         estimate D2E/DX2                !
 ! A27   A(1,6,15)             111.6464         estimate D2E/DX2                !
 ! A28   A(5,6,15)             111.6542         estimate D2E/DX2                !
 ! D1    D(6,1,2,3)            -53.8814         estimate D2E/DX2                !
 ! D2    D(6,1,2,9)           -173.8052         estimate D2E/DX2                !
 ! D3    D(6,1,2,10)            68.8935         estimate D2E/DX2                !
 ! D4    D(7,1,2,3)             68.0749         estimate D2E/DX2                !
 ! D5    D(7,1,2,9)            -51.8489         estimate D2E/DX2                !
 ! D6    D(7,1,2,10)          -169.1502         estimate D2E/DX2                !
 ! D7    D(8,1,2,3)           -175.3567         estimate D2E/DX2                !
 ! D8    D(8,1,2,9)             64.7194         estimate D2E/DX2                !
 ! D9    D(8,1,2,10)           -52.5819         estimate D2E/DX2                !
 ! D10   D(2,1,6,5)             48.6824         estimate D2E/DX2                !
 ! D11   D(2,1,6,15)           174.8449         estimate D2E/DX2                !
 ! D12   D(7,1,6,5)            -73.1676         estimate D2E/DX2                !
 ! D13   D(7,1,6,15)            52.9949         estimate D2E/DX2                !
 ! D14   D(8,1,6,5)            170.3594         estimate D2E/DX2                !
 ! D15   D(8,1,6,15)           -63.4781         estimate D2E/DX2                !
 ! D16   D(1,2,3,4)             59.9317         estimate D2E/DX2                !
 ! D17   D(9,2,3,4)           -179.3977         estimate D2E/DX2                !
 ! D18   D(10,2,3,4)           -62.9391         estimate D2E/DX2                !
 ! D19   D(2,3,4,5)            -59.9283         estimate D2E/DX2                !
 ! D20   D(2,3,4,11)            62.9344         estimate D2E/DX2                !
 ! D21   D(2,3,4,12)           179.3974         estimate D2E/DX2                !
 ! D22   D(3,4,5,6)             53.8762         estimate D2E/DX2                !
 ! D23   D(3,4,5,13)           175.3559         estimate D2E/DX2                !
 ! D24   D(3,4,5,14)           -68.0754         estimate D2E/DX2                !
 ! D25   D(11,4,5,6)           -68.8931         estimate D2E/DX2                !
 ! D26   D(11,4,5,13)           52.5866         estimate D2E/DX2                !
 ! D27   D(11,4,5,14)          169.1552         estimate D2E/DX2                !
 ! D28   D(12,4,5,6)           173.8018         estimate D2E/DX2                !
 ! D29   D(12,4,5,13)          -64.7185         estimate D2E/DX2                !
 ! D30   D(12,4,5,14)           51.8502         estimate D2E/DX2                !
 ! D31   D(4,5,6,1)            -48.6797         estimate D2E/DX2                !
 ! D32   D(4,5,6,15)          -174.838          estimate D2E/DX2                !
 ! D33   D(13,5,6,1)          -170.3589         estimate D2E/DX2                !
 ! D34   D(13,5,6,15)           63.4829         estimate D2E/DX2                !
 ! D35   D(14,5,6,1)            73.1661         estimate D2E/DX2                !
 ! D36   D(14,5,6,15)          -52.9921         estimate D2E/DX2                !
 --------------------------------------------------------------------------------
 Trust Radius=3.00D-01 FncErr=1.00D-07 GrdErr=1.00D-06 EigMax=2.50D+02 EigMin=1.00D-04
 Number of steps in this run=     89 maximum allowed number of steps=    100.
 GradGradGradGradGradGradGradGradGradGradGradGradGradGradGradGradGradGrad

                          Input orientation:                          
 ---------------------------------------------------------------------
 Center     Atomic      Atomic             Coordinates (Angstroms)
 Number     Number       Type             X           Y           Z
 ---------------------------------------------------------------------
      1          6           0        0.286200   -0.961200    1.018400
      2          6           0        0.636200    0.509800    1.351900
      3          8           0        0.951700    1.228300    0.161100
      4          6           0       -0.140800    1.234400   -0.755500
      5          6           0       -0.516300   -0.212900   -1.157900
      6          7           0       -0.774200   -1.068300    0.007800
      7          1           0        1.181700   -1.475800    0.665100
      8          1           0       -0.032000   -1.474900    1.926900
      9          1           0        1.497200    0.544900    2.019700
     10          1           0       -0.186600    0.991600    1.883700
     11          1           0       -1.000600    1.750600   -0.323700
     12          1           0        0.148000    1.803100   -1.639600
     13          1           0       -1.403500   -0.195900   -1.792700
     14          1           0        0.288800   -0.643200   -1.756500
     15          1           0       -0.936100   -2.030600   -0.263300
 ---------------------------------------------------------------------
                    Distance matrix (angstroms):
                    1          2          3          4          5
     1  C    0.000000
     2  C    1.548407   0.000000
     3  O    2.443719   1.426109   0.000000
     4  C    2.854770   2.360065   1.426096   0.000000
     5  C    2.437261   2.854759   2.443735   1.548420   0.000000
     6  N    1.468751   2.507236   2.876909   2.507239   1.468699
     7  H    1.091583   2.170685   2.760267   3.333511   2.793107
     8  H    1.091105   2.171670   3.375353   3.814107   3.367964
     9  H    2.176571   1.090188   2.054020   3.295480   3.837393
    10  H    2.187627   1.091761   2.078246   2.650741   3.287986
    11  H    3.288000   2.650723   2.078293   1.091865   2.187640
    12  H    3.837371   3.295457   2.053984   1.090164   2.176599
    13  H    3.367945   3.814040   3.375300   2.171625   1.091047
    14  H    2.793063   3.333504   2.760279   2.170700   1.091635
    15  H    2.068910   3.396267   3.790031   3.396320   2.068955
                    6          7          8          9         10
     6  N    0.000000
     7  H    2.103246   0.000000
     8  H    2.097410   1.750773   0.000000
     9  H    3.436483   2.453102   2.535085   0.000000
    10  H    2.847361   3.073320   2.471718   1.747346   0.000000
    11  H    2.847340   4.018683   4.050585   3.631011   2.472103
    12  H    3.436469   4.139005   4.847433   4.098034   3.630996
    13  H    2.097356   3.789747   4.165606   4.847395   4.050545
    14  H    2.103196   2.711944   3.789733   4.139021   4.018661
    15  H    1.012782   2.377984   2.433757   4.215002   3.782202
                   11         12         13         14         15
    11  H    0.000000
    12  H    1.747464   0.000000
    13  H    2.471670   2.535073   0.000000
    14  H    3.073393   2.453136   1.750790   0.000000
    15  H    3.782232   4.215060   2.433855   2.378004   0.000000
 Stoichiometry    C4H9NO
 Framework group  C1[X(C4H9NO)]
 Deg. of freedom    39
 Full point group                 C1      NOp   1
 Largest Abelian subgroup         C1      NOp   1
 Largest concise Abelian subgroup C1      NOp   1
                         Standard orientation:                         
 ---------------------------------------------------------------------
 Center     Atomic      Atomic             Coordinates (Angstroms)
 Number     Number       Type             X           Y           Z
 ---------------------------------------------------------------------
      1          6           0       -1.221050    0.715905   -0.153067
      2          6           0       -1.177367   -0.791956    0.196236
      3          8           0        0.004683   -1.390667   -0.331107
      4          6           0        1.182685   -0.784024    0.196191
      5          6           0        1.216197    0.724129   -0.153028
      6          7           0       -0.004774    1.422993    0.268750
      7          1           0       -1.358814    0.834885   -1.229365
      8          1           0       -2.086787    1.175855    0.325949
      9          1           0       -2.044676   -1.297384   -0.229001
     10          1           0       -1.232902   -0.939976    1.276490
     11          1           0        1.239187   -0.931626    1.276557
     12          1           0        2.053335   -1.283607   -0.229067
     13          1           0        2.078796    1.189829    0.325961
     14          1           0        1.353115    0.844052   -1.229382
     15          1           0       -0.008095    2.388032   -0.038525
 ---------------------------------------------------------------------
 Rotational constants (GHZ):           4.8665882           4.4881577           2.5935152
 Standard basis: 6-31G(d,p) (6D, 7F)
 There are   135 symmetry adapted cartesian basis functions of A   symmetry.
 There are   135 symmetry adapted basis functions of A   symmetry.
   135 basis functions,   231 primitive gaussians,   135 cartesian basis functions
    24 alpha electrons       24 beta electrons
       nuclear repulsion energy       260.9067162962 Hartrees.
 NAtoms=   15 NActive=   15 NUniq=   15 SFac= 1.00D+00 NAtFMM=   60 NAOKFM=F Big=F
 Integral buffers will be    131072 words long.
 Raffenetti 2 integral format.
 Two-electron integral symmetry is turned on.
 Nuclear repulsion after empirical dispersion term =      260.8870109430 Hartrees.
 One-electron integrals computed using PRISM.
 NBasis=   135 RedAO= T EigKep=  3.86D-03  NBF=   135
 NBsUse=   135 1.00D-06 EigRej= -1.00D+00 NBFU=   135
 ExpMin= 1.61D-01 ExpMax= 5.48D+03 ExpMxC= 8.25D+02 IAcc=3 IRadAn=         5 AccDes= 0.00D+00
 Harris functional with IExCor=  402 and IRadAn=       5 diagonalized for initial guess.
 HarFok:  IExCor=  402 AccDes= 0.00D+00 IRadAn=         5 IDoV= 1 UseB2=F ITyADJ=14
 ICtDFT=  3500011 ScaDFX=  1.000000  1.000000  1.000000  1.000000
 FoFCou: FMM=F IPFlag=           0 FMFlag=      100000 FMFlg1=           0
         NFxFlg=           0 DoJE=T BraDBF=F KetDBF=T FulRan=T
         wScrn=  0.000000 ICntrl=       500 IOpCl=  0 I1Cent=   200000004 NGrid=           0
         NMat0=    1 NMatS0=      1 NMatT0=    0 NMatD0=    1 NMtDS0=    0 NMtDT0=    0
 Petite list used in FoFCou.
 Requested convergence on RMS density matrix=1.00D-08 within 128 cycles.
 Requested convergence on MAX density matrix=1.00D-06.
 Requested convergence on             energy=1.00D-06.
 No special actions if energy rises.
 Integral accuracy reduced to 1.0D-05 until final iterations.
 Initial convergence to 1.0D-05 achieved.  Increase integral accuracy.
 SCF Done:  E(RB3LYP) =  -287.821939199     A.U. after   12 cycles
            NFock= 12  Conv=0.93D-08     -V/T= 2.0095

 **********************************************************************

            Population analysis using the SCF Density.

 **********************************************************************

 Orbital symmetries:
       Occupied  (A) (A) (A) (A) (A) (A) (A) (A) (A) (A) (A) (A)
                 (A) (A) (A) (A) (A) (A) (A) (A) (A) (A) (A) (A)
       Virtual   (A) (A) (A) (A) (A) (A) (A) (A) (A) (A) (A) (A)
                 (A) (A) (A) (A) (A) (A) (A) (A) (A) (A) (A) (A)
                 (A) (A) (A) (A) (A) (A) (A) (A) (A) (A) (A) (A)
                 (A) (A) (A) (A) (A) (A) (A) (A) (A) (A) (A) (A)
                 (A) (A) (A) (A) (A) (A) (A) (A) (A) (A) (A) (A)
                 (A) (A) (A) (A) (A) (A) (A) (A) (A) (A) (A) (A)
                 (A) (A) (A) (A) (A) (A) (A) (A) (A) (A) (A) (A)
                 (A) (A) (A) (A) (A) (A) (A) (A) (A) (A) (A) (A)
                 (A) (A) (A) (A) (A) (A) (A) (A) (A) (A) (A) (A)
                 (A) (A) (A)
 The electronic state is 1-A.
 Alpha  occ. eigenvalues --  -19.14253 -14.31368 -10.22825 -10.22824 -10.20496
 Alpha  occ. eigenvalues --  -10.20494  -1.02555  -0.89165  -0.76202  -0.67785
 Alpha  occ. eigenvalues --   -0.64602  -0.56368  -0.51294  -0.46995  -0.45896
 Alpha  occ. eigenvalues --   -0.43784  -0.42432  -0.40895  -0.38581  -0.35912
 Alpha  occ. eigenvalues --   -0.34823  -0.29961  -0.24894  -0.21107
 Alpha virt. eigenvalues --    0.08262   0.11748   0.12194   0.13562   0.15262
 Alpha virt. eigenvalues --    0.16921   0.17517   0.18061   0.18319   0.18611
 Alpha virt. eigenvalues --    0.22371   0.23063   0.25237   0.25394   0.28571
 Alpha virt. eigenvalues --    0.51848   0.53018   0.54480   0.56192   0.56985
 Alpha virt. eigenvalues --    0.57476   0.58640   0.63410   0.64196   0.65963
 Alpha virt. eigenvalues --    0.76510   0.78567   0.79326   0.80503   0.81789
 Alpha virt. eigenvalues --    0.83815   0.85452   0.86291   0.89614   0.91556
 Alpha virt. eigenvalues --    0.91794   0.94073   0.95423   1.00178   1.00486
 Alpha virt. eigenvalues --    1.09262   1.16546   1.23181   1.26509   1.31467
 Alpha virt. eigenvalues --    1.35649   1.38272   1.38733   1.51607   1.54168
 Alpha virt. eigenvalues --    1.60215   1.64038   1.69459   1.71137   1.79830
 Alpha virt. eigenvalues --    1.80434   1.82932   1.83667   1.93618   1.95268
 Alpha virt. eigenvalues --    1.95881   1.97035   2.01093   2.02546   2.03614
 Alpha virt. eigenvalues --    2.10687   2.11522   2.12975   2.15459   2.19584
 Alpha virt. eigenvalues --    2.22683   2.26975   2.31429   2.32283   2.35327
 Alpha virt. eigenvalues --    2.37391   2.39436   2.39492   2.48039   2.50610
 Alpha virt. eigenvalues --    2.56052   2.57454   2.62031   2.66073   2.71546
 Alpha virt. eigenvalues --    2.73420   2.74402   2.77824   2.82041   2.83028
 Alpha virt. eigenvalues --    2.84071   2.90845   2.95343   2.95949   2.98057
 Alpha virt. eigenvalues --    3.01428   3.26145   3.28390   3.30244   3.34113
 Alpha virt. eigenvalues --    3.40110   3.47810   3.49195   3.50611   3.53051
 Alpha virt. eigenvalues --    3.94350   4.07060   4.36374   4.43092   4.65147
 Alpha virt. eigenvalues --    4.66566
          Condensed to atoms (all electrons):
               1          2          3          4          5          6
     1  C    4.875797   0.360151  -0.045959  -0.017984  -0.045613   0.316647
     2  C    0.360151   4.722488   0.262500  -0.030019  -0.017983  -0.038734
     3  O   -0.045959   0.262500   8.197577   0.262498  -0.045956  -0.006197
     4  C   -0.017984  -0.030019   0.262498   4.722509   0.360141  -0.038731
     5  C   -0.045613  -0.017983  -0.045956   0.360141   4.875771   0.316651
     6  N    0.316647  -0.038734  -0.006197  -0.038731   0.316651   6.817048
     7  H    0.363254  -0.041622  -0.000395  -0.000066  -0.003974  -0.062071
     8  H    0.365737  -0.020596   0.003280   0.000167   0.005729  -0.040685
     9  H   -0.035904   0.385188  -0.031985   0.005217   0.000016   0.003127
    10  H   -0.050083   0.358930  -0.040217  -0.009680  -0.000602  -0.000530
    11  H   -0.000602  -0.009682  -0.040219   0.358917  -0.050090  -0.000530
    12  H    0.000016   0.005218  -0.031987   0.385192  -0.035903   0.003126
    13  H    0.005730   0.000167   0.003280  -0.020601   0.365744  -0.040688
    14  H   -0.003975  -0.000066  -0.000395  -0.041624   0.363251  -0.062083
    15  H   -0.036257   0.004444  -0.000218   0.004444  -0.036253   0.349317
               7          8          9         10         11         12
     1  C    0.363254   0.365737  -0.035904  -0.050083  -0.000602   0.000016
     2  C   -0.041622  -0.020596   0.385188   0.358930  -0.009682   0.005218
     3  O   -0.000395   0.003280  -0.031985  -0.040217  -0.040219  -0.031987
     4  C   -0.000066   0.000167   0.005217  -0.009680   0.358917   0.385192
     5  C   -0.003974   0.005729   0.000016  -0.000602  -0.050090  -0.035903
     6  N   -0.062071  -0.040685   0.003127  -0.000530  -0.000530   0.003126
     7  H    0.703211  -0.049560  -0.004067   0.007336   0.000438   0.000032
     8  H   -0.049560   0.647014   0.000466  -0.002411   0.000026   0.000009
     9  H   -0.004067   0.000466   0.618998  -0.044212  -0.000110  -0.000196
    10  H    0.007336  -0.002411  -0.044212   0.675696   0.014115  -0.000110
    11  H    0.000438   0.000026  -0.000110   0.014115   0.675736  -0.044202
    12  H    0.000032   0.000009  -0.000196  -0.000110  -0.044202   0.618975
    13  H   -0.000397  -0.000110   0.000009   0.000026  -0.002411   0.000466
    14  H    0.010493  -0.000397   0.000032   0.000438   0.007336  -0.004066
    15  H   -0.005328  -0.003040  -0.000178  -0.000222  -0.000222  -0.000178
              13         14         15
     1  C    0.005730  -0.003975  -0.036257
     2  C    0.000167  -0.000066   0.004444
     3  O    0.003280  -0.000395  -0.000218
     4  C   -0.020601  -0.041624   0.004444
     5  C    0.365744   0.363251  -0.036253
     6  N   -0.040688  -0.062083   0.349317
     7  H   -0.000397   0.010493  -0.005328
     8  H   -0.000110  -0.000397  -0.003040
     9  H    0.000009   0.000032  -0.000178
    10  H    0.000026   0.000438  -0.000222
    11  H   -0.002411   0.007336  -0.000222
    12  H    0.000466  -0.004066  -0.000178
    13  H    0.647001  -0.049556  -0.003040
    14  H   -0.049556   0.703249  -0.005329
    15  H   -0.003040  -0.005329   0.492530
 Mulliken charges:
               1
     1  C   -0.050954
     2  C    0.059617
     3  O   -0.485607
     4  C    0.059619
     5  C   -0.050928
     6  N   -0.515666
     7  H    0.082716
     8  H    0.094371
     9  H    0.103600
    10  H    0.091524
    11  H    0.091498
    12  H    0.103608
    13  H    0.094380
    14  H    0.082691
    15  H    0.239530
 Sum of Mulliken charges =  -0.00000
 Mulliken charges with hydrogens summed into heavy atoms:
               1
     1  C    0.126133
     2  C    0.254741
     3  O   -0.485607
     4  C    0.254726
     5  C    0.126144
     6  N   -0.276137
 Electronic spatial extent (au):  <R**2>=            529.2339
 Charge=             -0.0000 electrons
 Dipole moment (field-independent basis, Debye):
    X=             -0.0043    Y=              1.2486    Z=             -0.1214  Tot=              1.2545
 Quadrupole moment (field-independent basis, Debye-Ang):
   XX=            -32.9184   YY=            -37.5935   ZZ=            -39.1274
   XY=              0.0155   XZ=              0.0104   YZ=             -3.0933
 Traceless Quadrupole moment (field-independent basis, Debye-Ang):
   XX=              3.6280   YY=             -1.0471   ZZ=             -2.5809
   XY=              0.0155   XZ=              0.0104   YZ=             -3.0933
 Octapole moment (field-independent basis, Debye-Ang**2):
  XXX=              0.0344  YYY=             11.4189  ZZZ=             -1.5376  XYY=             -0.0620
  XXY=             -3.4228  XXZ=              0.3055  XZZ=              0.0087  YZZ=             -2.7467
  YYZ=             -1.6886  XYZ=              0.0075
 Hexadecapole moment (field-independent basis, Debye-Ang**3):
 XXXX=           -304.0808 YYYY=           -276.5062 ZZZZ=            -78.5173 XXXY=             -0.0711
 XXXZ=             -0.0374 YYYX=             -0.0227 YYYZ=             -5.1107 ZZZX=              0.0065
 ZZZY=             -1.9040 XXYY=            -94.3078 XXZZ=            -65.5356 YYZZ=            -66.0186
 XXYZ=              3.6732 YYXZ=              0.0415 ZZXY=              0.0018
 N-N= 2.608870109430D+02 E-N=-1.192003300738D+03  KE= 2.851117372434D+02
 Calling FoFJK, ICntrl=      2127 FMM=F ISym2X=0 I1Cent= 0 IOpClX= 0 NMat=1 NMatS=1 NMatT=0.
 ***** Axes restored to original set *****
 -------------------------------------------------------------------
 Center     Atomic                   Forces (Hartrees/Bohr)
 Number     Number              X              Y              Z
 -------------------------------------------------------------------
      1        6          -0.002224144   -0.000328154   -0.003664770
      2        6          -0.006533041   -0.012861100   -0.011939239
      3        8           0.002505441    0.003746271    0.000369595
      4        6          -0.000763592   -0.018291908    0.003940388
      5        6           0.000421340   -0.002731805    0.003285573
      6        7          -0.007506400    0.024984703    0.011392594
      7        1           0.011703712    0.000776108    0.000407627
      8        1          -0.002025900   -0.000545020    0.003430938
      9        1           0.004746137    0.000196483   -0.003069580
     10        1          -0.007627245    0.001556865    0.000041361
     11        1          -0.005629666   -0.000276907    0.005281142
     12        1           0.005558441   -0.000557249   -0.000869222
     13        1          -0.003743734    0.001027402   -0.001170184
     14        1           0.009058148    0.003233803   -0.006690439
     15        1           0.002060501    0.000070509   -0.000745783
 -------------------------------------------------------------------
 Cartesian Forces:  Max     0.024984703 RMS     0.006775320

 GradGradGradGradGradGradGradGradGradGradGradGradGradGradGradGradGradGrad
 Berny optimization.
 FormGI is forming the generalized inverse of G from B-inverse, IUseBI=4.
 Internal  Forces:  Max     0.014033884 RMS     0.004467887
 Search for a local minimum.
 Step number   1 out of a maximum of   89
 All quantities printed in internal units (Hartrees-Bohrs-Radians)
 Mixed Optimization -- RFO/linear search
 Second derivative matrix not updated -- first step.
 ITU=  0
     Eigenvalues ---    0.00564   0.00815   0.01383   0.02287   0.03153
     Eigenvalues ---    0.04179   0.04875   0.04884   0.05447   0.05656
     Eigenvalues ---    0.06154   0.06245   0.08158   0.09168   0.09382
     Eigenvalues ---    0.09397   0.10744   0.11480   0.11515   0.12110
     Eigenvalues ---    0.13441   0.16501   0.17340   0.22502   0.26681
     Eigenvalues ---    0.27786   0.34598   0.34610   0.34624   0.34630
     Eigenvalues ---    0.34685   0.34692   0.34729   0.34791   0.34794
     Eigenvalues ---    0.34814   0.40374   0.40439   0.45510
 RFO step:  Lambda=-9.19734149D-03 EMin= 5.63560369D-03
 Linear search not attempted -- first point.
 Iteration  1 RMS(Cart)=  0.03782084 RMS(Int)=  0.00114450
 Iteration  2 RMS(Cart)=  0.00131695 RMS(Int)=  0.00066646
 Iteration  3 RMS(Cart)=  0.00000127 RMS(Int)=  0.00066646
 Iteration  4 RMS(Cart)=  0.00000000 RMS(Int)=  0.00066646
 Variable       Old X    -DE/DX   Delta X   Delta X   Delta X     New X
                                 (Linear)    (Quad)   (Total)
    R1        2.92606  -0.01403   0.00000  -0.04883  -0.04882   2.87725
    R2        2.77554  -0.00361   0.00000  -0.01111  -0.01141   2.76413
    R3        2.06279   0.00910   0.00000   0.02561   0.02561   2.08840
    R4        2.06189   0.00370   0.00000   0.01040   0.01040   2.07229
    R5        2.69496  -0.00655   0.00000  -0.01429  -0.01400   2.68096
    R6        2.06016   0.00187   0.00000   0.00525   0.00525   2.06541
    R7        2.06313   0.00646   0.00000   0.01817   0.01817   2.08130
    R8        2.69493  -0.00654   0.00000  -0.01427  -0.01398   2.68095
    R9        2.92609  -0.01403   0.00000  -0.04884  -0.04883   2.87726
   R10        2.06333   0.00639   0.00000   0.01799   0.01799   2.08132
   R11        2.06011   0.00189   0.00000   0.00528   0.00528   2.06539
   R12        2.77544  -0.00359   0.00000  -0.01105  -0.01134   2.76410
   R13        2.06178   0.00374   0.00000   0.01050   0.01050   2.07229
   R14        2.06289   0.00907   0.00000   0.02553   0.02553   2.08842
   R15        1.91388  -0.00020   0.00000  -0.00042  -0.00042   1.91346
    A1        1.96131  -0.00818   0.00000  -0.05465  -0.05572   1.90560
    A2        1.90936  -0.00237   0.00000  -0.02141  -0.02004   1.88932
    A3        1.91119   0.00124   0.00000  -0.00855  -0.00901   1.90218
    A4        1.91262   0.00815   0.00000   0.07202   0.07151   1.98413
    A5        1.90502   0.00154   0.00000  -0.00138  -0.00242   1.90260
    A6        1.86167   0.00006   0.00000   0.01780   0.01688   1.87855
    A7        1.92708   0.00746   0.00000   0.01761   0.01746   1.94454
    A8        1.91882  -0.00119   0.00000  -0.00040  -0.00033   1.91849
    A9        1.93243  -0.00362   0.00000  -0.01454  -0.01442   1.91801
   A10        1.89710  -0.00490   0.00000  -0.03702  -0.03664   1.86045
   A11        1.92957  -0.00176   0.00000  -0.00234  -0.00249   1.92708
   A12        1.85732   0.00376   0.00000   0.03655   0.03655   1.89387
   A13        1.94911  -0.00797   0.00000  -0.03090  -0.03216   1.91696
   A14        1.92710   0.00746   0.00000   0.01761   0.01745   1.94455
   A15        1.92954  -0.00176   0.00000  -0.00231  -0.00245   1.92708
   A16        1.89709  -0.00490   0.00000  -0.03701  -0.03662   1.86046
   A17        1.93233  -0.00361   0.00000  -0.01446  -0.01434   1.91798
   A18        1.91887  -0.00119   0.00000  -0.00045  -0.00038   1.91848
   A19        1.85740   0.00375   0.00000   0.03647   0.03647   1.89388
   A20        1.96135  -0.00819   0.00000  -0.05470  -0.05577   1.90559
   A21        1.91117   0.00124   0.00000  -0.00855  -0.00902   1.90215
   A22        1.90931  -0.00237   0.00000  -0.02138  -0.02000   1.88931
   A23        1.90506   0.00154   0.00000  -0.00141  -0.00245   1.90262
   A24        1.91256   0.00816   0.00000   0.07211   0.07160   1.98416
   A25        1.86170   0.00006   0.00000   0.01776   0.01684   1.87854
   A26        1.95721   0.00529   0.00000  -0.00163  -0.00493   1.95228
   A27        1.94860  -0.00339   0.00000  -0.03695  -0.03746   1.91114
   A28        1.94873  -0.00340   0.00000  -0.03706  -0.03756   1.91117
    D1       -0.94041  -0.00288   0.00000  -0.05849  -0.05779  -0.99820
    D2       -3.03347  -0.00076   0.00000  -0.02345  -0.02306  -3.05654
    D3        1.20242  -0.00246   0.00000  -0.05930  -0.05896   1.14346
    D4        1.18813   0.00033   0.00000  -0.01860  -0.01809   1.17004
    D5       -0.90493   0.00245   0.00000   0.01644   0.01663  -0.88830
    D6       -2.95223   0.00075   0.00000  -0.01941  -0.01927  -2.97150
    D7       -3.06055  -0.00024   0.00000  -0.01429  -0.01417  -3.07472
    D8        1.12957   0.00188   0.00000   0.02075   0.02056   1.15012
    D9       -0.91773   0.00018   0.00000  -0.01510  -0.01534  -0.93307
   D10        0.84967   0.00286   0.00000   0.10662   0.10572   0.95539
   D11        3.05162  -0.00020   0.00000   0.02643   0.02568   3.07730
   D12       -1.27702   0.00566   0.00000   0.11996   0.12100  -1.15602
   D13        0.92493   0.00259   0.00000   0.03977   0.04096   0.96589
   D14        2.97333   0.00009   0.00000   0.05864   0.05832   3.03165
   D15       -1.10790  -0.00297   0.00000  -0.02155  -0.02172  -1.12963
   D16        1.04600   0.00049   0.00000   0.00550   0.00561   1.05162
   D17       -3.13108   0.00050   0.00000  -0.00763  -0.00749  -3.13857
   D18       -1.09849   0.00116   0.00000   0.01346   0.01368  -1.08482
   D19       -1.04595  -0.00049   0.00000  -0.00556  -0.00568  -1.05163
   D20        1.09841  -0.00116   0.00000  -0.01340  -0.01362   1.08479
   D21        3.13108  -0.00050   0.00000   0.00762   0.00748   3.13856
   D22        0.94032   0.00288   0.00000   0.05859   0.05788   0.99820
   D23        3.06054   0.00024   0.00000   0.01431   0.01419   3.07473
   D24       -1.18814  -0.00033   0.00000   0.01859   0.01808  -1.17006
   D25       -1.20241   0.00246   0.00000   0.05930   0.05897  -1.14344
   D26        0.91781  -0.00018   0.00000   0.01503   0.01527   0.93308
   D27        2.95232  -0.00076   0.00000   0.01931   0.01917   2.97148
   D28        3.03341   0.00076   0.00000   0.02353   0.02314   3.05656
   D29       -1.12955  -0.00188   0.00000  -0.02075  -0.02055  -1.15010
   D30        0.90496  -0.00245   0.00000  -0.01646  -0.01666   0.88830
   D31       -0.84962  -0.00287   0.00000  -0.10666  -0.10576  -0.95538
   D32       -3.05150   0.00020   0.00000  -0.02653  -0.02578  -3.07727
   D33       -2.97332  -0.00009   0.00000  -0.05861  -0.05829  -3.03162
   D34        1.10798   0.00297   0.00000   0.02152   0.02169   1.12968
   D35        1.27699  -0.00565   0.00000  -0.11992  -0.12096   1.15602
   D36       -0.92489  -0.00259   0.00000  -0.03979  -0.04098  -0.96587
         Item               Value     Threshold  Converged?
 Maximum Force            0.014034     0.000450     NO 
 RMS     Force            0.004468     0.000300     NO 
 Maximum Displacement     0.122582     0.001800     NO 
 RMS     Displacement     0.038006     0.001200     NO 
 Predicted change in Energy=-5.123952D-03
 GradGradGradGradGradGradGradGradGradGradGradGradGradGradGradGradGradGrad

                          Input orientation:                          
 ---------------------------------------------------------------------
 Center     Atomic      Atomic             Coordinates (Angstroms)
 Number     Number       Type             X           Y           Z
 ---------------------------------------------------------------------
      1          6           0        0.296126   -0.961691    1.006731
      2          6           0        0.621914    0.490264    1.329097
      3          8           0        0.952364    1.219336    0.157785
      4          6           0       -0.142553    1.203134   -0.744209
      5          6           0       -0.501711   -0.217709   -1.157072
      6          7           0       -0.799943   -1.004920    0.039105
      7          1           0        1.220380   -1.453414    0.652774
      8          1           0       -0.018955   -1.469292    1.926307
      9          1           0        1.495424    0.539340    1.984189
     10          1           0       -0.229781    0.959558    1.846214
     11          1           0       -1.018799    1.695282   -0.293612
     12          1           0        0.166298    1.778748   -1.620474
     13          1           0       -1.391797   -0.189071   -1.796973
     14          1           0        0.330875   -0.623933   -1.759673
     15          1           0       -0.980144   -1.965732   -0.224790
 ---------------------------------------------------------------------
                    Distance matrix (angstroms):
                    1          2          3          4          5
     1  C    0.000000
     2  C    1.522575   0.000000
     3  O    2.430687   1.418702   0.000000
     4  C    2.818634   2.321894   1.418696   0.000000
     5  C    2.423242   2.818652   2.430696   1.522579   0.000000
     6  N    1.462715   2.433378   2.834074   2.433360   1.462697
     7  H    1.105135   2.143236   2.731380   3.296422   2.787133
     8  H    1.096611   2.146447   3.361525   3.780052   3.362550
     9  H    2.155651   1.092965   2.023131   3.250807   3.798578
    10  H    2.161599   1.101376   2.077437   2.603311   3.237226
    11  H    3.237194   2.603303   2.077442   1.101387   2.161592
    12  H    3.798561   3.250807   2.023127   1.092960   2.155648
    13  H    3.362556   3.780058   3.361514   2.146429   1.096606
    14  H    2.787164   3.296459   2.731398   2.143239   1.105145
    15  H    2.038040   3.318595   3.745078   3.318594   2.038047
                    6          7          8          9         10
     6  N    0.000000
     7  H    2.158574   0.000000
     8  H    2.094544   1.777102   0.000000
     9  H    3.381833   2.412340   2.516206   0.000000
    10  H    2.729451   3.057728   2.439298   1.780997   0.000000
    11  H    2.729412   3.977921   3.992776   3.584117   2.396392
    12  H    3.381808   4.089696   4.812872   4.036867   3.584114
    13  H    2.094537   3.797801   4.169709   4.812879   3.992799
    14  H    2.158588   2.701695   3.797824   4.089728   3.977965
    15  H    1.012558   2.423818   2.407812   4.157332   3.661889
                   11         12         13         14         15
    11  H    0.000000
    12  H    1.781007   0.000000
    13  H    2.439264   2.516173   0.000000
    14  H    3.057730   2.412330   1.777103   0.000000
    15  H    3.661865   4.157330   2.407850   2.423853   0.000000
 Stoichiometry    C4H9NO
 Framework group  C1[X(C4H9NO)]
 Deg. of freedom    39
 Full point group                 C1      NOp   1
 Largest Abelian subgroup         C1      NOp   1
 Largest concise Abelian subgroup C1      NOp   1
                         Standard orientation:                         
 ---------------------------------------------------------------------
 Center     Atomic      Atomic             Coordinates (Angstroms)
 Number     Number       Type             X           Y           Z
 ---------------------------------------------------------------------
      1          6           0       -1.211441    0.714955   -0.181609
      2          6           0       -1.161142   -0.757525    0.202454
      3          8           0       -0.000349   -1.388329   -0.314616
      4          6           0        1.160751   -0.758103    0.202453
      5          6           0        1.211801    0.714356   -0.181609
      6          7           0        0.000355    1.378592    0.298675
      7          1           0       -1.350635    0.782660   -1.275850
      8          1           0       -2.084555    1.177994    0.293597
      9          1           0       -2.018759   -1.283344   -0.224841
     10          1           0       -1.198424   -0.860478    1.298374
     11          1           0        1.197968   -0.861048    1.298387
     12          1           0        2.018108   -1.284348   -0.224824
     13          1           0        2.085154    1.176923    0.293608
     14          1           0        1.351060    0.781980   -1.275857
     15          1           0        0.000577    2.344056   -0.006535
 ---------------------------------------------------------------------
 Rotational constants (GHZ):           4.9263860           4.6202745           2.6733056
 Standard basis: 6-31G(d,p) (6D, 7F)
 There are   135 symmetry adapted cartesian basis functions of A   symmetry.
 There are   135 symmetry adapted basis functions of A   symmetry.
   135 basis functions,   231 primitive gaussians,   135 cartesian basis functions
    24 alpha electrons       24 beta electrons
       nuclear repulsion energy       263.2233858740 Hartrees.
 NAtoms=   15 NActive=   15 NUniq=   15 SFac= 1.00D+00 NAtFMM=   60 NAOKFM=F Big=F
 Integral buffers will be    131072 words long.
 Raffenetti 2 integral format.
 Two-electron integral symmetry is turned on.
 Nuclear repulsion after empirical dispersion term =      263.2034401007 Hartrees.
 One-electron integrals computed using PRISM.
 NBasis=   135 RedAO= T EigKep=  3.41D-03  NBF=   135
 NBsUse=   135 1.00D-06 EigRej= -1.00D+00 NBFU=   135
 Initial guess from the checkpoint file:  "SecN1_conf-1.chk"
 B after Tr=    -0.000000    0.000000    0.000000
         Rot=    0.999987    0.004838    0.000010    0.001809 Ang=   0.59 deg.
 ExpMin= 1.61D-01 ExpMax= 5.48D+03 ExpMxC= 8.25D+02 IAcc=3 IRadAn=         5 AccDes= 0.00D+00
 Harris functional with IExCor=  402 and IRadAn=       5 diagonalized for initial guess.
 HarFok:  IExCor=  402 AccDes= 0.00D+00 IRadAn=         5 IDoV= 1 UseB2=F ITyADJ=14
 ICtDFT=  3500011 ScaDFX=  1.000000  1.000000  1.000000  1.000000
 FoFCou: FMM=F IPFlag=           0 FMFlag=      100000 FMFlg1=           0
         NFxFlg=           0 DoJE=T BraDBF=F KetDBF=T FulRan=T
         wScrn=  0.000000 ICntrl=       500 IOpCl=  0 I1Cent=   200000004 NGrid=           0
         NMat0=    1 NMatS0=      1 NMatT0=    0 NMatD0=    1 NMtDS0=    0 NMtDT0=    0
 Petite list used in FoFCou.
 Requested convergence on RMS density matrix=1.00D-08 within 128 cycles.
 Requested convergence on MAX density matrix=1.00D-06.
 Requested convergence on             energy=1.00D-06.
 No special actions if energy rises.
 Integral accuracy reduced to 1.0D-05 until final iterations.
 Initial convergence to 1.0D-05 achieved.  Increase integral accuracy.
 SCF Done:  E(RB3LYP) =  -287.826509902     A.U. after   11 cycles
            NFock= 11  Conv=0.31D-08     -V/T= 2.0092
 Calling FoFJK, ICntrl=      2127 FMM=F ISym2X=0 I1Cent= 0 IOpClX= 0 NMat=1 NMatS=1 NMatT=0.
 ***** Axes restored to original set *****
 -------------------------------------------------------------------
 Center     Atomic                   Forces (Hartrees/Bohr)
 Number     Number              X              Y              Z
 -------------------------------------------------------------------
      1        6          -0.000149008   -0.000930371    0.000951221
      2        6           0.003137585   -0.000467278    0.004066793
      3        8          -0.000740911    0.000186041    0.000339119
      4        6          -0.000038297    0.002484657   -0.004515497
      5        6          -0.000855863   -0.000257585   -0.000995893
      6        7           0.000127021    0.002052552    0.000667457
      7        1          -0.000063738    0.000220924   -0.001485259
      8        1           0.000146574   -0.000559866   -0.000473807
      9        1           0.000346782    0.000726041    0.000628148
     10        1          -0.000868696    0.000003145   -0.000781914
     11        1          -0.000214250   -0.000602838    0.000974649
     12        1           0.000050166    0.001006133   -0.000181711
     13        1           0.000277419   -0.000686085   -0.000113155
     14        1           0.000864073   -0.000648304    0.001046137
     15        1          -0.002018859   -0.002527166   -0.000126290
 -------------------------------------------------------------------
 Cartesian Forces:  Max     0.004515497 RMS     0.001358563

 GradGradGradGradGradGradGradGradGradGradGradGradGradGradGradGradGradGrad
 Berny optimization.
 Using GEDIIS/GDIIS optimizer.
 FormGI is forming the generalized inverse of G from B-inverse, IUseBI=4.
 Internal  Forces:  Max     0.002790654 RMS     0.000870815
 Search for a local minimum.
 Step number   2 out of a maximum of   89
 All quantities printed in internal units (Hartrees-Bohrs-Radians)
 Mixed Optimization -- En-DIIS/RFO-DIIS
 Update second derivatives using D2CorX and points    1    2
 DE= -4.57D-03 DEPred=-5.12D-03 R= 8.92D-01
 TightC=F SS=  1.41D+00  RLast= 3.45D-01 DXNew= 5.0454D-01 1.0344D+00
 Trust test= 8.92D-01 RLast= 3.45D-01 DXMaxT set to 5.05D-01
 ITU=  1  0
 Use linear search instead of GDIIS.
     Eigenvalues ---    0.00595   0.00867   0.01379   0.02502   0.03264
     Eigenvalues ---    0.04563   0.05083   0.05118   0.05534   0.05783
     Eigenvalues ---    0.06227   0.06346   0.07727   0.08749   0.08784
     Eigenvalues ---    0.09186   0.10712   0.11546   0.11579   0.11839
     Eigenvalues ---    0.13458   0.16223   0.17008   0.23802   0.26642
     Eigenvalues ---    0.28736   0.34032   0.34601   0.34602   0.34614
     Eigenvalues ---    0.34628   0.34684   0.34691   0.34773   0.34792
     Eigenvalues ---    0.35014   0.40353   0.41217   0.45750
 RFO step:  Lambda=-8.04344441D-04 EMin= 5.95259589D-03
 Quartic linear search produced a step of -0.02045.
 Iteration  1 RMS(Cart)=  0.02652106 RMS(Int)=  0.00050453
 Iteration  2 RMS(Cart)=  0.00059170 RMS(Int)=  0.00012991
 Iteration  3 RMS(Cart)=  0.00000020 RMS(Int)=  0.00012990
 Variable       Old X    -DE/DX   Delta X   Delta X   Delta X     New X
                                 (Linear)    (Quad)   (Total)
    R1        2.87725   0.00177   0.00100   0.00292   0.00392   2.88117
    R2        2.76413   0.00147   0.00023   0.00041   0.00055   2.76468
    R3        2.08840   0.00032  -0.00052   0.00269   0.00217   2.09057
    R4        2.07229  -0.00018  -0.00021   0.00022   0.00001   2.07230
    R5        2.68096   0.00197   0.00029   0.00599   0.00637   2.68733
    R6        2.06541   0.00069  -0.00011   0.00228   0.00217   2.06758
    R7        2.08130   0.00031  -0.00037   0.00213   0.00175   2.08305
    R8        2.68095   0.00197   0.00029   0.00599   0.00638   2.68732
    R9        2.87726   0.00177   0.00100   0.00292   0.00392   2.88118
   R10        2.08132   0.00030  -0.00037   0.00210   0.00173   2.08305
   R11        2.06539   0.00069  -0.00011   0.00229   0.00219   2.06758
   R12        2.76410   0.00148   0.00023   0.00043   0.00057   2.76467
   R13        2.07229  -0.00018  -0.00021   0.00024   0.00002   2.07231
   R14        2.08842   0.00032  -0.00052   0.00267   0.00215   2.09057
   R15        1.91346   0.00279   0.00001   0.00593   0.00594   1.91940
    A1        1.90560   0.00094   0.00114  -0.00963  -0.00893   1.89666
    A2        1.88932   0.00031   0.00041   0.00078   0.00118   1.89051
    A3        1.90218  -0.00018   0.00018   0.00637   0.00674   1.90891
    A4        1.98413  -0.00113  -0.00146  -0.00538  -0.00675   1.97738
    A5        1.90260  -0.00024   0.00005   0.00255   0.00279   1.90540
    A6        1.87855   0.00031  -0.00035   0.00604   0.00565   1.88420
    A7        1.94454  -0.00120  -0.00036  -0.00406  -0.00473   1.93981
    A8        1.91849   0.00149   0.00001   0.01434   0.01444   1.93292
    A9        1.91801  -0.00062   0.00029  -0.01019  -0.00995   1.90806
   A10        1.86045   0.00026   0.00075   0.00344   0.00427   1.86473
   A11        1.92708   0.00013   0.00005  -0.00911  -0.00912   1.91796
   A12        1.89387   0.00001  -0.00075   0.00652   0.00579   1.89966
   A13        1.91696   0.00216   0.00066   0.01438   0.01488   1.93183
   A14        1.94455  -0.00120  -0.00036  -0.00407  -0.00473   1.93982
   A15        1.92708   0.00013   0.00005  -0.00911  -0.00912   1.91796
   A16        1.86046   0.00026   0.00075   0.00344   0.00427   1.86473
   A17        1.91798  -0.00061   0.00029  -0.01017  -0.00993   1.90806
   A18        1.91848   0.00149   0.00001   0.01434   0.01444   1.93292
   A19        1.89388   0.00001  -0.00075   0.00651   0.00578   1.89966
   A20        1.90559   0.00094   0.00114  -0.00963  -0.00893   1.89666
   A21        1.90215  -0.00018   0.00018   0.00639   0.00675   1.90890
   A22        1.88931   0.00032   0.00041   0.00080   0.00120   1.89051
   A23        1.90262  -0.00024   0.00005   0.00254   0.00279   1.90540
   A24        1.98416  -0.00113  -0.00146  -0.00540  -0.00678   1.97739
   A25        1.87854   0.00031  -0.00034   0.00604   0.00565   1.88419
   A26        1.95228  -0.00080   0.00010  -0.01720  -0.01767   1.93462
   A27        1.91114   0.00014   0.00077   0.00152   0.00248   1.91362
   A28        1.91117   0.00014   0.00077   0.00149   0.00246   1.91363
    D1       -0.99820   0.00070   0.00118  -0.01295  -0.01172  -1.00991
    D2       -3.05654   0.00017   0.00047  -0.02383  -0.02332  -3.07986
    D3        1.14346  -0.00039   0.00121  -0.03442  -0.03317   1.11028
    D4        1.17004   0.00010   0.00037  -0.02521  -0.02488   1.14516
    D5       -0.88830  -0.00043  -0.00034  -0.03609  -0.03648  -0.92479
    D6       -2.97150  -0.00098   0.00039  -0.04669  -0.04634  -3.01783
    D7       -3.07472   0.00055   0.00029  -0.01413  -0.01379  -3.08851
    D8        1.15012   0.00002  -0.00042  -0.02501  -0.02539   1.12474
    D9       -0.93307  -0.00053   0.00031  -0.03561  -0.03524  -0.96831
   D10        0.95539   0.00084  -0.00216   0.05582   0.05359   1.00898
   D11        3.07730   0.00058  -0.00053   0.04737   0.04679   3.12409
   D12       -1.15602   0.00052  -0.00247   0.06536   0.06286  -1.09316
   D13        0.96589   0.00026  -0.00084   0.05691   0.05606   1.02195
   D14        3.03165   0.00103  -0.00119   0.05938   0.05813   3.08977
   D15       -1.12963   0.00077   0.00044   0.05093   0.05133  -1.07830
   D16        1.05162  -0.00117  -0.00011  -0.02324  -0.02340   1.02822
   D17       -3.13857   0.00012   0.00015  -0.00597  -0.00585   3.13876
   D18       -1.08482   0.00035  -0.00028  -0.00105  -0.00136  -1.08618
   D19       -1.05163   0.00117   0.00012   0.02325   0.02341  -1.02822
   D20        1.08479  -0.00035   0.00028   0.00108   0.00139   1.08618
   D21        3.13856  -0.00012  -0.00015   0.00598   0.00586  -3.13876
   D22        0.99820  -0.00070  -0.00118   0.01293   0.01170   1.00990
   D23        3.07473  -0.00055  -0.00029   0.01412   0.01377   3.08850
   D24       -1.17006  -0.00010  -0.00037   0.02521   0.02488  -1.14518
   D25       -1.14344   0.00039  -0.00121   0.03440   0.03315  -1.11030
   D26        0.93308   0.00053  -0.00031   0.03558   0.03521   0.96830
   D27        2.97148   0.00098  -0.00039   0.04667   0.04632   3.01781
   D28        3.05656  -0.00017  -0.00047   0.02380   0.02329   3.07985
   D29       -1.15010  -0.00002   0.00042   0.02499   0.02536  -1.12474
   D30        0.88830   0.00043   0.00034   0.03608   0.03647   0.92477
   D31       -0.95538  -0.00084   0.00216  -0.05582  -0.05359  -1.00897
   D32       -3.07727  -0.00058   0.00053  -0.04738  -0.04680  -3.12408
   D33       -3.03162  -0.00103   0.00119  -0.05939  -0.05814  -3.08975
   D34        1.12968  -0.00077  -0.00044  -0.05096  -0.05135   1.07833
   D35        1.15602  -0.00052   0.00247  -0.06535  -0.06285   1.09318
   D36       -0.96587  -0.00026   0.00084  -0.05691  -0.05606  -1.02193
         Item               Value     Threshold  Converged?
 Maximum Force            0.002791     0.000450     NO 
 RMS     Force            0.000871     0.000300     NO 
 Maximum Displacement     0.106588     0.001800     NO 
 RMS     Displacement     0.026685     0.001200     NO 
 Predicted change in Energy=-4.177941D-04
 GradGradGradGradGradGradGradGradGradGradGradGradGradGradGradGradGradGrad

                          Input orientation:                          
 ---------------------------------------------------------------------
 Center     Atomic      Atomic             Coordinates (Angstroms)
 Number     Number       Type             X           Y           Z
 ---------------------------------------------------------------------
      1          6           0        0.300296   -0.961648    0.997323
      2          6           0        0.626545    0.488517    1.336651
      3          8           0        0.942202    1.230828    0.165486
      4          6           0       -0.143719    1.206801   -0.752382
      5          6           0       -0.492910   -0.221983   -1.153900
      6          7           0       -0.817374   -0.981762    0.053504
      7          1           0        1.215700   -1.440566    0.601678
      8          1           0        0.009147   -1.492528    1.911632
      9          1           0        1.499822    0.545918    1.993295
     10          1           0       -0.235286    0.945870    1.849632
     11          1           0       -1.027866    1.684964   -0.299928
     12          1           0        0.165736    1.789972   -1.624872
     13          1           0       -1.365875   -0.210298   -1.817500
     14          1           0        0.359829   -0.642479   -1.719481
     15          1           0       -1.036547   -1.941706   -0.195738
 ---------------------------------------------------------------------
                    Distance matrix (angstroms):
                    1          2          3          4          5
     1  C    0.000000
     2  C    1.524651   0.000000
     3  O    2.431244   1.422073   0.000000
     4  C    2.821486   2.339507   1.422070   0.000000
     5  C    2.409158   2.821495   2.431252   1.524655   0.000000
     6  N    1.463005   2.427569   2.829170   2.427565   1.462999
     7  H    1.106283   2.146776   2.720553   3.269564   2.736119
     8  H    1.096614   2.153212   3.366940   3.795618   3.356163
     9  H    2.168774   1.094116   2.030007   3.267527   3.803352
    10  H    2.156827   1.102305   2.074615   2.616667   3.232871
    11  H    3.232867   2.616668   2.074612   1.102302   2.156824
    12  H    3.803344   3.267529   2.030006   1.094116   2.168776
    13  H    3.356170   3.795622   3.366941   2.153209   1.096617
    14  H    2.736135   3.269592   2.720578   2.146783   1.106284
    15  H    2.042317   3.319650   3.756449   3.319652   2.042319
                    6          7          8          9         10
     6  N    0.000000
     7  H    2.155084   0.000000
     8  H    2.096821   1.781698   0.000000
     9  H    3.386148   2.442016   2.526667   0.000000
    10  H    2.698271   3.059056   2.451403   1.786394   0.000000
    11  H    2.698268   3.951635   4.007849   3.597986   2.407292
    12  H    3.386143   4.061567   4.827648   4.051986   3.597987
    13  H    2.096823   3.745732   4.176269   4.827653   4.007844
    14  H    2.155086   2.599469   3.745736   4.061598   3.951656
    15  H    1.015702   2.441236   2.395046   4.172926   3.628175
                   11         12         13         14         15
    11  H    0.000000
    12  H    1.786389   0.000000
    13  H    2.451385   2.526660   0.000000
    14  H    3.059056   2.442016   1.781696   0.000000
    15  H    3.628177   4.172928   2.395066   2.441240   0.000000
 Stoichiometry    C4H9NO
 Framework group  C1[X(C4H9NO)]
 Deg. of freedom    39
 Full point group                 C1      NOp   1
 Largest Abelian subgroup         C1      NOp   1
 Largest concise Abelian subgroup C1      NOp   1
                         Standard orientation:                         
 ---------------------------------------------------------------------
 Center     Atomic      Atomic             Coordinates (Angstroms)
 Number     Number       Type             X           Y           Z
 ---------------------------------------------------------------------
      1          6           0       -1.204496    0.716917   -0.195070
      2          6           0       -1.169843   -0.755492    0.199100
      3          8           0       -0.000161   -1.392508   -0.299245
      4          6           0        1.169665   -0.755761    0.199095
      5          6           0        1.204662    0.716647   -0.195066
      6          7           0        0.000159    1.368089    0.319874
      7          1           0       -1.299633    0.780136   -1.295440
      8          1           0       -2.087995    1.191526    0.248482
      9          1           0       -2.026143   -1.289995   -0.222974
     10          1           0       -1.203742   -0.839909    1.297644
     11          1           0        1.203550   -0.840186    1.297637
     12          1           0        2.025843   -1.290458   -0.222980
     13          1           0        2.088274    1.191037    0.248501
     14          1           0        1.299835    0.779855   -1.295434
     15          1           0        0.000264    2.347572    0.051053
 ---------------------------------------------------------------------
 Rotational constants (GHZ):           4.9214902           4.6210385           2.6770806
 Standard basis: 6-31G(d,p) (6D, 7F)
 There are   135 symmetry adapted cartesian basis functions of A   symmetry.
 There are   135 symmetry adapted basis functions of A   symmetry.
   135 basis functions,   231 primitive gaussians,   135 cartesian basis functions
    24 alpha electrons       24 beta electrons
       nuclear repulsion energy       263.1233969800 Hartrees.
 NAtoms=   15 NActive=   15 NUniq=   15 SFac= 1.00D+00 NAtFMM=   60 NAOKFM=F Big=F
 Integral buffers will be    131072 words long.
 Raffenetti 2 integral format.
 Two-electron integral symmetry is turned on.
 Nuclear repulsion after empirical dispersion term =      263.1034266151 Hartrees.
 One-electron integrals computed using PRISM.
 NBasis=   135 RedAO= T EigKep=  3.37D-03  NBF=   135
 NBsUse=   135 1.00D-06 EigRej= -1.00D+00 NBFU=   135
 Initial guess from the checkpoint file:  "SecN1_conf-1.chk"
 B after Tr=     0.000000   -0.000000   -0.000000
         Rot=    1.000000    0.000892   -0.000001   -0.000068 Ang=   0.10 deg.
 ExpMin= 1.61D-01 ExpMax= 5.48D+03 ExpMxC= 8.25D+02 IAcc=3 IRadAn=         5 AccDes= 0.00D+00
 Harris functional with IExCor=  402 and IRadAn=       5 diagonalized for initial guess.
 HarFok:  IExCor=  402 AccDes= 0.00D+00 IRadAn=         5 IDoV= 1 UseB2=F ITyADJ=14
 ICtDFT=  3500011 ScaDFX=  1.000000  1.000000  1.000000  1.000000
 FoFCou: FMM=F IPFlag=           0 FMFlag=      100000 FMFlg1=           0
         NFxFlg=           0 DoJE=T BraDBF=F KetDBF=T FulRan=T
         wScrn=  0.000000 ICntrl=       500 IOpCl=  0 I1Cent=   200000004 NGrid=           0
         NMat0=    1 NMatS0=      1 NMatT0=    0 NMatD0=    1 NMtDS0=    0 NMtDT0=    0
 Petite list used in FoFCou.
 Requested convergence on RMS density matrix=1.00D-08 within 128 cycles.
 Requested convergence on MAX density matrix=1.00D-06.
 Requested convergence on             energy=1.00D-06.
 No special actions if energy rises.
 Integral accuracy reduced to 1.0D-05 until final iterations.
 Initial convergence to 1.0D-05 achieved.  Increase integral accuracy.
 SCF Done:  E(RB3LYP) =  -287.827014731     A.U. after   11 cycles
            NFock= 11  Conv=0.36D-08     -V/T= 2.0093
 Calling FoFJK, ICntrl=      2127 FMM=F ISym2X=0 I1Cent= 0 IOpClX= 0 NMat=1 NMatS=1 NMatT=0.
 ***** Axes restored to original set *****
 -------------------------------------------------------------------
 Center     Atomic                   Forces (Hartrees/Bohr)
 Number     Number              X              Y              Z
 -------------------------------------------------------------------
      1        6           0.000510251   -0.000523407    0.001491033
      2        6          -0.000271561    0.000579426    0.000950842
      3        8           0.001043863    0.000030577   -0.000373278
      4        6          -0.000655139    0.000934949   -0.000090470
      5        6          -0.000583512    0.000499811   -0.001477131
      6        7           0.000423751   -0.000588413   -0.000355771
      7        1          -0.000465086    0.000221831   -0.000456546
      8        1           0.000242888   -0.000178274   -0.000523797
      9        1          -0.000135535    0.000394526   -0.000554338
     10        1           0.000138363   -0.000410352    0.000084745
     11        1          -0.000025602   -0.000257773   -0.000355725
     12        1           0.000299846   -0.000011350    0.000625744
     13        1           0.000463188   -0.000383464    0.000072243
     14        1          -0.000050622   -0.000164521    0.000667585
     15        1          -0.000935092   -0.000143568    0.000294863
 -------------------------------------------------------------------
 Cartesian Forces:  Max     0.001491033 RMS     0.000558798

 GradGradGradGradGradGradGradGradGradGradGradGradGradGradGradGradGradGrad
 Berny optimization.
 Using GEDIIS/GDIIS optimizer.
 FormGI is forming the generalized inverse of G from B-inverse, IUseBI=4.
 Internal  Forces:  Max     0.000872151 RMS     0.000318724
 Search for a local minimum.
 Step number   3 out of a maximum of   89
 All quantities printed in internal units (Hartrees-Bohrs-Radians)
 Mixed Optimization -- En-DIIS/RFO-DIIS
 Swapping is turned off.
 Update second derivatives using D2CorX and points    1    2    3
 DE= -5.05D-04 DEPred=-4.18D-04 R= 1.21D+00
 TightC=F SS=  1.41D+00  RLast= 2.36D-01 DXNew= 8.4853D-01 7.0664D-01
 Trust test= 1.21D+00 RLast= 2.36D-01 DXMaxT set to 7.07D-01
 ITU=  1  1  0
     Eigenvalues ---    0.00603   0.00702   0.01274   0.02572   0.03278
     Eigenvalues ---    0.04719   0.05108   0.05267   0.05549   0.05824
     Eigenvalues ---    0.06275   0.06591   0.07602   0.08708   0.08777
     Eigenvalues ---    0.09099   0.10707   0.11501   0.11563   0.11747
     Eigenvalues ---    0.13017   0.16184   0.16931   0.23721   0.26634
     Eigenvalues ---    0.28435   0.34210   0.34519   0.34602   0.34614
     Eigenvalues ---    0.34628   0.34686   0.34693   0.34792   0.34864
     Eigenvalues ---    0.35332   0.40425   0.40836   0.45706
 En-DIIS/RFO-DIIS/Sim-DIIS IScMMF=       -3 using points:     3    2
 RFO step:  Lambda=-1.58109226D-04.
 DidBck=F Rises=F RFO-DIIS coefs:    1.49751   -0.49751
 Iteration  1 RMS(Cart)=  0.01513943 RMS(Int)=  0.00018398
 Iteration  2 RMS(Cart)=  0.00017609 RMS(Int)=  0.00009636
 Iteration  3 RMS(Cart)=  0.00000002 RMS(Int)=  0.00009636
 Variable       Old X    -DE/DX   Delta X   Delta X   Delta X     New X
                                 (Linear)    (Quad)   (Total)
    R1        2.88117   0.00067   0.00195   0.00062   0.00257   2.88374
    R2        2.76468   0.00087   0.00027   0.00184   0.00204   2.76672
    R3        2.09057  -0.00032   0.00108  -0.00151  -0.00043   2.09014
    R4        2.07230  -0.00042   0.00000  -0.00135  -0.00134   2.07096
    R5        2.68733   0.00034   0.00317  -0.00100   0.00225   2.68958
    R6        2.06758  -0.00042   0.00108  -0.00233  -0.00124   2.06634
    R7        2.08305  -0.00024   0.00087  -0.00121  -0.00034   2.08272
    R8        2.68732   0.00034   0.00317  -0.00100   0.00225   2.68957
    R9        2.88118   0.00067   0.00195   0.00061   0.00256   2.88374
   R10        2.08305  -0.00024   0.00086  -0.00120  -0.00034   2.08271
   R11        2.06758  -0.00042   0.00109  -0.00233  -0.00124   2.06634
   R12        2.76467   0.00087   0.00028   0.00184   0.00205   2.76672
   R13        2.07231  -0.00042   0.00001  -0.00135  -0.00134   2.07096
   R14        2.09057  -0.00032   0.00107  -0.00151  -0.00044   2.09014
   R15        1.91940   0.00027   0.00296  -0.00159   0.00136   1.92076
    A1        1.89666   0.00014  -0.00444  -0.00129  -0.00607   1.89059
    A2        1.89051   0.00020   0.00059  -0.00018   0.00038   1.89089
    A3        1.90891   0.00011   0.00335   0.00344   0.00691   1.91582
    A4        1.97738  -0.00048  -0.00336  -0.00354  -0.00686   1.97052
    A5        1.90540   0.00002   0.00139   0.00214   0.00367   1.90907
    A6        1.88420   0.00003   0.00281  -0.00033   0.00243   1.88662
    A7        1.93981  -0.00006  -0.00235   0.00066  -0.00189   1.93792
    A8        1.93292   0.00048   0.00718  -0.00187   0.00537   1.93829
    A9        1.90806  -0.00033  -0.00495   0.00192  -0.00305   1.90502
   A10        1.86473  -0.00050   0.00213  -0.00939  -0.00719   1.85754
   A11        1.91796   0.00043  -0.00454   0.00929   0.00472   1.92268
   A12        1.89966  -0.00001   0.00288  -0.00073   0.00216   1.90182
   A13        1.93183   0.00027   0.00740  -0.00367   0.00361   1.93544
   A14        1.93982  -0.00006  -0.00235   0.00066  -0.00189   1.93793
   A15        1.91796   0.00043  -0.00454   0.00929   0.00472   1.92268
   A16        1.86473  -0.00050   0.00212  -0.00939  -0.00719   1.85754
   A17        1.90806  -0.00033  -0.00494   0.00192  -0.00304   1.90502
   A18        1.93292   0.00048   0.00718  -0.00187   0.00537   1.93829
   A19        1.89966  -0.00001   0.00288  -0.00073   0.00216   1.90182
   A20        1.89666   0.00014  -0.00444  -0.00129  -0.00607   1.89059
   A21        1.90890   0.00011   0.00336   0.00345   0.00692   1.91582
   A22        1.89051   0.00020   0.00060  -0.00019   0.00038   1.89089
   A23        1.90540   0.00002   0.00139   0.00214   0.00366   1.90907
   A24        1.97739  -0.00049  -0.00337  -0.00354  -0.00687   1.97052
   A25        1.88419   0.00003   0.00281  -0.00032   0.00243   1.88662
   A26        1.93462  -0.00042  -0.00879   0.00114  -0.00810   1.92652
   A27        1.91362   0.00021   0.00124   0.00488   0.00628   1.91990
   A28        1.91363   0.00021   0.00123   0.00489   0.00627   1.91990
    D1       -1.00991  -0.00004  -0.00583  -0.00202  -0.00780  -1.01772
    D2       -3.07986   0.00031  -0.01160   0.01049  -0.00107  -3.08093
    D3        1.11028   0.00023  -0.01650   0.01133  -0.00514   1.10514
    D4        1.14516  -0.00042  -0.01238  -0.00727  -0.01967   1.12549
    D5       -0.92479  -0.00007  -0.01815   0.00525  -0.01294  -0.93772
    D6       -3.01783  -0.00015  -0.02305   0.00609  -0.01700  -3.03484
    D7       -3.08851  -0.00021  -0.00686  -0.00586  -0.01267  -3.10117
    D8        1.12474   0.00014  -0.01263   0.00666  -0.00593   1.11880
    D9       -0.96831   0.00006  -0.01753   0.00750  -0.01000  -0.97831
   D10        1.00898   0.00010   0.02666  -0.00287   0.02375   1.03273
   D11        3.12409   0.00023   0.02328   0.00721   0.03045  -3.12864
   D12       -1.09316   0.00006   0.03127   0.00054   0.03180  -1.06136
   D13        1.02195   0.00019   0.02789   0.01062   0.03851   1.06047
   D14        3.08977   0.00033   0.02892   0.00178   0.03065   3.12043
   D15       -1.07830   0.00046   0.02554   0.01186   0.03736  -1.04094
   D16        1.02822  -0.00015  -0.01164   0.00576  -0.00592   1.02230
   D17        3.13876   0.00009  -0.00291  -0.00207  -0.00499   3.13377
   D18       -1.08618   0.00002  -0.00068  -0.00332  -0.00401  -1.09019
   D19       -1.02822   0.00015   0.01165  -0.00577   0.00592  -1.02230
   D20        1.08618  -0.00002   0.00069   0.00331   0.00402   1.09020
   D21       -3.13876  -0.00009   0.00292   0.00206   0.00499  -3.13377
   D22        1.00990   0.00004   0.00582   0.00203   0.00781   1.01771
   D23        3.08850   0.00021   0.00685   0.00587   0.01267   3.10116
   D24       -1.14518   0.00042   0.01238   0.00729   0.01968  -1.12550
   D25       -1.11030  -0.00023   0.01649  -0.01132   0.00514  -1.10515
   D26        0.96830  -0.00006   0.01752  -0.00748   0.01000   0.97830
   D27        3.01781   0.00015   0.02305  -0.00607   0.01702   3.03482
   D28        3.07985  -0.00031   0.01159  -0.01048   0.00107   3.08092
   D29       -1.12474  -0.00014   0.01262  -0.00665   0.00593  -1.11881
   D30        0.92477   0.00007   0.01815  -0.00523   0.01294   0.93771
   D31       -1.00897  -0.00010  -0.02666   0.00286  -0.02375  -1.03272
   D32       -3.12408  -0.00023  -0.02329  -0.00722  -0.03047   3.12864
   D33       -3.08975  -0.00033  -0.02892  -0.00179  -0.03067  -3.12042
   D34        1.07833  -0.00046  -0.02555  -0.01187  -0.03738   1.04095
   D35        1.09318  -0.00006  -0.03127  -0.00056  -0.03181   1.06137
   D36       -1.02193  -0.00019  -0.02789  -0.01064  -0.03853  -1.06046
         Item               Value     Threshold  Converged?
 Maximum Force            0.000872     0.000450     NO 
 RMS     Force            0.000319     0.000300     NO 
 Maximum Displacement     0.063616     0.001800     NO 
 RMS     Displacement     0.015178     0.001200     NO 
 Predicted change in Energy=-8.004599D-05
 GradGradGradGradGradGradGradGradGradGradGradGradGradGradGradGradGradGrad

                          Input orientation:                          
 ---------------------------------------------------------------------
 Center     Atomic      Atomic             Coordinates (Angstroms)
 Number     Number       Type             X           Y           Z
 ---------------------------------------------------------------------
      1          6           0        0.302429   -0.961902    0.993668
      2          6           0        0.625733    0.488754    1.339758
      3          8           0        0.937091    1.236035    0.169159
      4          6           0       -0.146139    1.208537   -0.753623
      5          6           0       -0.489140   -0.223756   -1.153120
      6          7           0       -0.825007   -0.971987    0.059682
      7          1           0        1.212420   -1.430926    0.574991
      8          1           0        0.026104   -1.507225    1.903213
      9          1           0        1.503176    0.551519    1.989223
     10          1           0       -0.236844    0.937510    1.858664
     11          1           0       -1.036088    1.682824   -0.308964
     12          1           0        0.171884    1.792966   -1.621353
     13          1           0       -1.350613   -0.223420   -1.830521
     14          1           0        0.374906   -0.649949   -1.696385
     15          1           0       -1.070212   -1.929081   -0.178990
 ---------------------------------------------------------------------
                    Distance matrix (angstroms):
                    1          2          3          4          5
     1  C    0.000000
     2  C    1.526011   0.000000
     3  O    2.431777   1.423262   0.000000
     4  C    2.822241   2.344380   1.423261   0.000000
     5  C    2.404192   2.822243   2.431779   1.526011   0.000000
     6  N    1.464085   2.424254   2.827073   2.424255   1.464085
     7  H    1.106054   2.148079   2.711677   3.252332   2.709046
     8  H    1.095903   2.158928   3.370804   3.803131   3.354689
     9  H    2.173331   1.093458   2.025252   3.267280   3.800617
    10  H    2.155644   1.102127   2.078862   2.627875   3.237751
    11  H    3.237755   2.627877   2.078860   1.102125   2.155644
    12  H    3.800615   3.267281   2.025253   1.093459   2.173330
    13  H    3.354691   3.803131   3.370804   2.158927   1.095905
    14  H    2.709050   3.252341   2.711687   2.148082   1.106052
    15  H    2.048098   3.320956   3.764098   3.320957   2.048098
                    6          7          8          9         10
     6  N    0.000000
     7  H    2.151110   0.000000
     8  H    2.099875   1.782509   0.000000
     9  H    3.385947   2.452485   2.535265   0.000000
    10  H    2.688578   3.059031   2.459239   1.787094   0.000000
    11  H    2.688583   3.941143   4.024723   3.606851   2.427528
    12  H    3.385947   4.037341   4.830639   4.043487   3.606852
    13  H    2.099877   3.716678   4.181420   4.830640   4.024714
    14  H    2.151109   2.543718   3.716677   4.037354   3.941146
    15  H    1.016424   2.455005   2.390698   4.180532   3.614399
                   11         12         13         14         15
    11  H    0.000000
    12  H    1.787091   0.000000
    13  H    2.459233   2.535263   0.000000
    14  H    3.059031   2.452484   1.782508   0.000000
    15  H    3.614404   4.180532   2.390703   2.455001   0.000000
 Stoichiometry    C4H9NO
 Framework group  C1[X(C4H9NO)]
 Deg. of freedom    39
 Full point group                 C1      NOp   1
 Largest Abelian subgroup         C1      NOp   1
 Largest concise Abelian subgroup C1      NOp   1
                         Standard orientation:                         
 ---------------------------------------------------------------------
 Center     Atomic      Atomic             Coordinates (Angstroms)
 Number     Number       Type             X           Y           Z
 ---------------------------------------------------------------------
      1          6           0       -1.202083    0.717638   -0.201567
      2          6           0       -1.172204   -0.754423    0.199494
      3          8           0       -0.000025   -1.394303   -0.292670
      4          6           0        1.172176   -0.754465    0.199492
      5          6           0        1.202109    0.717597   -0.201565
      6          7           0        0.000024    1.363642    0.328681
      7          1           0       -1.271842    0.776690   -1.303838
      8          1           0       -2.090688    1.199252    0.222029
      9          1           0       -2.021767   -1.295035   -0.226689
     10          1           0       -1.213776   -0.830713    1.298191
     11          1           0        1.213752   -0.830761    1.298186
     12          1           0        2.021720   -1.295105   -0.226696
     13          1           0        2.090732    1.199175    0.222039
     14          1           0        1.271877    0.776655   -1.303834
     15          1           0        0.000041    2.350690    0.086085
 ---------------------------------------------------------------------
 Rotational constants (GHZ):           4.9213903           4.6191489           2.6797294
 Standard basis: 6-31G(d,p) (6D, 7F)
 There are   135 symmetry adapted cartesian basis functions of A   symmetry.
 There are   135 symmetry adapted basis functions of A   symmetry.
   135 basis functions,   231 primitive gaussians,   135 cartesian basis functions
    24 alpha electrons       24 beta electrons
       nuclear repulsion energy       263.0919135622 Hartrees.
 NAtoms=   15 NActive=   15 NUniq=   15 SFac= 1.00D+00 NAtFMM=   60 NAOKFM=F Big=F
 Integral buffers will be    131072 words long.
 Raffenetti 2 integral format.
 Two-electron integral symmetry is turned on.
 Nuclear repulsion after empirical dispersion term =      263.0719317480 Hartrees.
 One-electron integrals computed using PRISM.
 NBasis=   135 RedAO= T EigKep=  3.35D-03  NBF=   135
 NBsUse=   135 1.00D-06 EigRej= -1.00D+00 NBFU=   135
 Initial guess from the checkpoint file:  "SecN1_conf-1.chk"
 B after Tr=     0.000000    0.000000    0.000000
         Rot=    1.000000    0.000520   -0.000000   -0.000049 Ang=   0.06 deg.
 ExpMin= 1.61D-01 ExpMax= 5.48D+03 ExpMxC= 8.25D+02 IAcc=3 IRadAn=         5 AccDes= 0.00D+00
 Harris functional with IExCor=  402 and IRadAn=       5 diagonalized for initial guess.
 HarFok:  IExCor=  402 AccDes= 0.00D+00 IRadAn=         5 IDoV= 1 UseB2=F ITyADJ=14
 ICtDFT=  3500011 ScaDFX=  1.000000  1.000000  1.000000  1.000000
 FoFCou: FMM=F IPFlag=           0 FMFlag=      100000 FMFlg1=           0
         NFxFlg=           0 DoJE=T BraDBF=F KetDBF=T FulRan=T
         wScrn=  0.000000 ICntrl=       500 IOpCl=  0 I1Cent=   200000004 NGrid=           0
         NMat0=    1 NMatS0=      1 NMatT0=    0 NMatD0=    1 NMtDS0=    0 NMtDT0=    0
 Petite list used in FoFCou.
 Requested convergence on RMS density matrix=1.00D-08 within 128 cycles.
 Requested convergence on MAX density matrix=1.00D-06.
 Requested convergence on             energy=1.00D-06.
 No special actions if energy rises.
 Integral accuracy reduced to 1.0D-05 until final iterations.
 Initial convergence to 1.0D-05 achieved.  Increase integral accuracy.
 SCF Done:  E(RB3LYP) =  -287.827088171     A.U. after   10 cycles
            NFock= 10  Conv=0.38D-08     -V/T= 2.0093
 Calling FoFJK, ICntrl=      2127 FMM=F ISym2X=0 I1Cent= 0 IOpClX= 0 NMat=1 NMatS=1 NMatT=0.
 ***** Axes restored to original set *****
 -------------------------------------------------------------------
 Center     Atomic                   Forces (Hartrees/Bohr)
 Number     Number              X              Y              Z
 -------------------------------------------------------------------
      1        6           0.000069973    0.000022373    0.000196774
      2        6           0.000148682    0.000146805    0.000177003
      3        8          -0.000495147   -0.000175152    0.000122687
      4        6           0.000043453    0.000245845   -0.000114163
      5        6          -0.000058414    0.000140900   -0.000146018
      6        7           0.000154659   -0.000705011   -0.000299454
      7        1          -0.000107821    0.000043846    0.000118838
      8        1          -0.000017645    0.000054757   -0.000169461
      9        1          -0.000054376   -0.000111331    0.000119640
     10        1           0.000251597   -0.000050432   -0.000135132
     11        1           0.000264991   -0.000063734   -0.000094371
     12        1          -0.000135496   -0.000036053   -0.000099649
     13        1           0.000097686   -0.000052256    0.000141911
     14        1          -0.000144441    0.000078850    0.000016505
     15        1          -0.000017702    0.000460593    0.000164891
[...]
 Rotational constants (GHZ):           4.9161547           4.6213203           2.6779312
 Standard basis: def2TZVP (5D, 7F)
 There are   270 symmetry adapted cartesian basis functions of A   symmetry.
 There are   240 symmetry adapted basis functions of A   symmetry.
   240 basis functions,   378 primitive gaussians,   270 cartesian basis functions
    24 alpha electrons       24 beta electrons
       nuclear repulsion energy       263.0601900241 Hartrees.
 NAtoms=   15 NActive=   15 NUniq=   15 SFac= 1.00D+00 NAtFMM=   60 NAOKFM=F Big=F
 Integral buffers will be    131072 words long.
 Raffenetti 2 integral format.
 Two-electron integral symmetry is turned on.
 One-electron integrals computed using PRISM.
   1 Symmetry operations used in ECPInt.
 ECPInt:  NShTT=    5253 NPrTT=   15384 LenC2=    5228 LenP2D=   12959.
 LDataN:  DoStor=T MaxTD1= 6 Len=  172
 NBasis=   240 RedAO= T EigKep=  1.23D-04  NBF=   240
 NBsUse=   240 1.00D-06 EigRej= -1.00D+00 NBFU=   240
 Initial guess from the checkpoint file:  "SecN1_conf-1.chk"
 B after Tr=    -0.000000    0.000000   -0.000000
         Rot=    1.000000    0.000000    0.000000   -0.000000 Ang=   0.00 deg.
 Requested convergence on RMS density matrix=1.00D-08 within 128 cycles.
 Requested convergence on MAX density matrix=1.00D-06.
 Requested convergence on             energy=1.00D-06.
 No special actions if energy rises.
 SCF Done:  E(RM062X) =  -287.779497610     A.U. after    1 cycles
            NFock=  1  Conv=0.15D-08     -V/T= 2.0053
 DoSCS=F DFT=T ScalE2(SS,OS)=  1.000000  1.000000
 Range of M.O.s used for correlation:     1   240
 NBasis=   240 NAE=    24 NBE=    24 NFC=     0 NFV=     0
 NROrb=    240 NOA=    24 NOB=    24 NVA=   216 NVB=   216

 **** Warning!!: The largest alpha MO coefficient is  0.24269785D+02

          Differentiating once with respect to magnetic field using GIAOs.
          Electric field/nuclear overlap derivatives assumed to be zero.
 FoFCou: FMM=F IPFlag=           0 FMFlag=      100000 FMFlg1=           0
         NFxFlg=           0 DoJE=F BraDBF=F KetDBF=T FulRan=T
         wScrn=  0.000000 ICntrl=      6100 IOpCl=  0 I1Cent=           7 NGrid=          15
         NMat0=    1 NMatS0=      1 NMatT0=    0 NMatD0=    1 NMtDS0=    0 NMtDT0=    0
 Symmetry not used in FoFCou.
   1 Symmetry operations used in ECPInt.
 ECPInt:  NShTT=    5253 NPrTT=   15384 LenC2=    5254 LenP2D=   15384.
 LDataN:  DoStor=T MaxTD1= 7 Len=  274
 FoFJK:  IHMeth= 1 ICntrl=    6127 DoSepK=F KAlg= 0 I1Cent=           0 FoldK=F
 IRaf=         1 NMat=       1 IRICut=       1 DoRegI=T DoRafI=F ISym2E= 0 IDoP0=0 IntGTp=1.
          There are     3 degrees of freedom in the 1st order CPHF.  IDoFFX=0 NUNeed=     3.
      3 vectors produced by pass  0 Test12= 1.73D-13 3.33D-08 XBig12= 4.06D+00 5.11D-01.
 AX will form     3 AO Fock derivatives at one time.
      3 vectors produced by pass  1 Test12= 1.73D-13 3.33D-08 XBig12= 1.10D-02 2.27D-02.
      3 vectors produced by pass  2 Test12= 1.73D-13 3.33D-08 XBig12= 6.57D-05 3.23D-03.
      3 vectors produced by pass  3 Test12= 1.73D-13 3.33D-08 XBig12= 9.99D-07 4.35D-04.
      3 vectors produced by pass  4 Test12= 1.73D-13 3.33D-08 XBig12= 1.06D-08 2.78D-05.
      3 vectors produced by pass  5 Test12= 1.73D-13 3.33D-08 XBig12= 7.03D-11 2.20D-06.
      3 vectors produced by pass  6 Test12= 1.73D-13 3.33D-08 XBig12= 5.92D-13 1.50D-07.
 InvSVY:  IOpt=1 It=  1 EMax= 4.44D-16
 Solved reduced A of dimension    21 with     3 vectors.
 Calculating GIAO nuclear magnetic shielding tensors.
 SCF GIAO Magnetic shielding tensor (ppm):
      1  C    Isotropic =   134.8860   Anisotropy =    20.5445
   XX=   139.9147   YX=    14.3850   ZX=     8.7130
   XY=    12.3064   YY=   127.3083   ZY=    -1.0270
   XZ=    -9.0068   YZ=     7.1667   ZZ=   137.4350
   Eigenvalues:   118.4742   137.6015   148.5824
      2  C    Isotropic =   114.2963   Anisotropy =    50.7317
   XX=   130.2716   YX=   -24.2928   ZX=   -22.6354
   XY=   -18.9638   YY=   105.7496   ZY=     1.0565
   XZ=    -5.3805   YZ=     9.2058   ZZ=   106.8678
   Eigenvalues:    92.4711   102.3004   148.1174
      3  O    Isotropic =   288.9327   Anisotropy =    67.1304
   XX=   243.2885   YX=     0.0001   ZX=    -0.0001
   XY=     0.0001   YY=   289.8255   ZY=     0.5179
   XZ=    -0.0001   YZ=     0.1021   ZZ=   333.6841
   Eigenvalues:   243.2885   289.8233   333.6863
      4  C    Isotropic =   114.2964   Anisotropy =    50.7317
   XX=   130.2723   YX=    24.2924   ZX=    22.6354
   XY=    18.9635   YY=   105.7491   ZY=     1.0563
   XZ=     5.3807   YZ=     9.2058   ZZ=   106.8679
   Eigenvalues:    92.4712   102.3004   148.1175
      5  C    Isotropic =   134.8861   Anisotropy =    20.5446
   XX=   139.9144   YX=   -14.3851   ZX=    -8.7131
   XY=   -12.3066   YY=   127.3087   ZY=    -1.0268
   XZ=     9.0069   YZ=     7.1667   ZZ=   137.4350
   Eigenvalues:   118.4742   137.6015   148.5825
      6  N    Isotropic =   212.0578   Anisotropy =    42.5435
   XX=   187.4188   YX=     0.0004   ZX=     0.0000
   XY=     0.0004   YY=   240.3664   ZY=     2.9400
   XZ=    -0.0001   YZ=    -5.5657   ZZ=   208.3883
   Eigenvalues:   187.4188   208.3345   240.4202
      7  H    Isotropic =    29.0876   Anisotropy =     8.1041
   XX=    28.3537   YX=     0.9297   ZX=     5.3863
   XY=     0.4942   YY=    27.4124   ZY=    -1.1895
   XZ=     3.0964   YZ=    -1.1138   ZZ=    31.4967
   Eigenvalues:    24.8037    27.9688    34.4903
      8  H    Isotropic =    29.3339   Anisotropy =     8.2329
   XX=    33.7682   YX=    -3.1225   ZX=    -0.6008
   XY=    -1.7362   YY=    27.8965   ZY=     0.7735
   XZ=    -1.0784   YZ=     1.8005   ZZ=    26.3368
   Eigenvalues:    25.5770    27.6021    34.8225
      9  H    Isotropic =    28.2929   Anisotropy =     7.3468
   XX=    32.2031   YX=     2.9903   ZX=     0.3008
   XY=     1.4227   YY=    28.0844   ZY=     0.5176
   XZ=     0.0353   YZ=     1.1927   ZZ=    24.5912
   Eigenvalues:    24.3761    27.3118    33.1908
     10  H    Isotropic =    28.4398   Anisotropy =     7.5794
   XX=    28.4455   YX=    -0.5651   ZX=    -5.8743
   XY=    -0.3367   YY=    27.3271   ZY=    -1.5514
   XZ=    -2.7577   YZ=    -1.7206   ZZ=    29.5467
   Eigenvalues:    24.0185    27.8081    33.4927
     11  H    Isotropic =    28.4398   Anisotropy =     7.5794
   XX=    28.4456   YX=     0.5651   ZX=     5.8743
   XY=     0.3367   YY=    27.3271   ZY=    -1.5514
   XZ=     2.7576   YZ=    -1.7206   ZZ=    29.5467
   Eigenvalues:    24.0185    27.8081    33.4927
     12  H    Isotropic =    28.2929   Anisotropy =     7.3468
   XX=    32.2031   YX=    -2.9904   ZX=    -0.3008
   XY=    -1.4228   YY=    28.0845   ZY=     0.5176
   XZ=    -0.0353   YZ=     1.1927   ZZ=    24.5912
   Eigenvalues:    24.3761    27.3118    33.1908
     13  H    Isotropic =    29.3339   Anisotropy =     8.2329
   XX=    33.7683   YX=     3.1224   ZX=     0.6008
   XY=     1.7362   YY=    27.8965   ZY=     0.7735
   XZ=     1.0784   YZ=     1.8005   ZZ=    26.3368
   Eigenvalues:    25.5770    27.6021    34.8225
     14  H    Isotropic =    29.0876   Anisotropy =     8.1041
   XX=    28.3537   YX=    -0.9297   ZX=    -5.3863
   XY=    -0.4942   YY=    27.4125   ZY=    -1.1894
   XZ=    -3.0965   YZ=    -1.1138   ZZ=    31.4967
   Eigenvalues:    24.8037    27.9688    34.4903
     15  H    Isotropic =    31.2247   Anisotropy =    14.6479
   XX=    29.6903   YX=     0.0001   ZX=    -0.0000
   XY=     0.0001   YY=    40.9137   ZY=    -1.2641
   XZ=    -0.0000   YZ=    -1.0740   ZZ=    23.0700
   Eigenvalues:    22.9937    29.6903    40.9900
 End of Minotr F.D. properties file   721 does not exist.
 End of Minotr F.D. properties file   722 does not exist.
 End of Minotr F.D. properties file   788 does not exist.

 **********************************************************************

            Population analysis using the SCF Density.

 **********************************************************************

 Orbital symmetries:
       Occupied  (A) (A) (A) (A) (A) (A) (A) (A) (A) (A) (A) (A)
                 (A) (A) (A) (A) (A) (A) (A) (A) (A) (A) (A) (A)
       Virtual   (A) (A) (A) (A) (A) (A) (A) (A) (A) (A) (A) (A)
                 (A) (A) (A) (A) (A) (A) (A) (A) (A) (A) (A) (A)
                 (A) (A) (A) (A) (A) (A) (A) (A) (A) (A) (A) (A)
                 (A) (A) (A) (A) (A) (A) (A) (A) (A) (A) (A) (A)
                 (A) (A) (A) (A) (A) (A) (A) (A) (A) (A) (A) (A)
                 (A) (A) (A) (A) (A) (A) (A) (A) (A) (A) (A) (A)
                 (A) (A) (A) (A) (A) (A) (A) (A) (A) (A) (A) (A)
                 (A) (A) (A) (A) (A) (A) (A) (A) (A) (A) (A) (A)
                 (A) (A) (A) (A) (A) (A) (A) (A) (A) (A) (A) (A)
                 (A) (A) (A) (A) (A) (A) (A) (A) (A) (A) (A) (A)
                 (A) (A) (A) (A) (A) (A) (A) (A) (A) (A) (A) (A)
                 (A) (A) (A) (A) (A) (A) (A) (A) (A) (A) (A) (A)
                 (A) (A) (A) (A) (A) (A) (A) (A) (A) (A) (A) (A)
                 (A) (A) (A) (A) (A) (A) (A) (A) (A) (A) (A) (A)
                 (A) (A) (A) (A) (A) (A) (A) (A) (A) (A) (A) (A)
                 (A) (A) (A) (A) (A) (A) (A) (A) (A) (A) (A) (A)
                 (A) (A) (A) (A) (A) (A) (A) (A) (A) (A) (A) (A)
                 (A) (A) (A) (A) (A) (A) (A) (A) (A) (A) (A) (A)
 The electronic state is 1-A.
 Alpha  occ. eigenvalues --  -19.62318 -14.73576 -10.57794 -10.57792 -10.55931
 Alpha  occ. eigenvalues --  -10.55929  -1.15512  -1.01136  -0.86576  -0.77396
 Alpha  occ. eigenvalues --   -0.73342  -0.64926  -0.59834  -0.54177  -0.53514
 Alpha  occ. eigenvalues --   -0.51451  -0.50272  -0.48674  -0.45507  -0.41570
 Alpha  occ. eigenvalues --   -0.40957  -0.37244  -0.32920  -0.29546
 Alpha virt. eigenvalues --    0.06520   0.09488   0.10062   0.10833   0.12869
 Alpha virt. eigenvalues --    0.14079   0.14377   0.14487   0.15917   0.17012
 Alpha virt. eigenvalues --    0.18199   0.21220   0.21275   0.23477   0.24942
 Alpha virt. eigenvalues --    0.25448   0.26617   0.32230   0.34324   0.35605
 Alpha virt. eigenvalues --    0.36347   0.36691   0.39181   0.40239   0.40380
 Alpha virt. eigenvalues --    0.42302   0.43497   0.44192   0.45804   0.46610
 Alpha virt. eigenvalues --    0.46963   0.47980   0.48532   0.50262   0.52698
 Alpha virt. eigenvalues --    0.53454   0.54688   0.57817   0.58846   0.59995
 Alpha virt. eigenvalues --    0.62208   0.64082   0.69718   0.70001   0.74126
 Alpha virt. eigenvalues --    0.77480   0.78917   0.78995   0.81363   0.84543
 Alpha virt. eigenvalues --    0.87675   0.91770   0.93939   0.95957   0.96034
 Alpha virt. eigenvalues --    0.96664   0.98163   1.06329   1.12167   1.12354
 Alpha virt. eigenvalues --    1.13073   1.18615   1.19011   1.19595   1.23316
 Alpha virt. eigenvalues --    1.24428   1.27654   1.29561   1.37412   1.45472
 Alpha virt. eigenvalues --    1.49420   1.49876   1.52062   1.53184   1.53244
 Alpha virt. eigenvalues --    1.58009   1.61368   1.62522   1.63491   1.64480
 Alpha virt. eigenvalues --    1.64546   1.67677   1.72836   1.73856   1.77846
 Alpha virt. eigenvalues --    1.78424   1.78486   1.82756   1.84687   1.89375
 Alpha virt. eigenvalues --    1.91931   1.92662   1.93158   1.99026   2.00181
 Alpha virt. eigenvalues --    2.02799   2.04130   2.05011   2.05785   2.11214
 Alpha virt. eigenvalues --    2.12404   2.23993   2.25501   2.27637   2.31779
 Alpha virt. eigenvalues --    2.32317   2.36371   2.39749   2.39945   2.44462
 Alpha virt. eigenvalues --    2.45884   2.48393   2.50296   2.51379   2.54794
 Alpha virt. eigenvalues --    2.54857   2.57252   2.59548   2.61220   2.62975
 Alpha virt. eigenvalues --    2.63256   2.66180   2.68251   2.71946   2.72686
 Alpha virt. eigenvalues --    2.73611   2.73910   2.77430   2.78839   2.87012
 Alpha virt. eigenvalues --    2.87837   2.93802   2.96648   3.00774   3.05194
 Alpha virt. eigenvalues --    3.06191   3.06414   3.10676   3.13316   3.16285
 Alpha virt. eigenvalues --    3.16371   3.18515   3.18946   3.20844   3.20997
 Alpha virt. eigenvalues --    3.23920   3.29047   3.29234   3.34462   3.34736
 Alpha virt. eigenvalues --    3.36352   3.39891   3.40290   3.42996   3.44508
 Alpha virt. eigenvalues --    3.46229   3.49677   3.54458   3.56473   3.59772
 Alpha virt. eigenvalues --    3.61858   3.64628   3.76144   3.77229   3.77609
 Alpha virt. eigenvalues --    3.78009   3.81162   3.89145   3.90785   3.93797
 Alpha virt. eigenvalues --    4.02641   4.03878   4.11043   4.15906   4.20992
 Alpha virt. eigenvalues --    4.25802   4.29718   4.31966   4.37393   4.38960
 Alpha virt. eigenvalues --    4.47620   4.48095   4.58594   4.60206   4.68518
 Alpha virt. eigenvalues --    4.72458   4.80201   4.85255   4.93310   5.01019
 Alpha virt. eigenvalues --    5.03978   5.06627   5.22606   5.24771   5.31196
 Alpha virt. eigenvalues --    5.39456   5.44037   5.50607   5.50652   5.76023
 Alpha virt. eigenvalues --    5.78728   5.84148   5.85207   6.13225   6.15214
 Alpha virt. eigenvalues --    6.70956   6.74687   6.88001   7.17844   7.22851
 Alpha virt. eigenvalues --   22.45831  22.55135  22.57964  22.65938  32.36734
 Alpha virt. eigenvalues --   44.22258
          Condensed to atoms (all electrons):
               1          2          3          4          5          6
     1  C    5.103817   0.276999  -0.051460  -0.019533  -0.029674   0.246519
     2  C    0.276999   4.910142   0.250930  -0.035171  -0.019533  -0.042874
     3  O   -0.051460   0.250930   8.063860   0.250930  -0.051460   0.000832
     4  C   -0.019533  -0.035171   0.250930   4.910142   0.276998  -0.042874
     5  C   -0.029674  -0.019533  -0.051460   0.276998   5.103817   0.246519
     6  N    0.246519  -0.042874   0.000832  -0.042874   0.246519   6.773222
     7  H    0.439084  -0.069364   0.002126  -0.000919  -0.006979  -0.063389
     8  H    0.391749  -0.018137   0.005460   0.000303   0.007707  -0.032585
     9  H   -0.046395   0.400925  -0.035544   0.007021  -0.000912   0.006359
    10  H   -0.079618   0.439656  -0.045931  -0.007138  -0.004273   0.002243
    11  H   -0.004273  -0.007138  -0.045931   0.439656  -0.079618   0.002243
    12  H   -0.000912   0.007021  -0.035544   0.400925  -0.046395   0.006359
    13  H    0.007707   0.000303   0.005460  -0.018137   0.391749  -0.032585
    14  H   -0.006979  -0.000919   0.002126  -0.069364   0.439084  -0.063389
    15  H   -0.042346   0.008182  -0.001869   0.008182  -0.042346   0.364985
               7          8          9         10         11         12
     1  C    0.439084   0.391749  -0.046395  -0.079618  -0.004273  -0.000912
     2  C   -0.069364  -0.018137   0.400925   0.439656  -0.007138   0.007021
     3  O    0.002126   0.005460  -0.035544  -0.045931  -0.045931  -0.035544
     4  C   -0.000919   0.000303   0.007021  -0.007138   0.439656   0.400925
     5  C   -0.006979   0.007707  -0.000912  -0.004273  -0.079618  -0.046395
     6  N   -0.063389  -0.032585   0.006359   0.002243   0.002243   0.006359
     7  H    0.577843  -0.029069   0.001265   0.010937   0.001261   0.000535
     8  H   -0.029069   0.552055  -0.002238   0.000070   0.000346   0.000086
     9  H    0.001265  -0.002238   0.563906  -0.024741   0.000471   0.000233
    10  H    0.010937   0.000070  -0.024741   0.569547   0.010961   0.000471
    11  H    0.001261   0.000346   0.000471   0.010961   0.569547  -0.024741
    12  H    0.000535   0.000086   0.000233   0.000471  -0.024741   0.563907
    13  H   -0.000076   0.000061   0.000086   0.000346   0.000070  -0.002238
    14  H    0.012243  -0.000076   0.000535   0.001261   0.010937   0.001265
    15  H   -0.008111  -0.008758  -0.000758  -0.001343  -0.001343  -0.000758
              13         14         15
     1  C    0.007707  -0.006979  -0.042346
     2  C    0.000303  -0.000919   0.008182
     3  O    0.005460   0.002126  -0.001869
     4  C   -0.018137  -0.069364   0.008182
     5  C    0.391749   0.439084  -0.042346
     6  N   -0.032585  -0.063389   0.364985
     7  H   -0.000076   0.012243  -0.008111
     8  H    0.000061  -0.000076  -0.008758
     9  H    0.000086   0.000535  -0.000758
    10  H    0.000346   0.001261  -0.001343
    11  H    0.000070   0.010937  -0.001343
    12  H   -0.002238   0.001265  -0.000758
    13  H    0.552055  -0.029069  -0.008758
    14  H   -0.029069   0.577843  -0.008111
    15  H   -0.008758  -0.008111   0.532115
 Mulliken charges:
               1
     1  C   -0.184686
     2  C   -0.101023
     3  O   -0.313985
     4  C   -0.101023
     5  C   -0.184686
     6  N   -0.371587
     7  H    0.132613
     8  H    0.133024
     9  H    0.129787
    10  H    0.127552
    11  H    0.127552
    12  H    0.129787
    13  H    0.133024
    14  H    0.132613
    15  H    0.211037
 Sum of Mulliken charges =  -0.00000
 Mulliken charges with hydrogens summed into heavy atoms:
               1
     1  C    0.080951
     2  C    0.156316
     3  O   -0.313985
     4  C    0.156316
     5  C    0.080951
     6  N   -0.160550
 Electronic spatial extent (au):  <R**2>=            519.6411
 Charge=              0.0000 electrons
 Dipole moment (field-independent basis, Debye):
    X=              0.0000    Y=              1.5484    Z=             -0.2291  Tot=              1.5653
 Quadrupole moment (field-independent basis, Debye-Ang):
   XX=            -33.3332   YY=            -38.4490   ZZ=            -39.7377
   XY=             -0.0000   XZ=             -0.0000   YZ=             -2.7251
 Traceless Quadrupole moment (field-independent basis, Debye-Ang):
   XX=              3.8401   YY=             -1.2757   ZZ=             -2.5644
   XY=             -0.0000   XZ=             -0.0000   YZ=             -2.7251
 Octapole moment (field-independent basis, Debye-Ang**2):
  XXX=             -0.0001  YYY=             12.0865  ZZZ=             -1.7733  XYY=              0.0001
  XXY=             -2.5895  XXZ=              0.0858  XZZ=             -0.0000  YZZ=             -3.0803
  YYZ=             -0.8269  XYZ=             -0.0000
 Hexadecapole moment (field-independent basis, Debye-Ang**3):
 XXXX=           -303.0270 YYYY=           -275.5380 ZZZZ=            -86.0748 XXXY=              0.0001
 XXXZ=              0.0001 YYYX=             -0.0000 YYYZ=             -1.7013 ZZZX=             -0.0000
 ZZZY=             -3.3290 XXYY=            -93.1474 XXZZ=            -66.5082 YYZZ=            -67.5206
 XXYZ=              4.7267 YYXZ=             -0.0001 ZZXY=             -0.0000
 N-N= 2.630601900241D+02 E-N=-1.197280847319D+03  KE= 2.862657681173D+02
 Unable to Open any file for archive entry.
 1\1\GINC-NOTCH144\SP\RM062X\def2TZVP\C4H9N1O1\U6032257\25-Sep-2022\0\\
 # M062X/def2tzvp int=(grid=ultrafine) nmr=giao guess=read geom=check\\
 SecN1.xyz\\0,1\C,0,0.3028434965,-0.9620779388,0.9946857712\C,0,0.62621
 23528,0.4885908308,1.3404467165\O,0,0.9361950475,1.2357777401,0.169399
 7276\C,0,-0.1462043372,1.2088790188,-0.7544050397\C,0,-0.4894487556,-0
 .2232565952,-1.1540661118\N,0,-0.8228373158,-0.9733077055,0.0584267942
 \H,0,1.2135677989,-1.4318276315,0.5790746687\H,0,0.0240326903,-1.50650
 9458,1.903711657\H,0,1.503446952,0.5506358726,1.9902942542\H,0,-0.2357
 009193,0.9375454338,1.8593704843\H,0,-1.0356060178,1.6834678804,-0.310
 0334451\H,0,0.1712832513,1.7928940098,-1.6226333383\H,0,-1.3523793617,
 -0.2229878489,-1.8292108054\H,0,0.3732287541,-0.6482050478,-1.69997982
 72\H,0,-1.068933636,-1.9297185605,-0.1796815063\\Version=ES64L-G16RevC
 .01\State=1-A\HF=-287.7794976\RMSD=1.473e-09\Dipole=-0.2003755,-0.5694
 156,-0.1219031\Quadrupole=-2.712455,0.5670511,2.1454039,-1.2533625,1.6
 218976,-0.3245496\PG=C01 [X(C4H9N1O1)]\\@
 The archive entry for this job was punched.


 ASKING DUMB QUESTIONS IS EASIER THAN CORECTING DUMB MISTAKES.
 Job cpu time:       0 days  0 hours  6 minutes 52.9 seconds.
 Elapsed time:       0 days  0 hours  0 minutes 12.2 seconds.
 File lengths (MBytes):  RWF=     38 Int=      0 D2E=      0 Chk=      6 Scr=      1
 Normal termination of Gaussian 16 at Sun Sep 25 07:17:01 2022.
