 Entering Gaussian System, Link 0=/uufs/chpc.utah.edu/sys/installdir/gaussian16/C01/AVX2/g16/g16
 Input=SecN5_clust-14.com
 Output=SecN5_clust-14.log
 Initial command:
 /uufs/chpc.utah.edu/sys/installdir/gaussian16/C01/AVX2/g16/l1.exe "/scratch/local/u6032257/5771824/notchpeak.peaks/Gau-828336.inp" -scrdir="/scratch/local/u6032257/5771824/notchpeak.peaks/"
 Entering Link 1 = /uufs/chpc.utah.edu/sys/installdir/gaussian16/C01/AVX2/g16/l1.exe PID=    828339.
  
 Copyright (c) 1988-2019, Gaussian, Inc.  All Rights Reserved.
  
 This is part of the Gaussian(R) 16 program.  It is based on
 the Gaussian(R) 09 system (copyright 2009, Gaussian, Inc.),
 the Gaussian(R) 03 system (copyright 2003, Gaussian, Inc.),
 the Gaussian(R) 98 system (copyright 1998, Gaussian, Inc.),
 the Gaussian(R) 94 system (copyright 1995, Gaussian, Inc.),
 the Gaussian 92(TM) system (copyright 1992, Gaussian, Inc.),
 the Gaussian 90(TM) system (copyright 1990, Gaussian, Inc.),
 the Gaussian 88(TM) system (copyright 1988, Gaussian, Inc.),
 the Gaussian 86(TM) system (copyright 1986, Carnegie Mellon
 University), and the Gaussian 82(TM) system (copyright 1983,
 Carnegie Mellon University). Gaussian is a federally registered
 trademark of Gaussian, Inc.
  
 This software contains proprietary and confidential information,
 including trade secrets, belonging to Gaussian, Inc.
  
 This software is provided under written license and may be
 used, copied, transmitted, or stored only in accord with that
 written license.
  
 The following legend is applicable only to US Government
 contracts under FAR:
  
                    RESTRICTED RIGHTS LEGEND
  
 Use, reproduction and disclosure by the US Government is
 subject to restrictions as set forth in subparagraphs (a)
 and (c) of the Commercial Computer Software - Restricted
 Rights clause in FAR 52.227-19.
  
 Gaussian, Inc.
 340 Quinnipiac St., Bldg. 40, Wallingford CT 06492
  
  
 ---------------------------------------------------------------
 Warning -- This program may not be used in any manner that
 competes with the business of Gaussian, Inc. or will provide
 assistance to any competitor of Gaussian, Inc.  The licensee
 of this program is prohibited from giving any competitor of
 Gaussian, Inc. access to this program.  By using this program,
 the user acknowledges that Gaussian, Inc. is engaged in the
 business of creating and licensing software in the field of
 computational chemistry and represents and warrants to the
 licensee that it is not a competitor of Gaussian, Inc. and that
 it will not use this program in any manner prohibited above.
 ---------------------------------------------------------------
  

 Cite this work as:
 Gaussian 16, Revision C.01,
 M. J. Frisch, G. W. Trucks, H. B. Schlegel, G. E. Scuseria, 
 M. A. Robb, J. R. Cheeseman, G. Scalmani, V. Barone, 
 G. A. Petersson, H. Nakatsuji, X. Li, M. Caricato, A. V. Marenich, 
 J. Bloino, B. G. Janesko, R. Gomperts, B. Mennucci, H. P. Hratchian, 
 J. V. Ortiz, A. F. Izmaylov, J. L. Sonnenberg, D. Williams-Young, 
 F. Ding, F. Lipparini, F. Egidi, J. Goings, B. Peng, A. Petrone, 
 T. Henderson, D. Ranasinghe, V. G. Zakrzewski, J. Gao, N. Rega, 
 G. Zheng, W. Liang, M. Hada, M. Ehara, K. Toyota, R. Fukuda, 
 J. Hasegawa, M. Ishida, T. Nakajima, Y. Honda, O. Kitao, H. Nakai, 
 T. Vreven, K. Throssell, J. A. Montgomery, Jr., J. E. Peralta, 
 F. Ogliaro, M. J. Bearpark, J. J. Heyd, E. N. Brothers, K. N. Kudin, 
 V. N. Staroverov, T. A. Keith, R. Kobayashi, J. Normand, 
 K. Raghavachari, A. P. Rendell, J. C. Burant, S. S. Iyengar, 
 J. Tomasi, M. Cossi, J. M. Millam, M. Klene, C. Adamo, R. Cammi, 
 J. W. Ochterski, R. L. Martin, K. Morokuma, O. Farkas, 
 J. B. Foresman, and D. J. Fox, Gaussian, Inc., Wallingford CT, 2019.
 
 ******************************************
 Gaussian 16:  ES64L-G16RevC.01  3-Jul-2019
                23-Sep-2022 
 ******************************************
 %NProcShared=56
 Will use up to   56 processors via shared memory.
 %mem=16GB
 %chk=SecN5_clust-14.chk
 ----------------------------------------------------------------------
 # B3LYP/6-31G(d,p) empiricaldispersion=GD3BJ int=(grid=ultrafine) opt 
 freq=noraman
 ----------------------------------------------------------------------
 1/18=20,19=15,26=4,38=1/1,3;
 2/9=110,12=2,17=6,18=5,40=1/2;
 3/5=1,6=6,7=101,11=2,25=1,30=1,71=1,74=-5,75=-5,124=41/1,2,3;
 4//1;
 5/5=2,38=5/2;
 6/7=2,8=2,9=2,10=2,28=1/1;
 7//1,2,3,16;
 1/18=20,19=15,26=4/3(2);
 2/9=110/2;
 99//99;
 2/9=110/2;
 3/5=1,6=6,7=101,11=2,25=1,30=1,71=1,74=-5,75=-5,124=41/1,2,3;
 4/5=5,16=3,69=1/1;
 5/5=2,38=5/2;
 7//1,2,3,16;
 1/18=20,19=15,26=4/3(-5);
 2/9=110/2;
 6/7=2,8=2,9=2,10=2,19=2,28=1/1;
 99/9=1/99;
 ---------
 SecN5.xyz
 ---------
 Symbolic Z-matrix:
 Charge =  0 Multiplicity = 1
 C                     1.1954   -3.7867    1.9585 
 N                    -0.0366   -3.0203    1.8033 
 C                    -0.2008   -2.0197    2.8463 
 C                     0.6844   -0.7854    2.5767 
 C                     0.4572    0.0341    1.2653 
 N                     0.6044   -0.7346   -0.0092 
 C                     1.9566   -1.0922   -0.3631 
 C                     2.3097   -1.9106   -1.4758 
 C                     1.3135   -2.304    -2.5414 
 C                     0.4883   -1.1202   -3.0215 
 C                    -0.7297   -0.9271   -2.1549 
 C                    -0.6302   -0.8439   -0.7393 
 C                    -1.8646   -0.8914   -0.0498 
 C                    -3.1024   -0.9151   -0.6844 
 C                    -3.1612   -0.9111   -2.0669 
 C                    -1.9799   -0.9286   -2.7928 
 C                     3.6341   -2.3302   -1.6769 
 C                     4.659    -1.9223   -0.8392 
 C                     4.3695   -1.0684    0.2083 
 C                     3.0555   -0.6672    0.4265 
 H                     1.2336   -4.2891    2.9267 
 H                     2.0819   -3.1584    1.8592 
 H                     1.2548   -4.5523    1.1836 
 H                     0.0629   -2.4659    0.9469 
 H                    -1.2479   -1.7176    2.8695 
 H                     0.0063   -2.447     3.8301 
 H                     0.4965   -0.0968    3.4005 
 H                     1.7312   -1.0436    2.7192 
 H                    -0.4928    0.5627    1.3436 
 H                     1.1322    0.8898    1.2409 
 H                     1.8367   -2.7255   -3.4014 
 H                     0.6884   -3.122    -2.1775 
 H                     1.0692   -0.1969   -3.0643 
 H                     0.1851   -1.302    -4.0539 
 H                    -1.8937   -0.9146    1.024 
 H                    -4.0103   -0.9389   -0.0996 
 H                    -4.1155   -0.9285   -2.5738 
 H                    -2.0424   -0.979    -3.8704 
 H                     3.8844   -2.9637   -2.516 
 H                     5.6745   -2.2466   -1.018 
 H                     5.1584   -0.7185    0.8581 
 H                     2.9351   -0.0046    1.263 
 

 GradGradGradGradGradGradGradGradGradGradGradGradGradGradGradGradGradGrad
 Berny optimization.
 Initialization pass.
                           ----------------------------
                           !    Initial Parameters    !
                           ! (Angstroms and Degrees)  !
 --------------------------                            --------------------------
 ! Name  Definition              Value          Derivative Info.                !
 --------------------------------------------------------------------------------
 ! R1    R(1,2)                  1.4592         estimate D2E/DX2                !
 ! R2    R(1,21)                 1.0915         estimate D2E/DX2                !
 ! R3    R(1,22)                 1.0911         estimate D2E/DX2                !
 ! R4    R(1,23)                 1.0909         estimate D2E/DX2                !
 ! R5    R(2,3)                  1.4547         estimate D2E/DX2                !
 ! R6    R(2,24)                 1.025          estimate D2E/DX2                !
 ! R7    R(3,4)                  1.5426         estimate D2E/DX2                !
 ! R8    R(3,25)                 1.0901         estimate D2E/DX2                !
 ! R9    R(3,26)                 1.0924         estimate D2E/DX2                !
 ! R10   R(4,5)                  1.563          estimate D2E/DX2                !
 ! R11   R(4,27)                 1.09           estimate D2E/DX2                !
 ! R12   R(4,28)                 1.0875         estimate D2E/DX2                !
 ! R13   R(5,6)                  1.4956         estimate D2E/DX2                !
 ! R14   R(5,29)                 1.09           estimate D2E/DX2                !
 ! R15   R(5,30)                 1.0902         estimate D2E/DX2                !
 ! R16   R(6,7)                  1.4428         estimate D2E/DX2                !
 ! R17   R(6,12)                 1.4385         estimate D2E/DX2                !
 ! R18   R(7,8)                  1.4257         estimate D2E/DX2                !
 ! R19   R(7,20)                 1.4183         estimate D2E/DX2                !
 ! R20   R(8,9)                  1.5109         estimate D2E/DX2                !
 ! R21   R(8,17)                 1.4038         estimate D2E/DX2                !
 ! R22   R(9,10)                 1.5208         estimate D2E/DX2                !
 ! R23   R(9,31)                 1.0913         estimate D2E/DX2                !
 ! R24   R(9,32)                 1.0919         estimate D2E/DX2                !
 ! R25   R(10,11)                1.5073         estimate D2E/DX2                !
 ! R26   R(10,33)                1.0917         estimate D2E/DX2                !
 ! R27   R(10,34)                1.0913         estimate D2E/DX2                !
 ! R28   R(11,12)                1.4215         estimate D2E/DX2                !
 ! R29   R(11,16)                1.4035         estimate D2E/DX2                !
 ! R30   R(12,13)                1.4147         estimate D2E/DX2                !
 ! R31   R(13,14)                1.3912         estimate D2E/DX2                !
 ! R32   R(13,35)                1.0744         estimate D2E/DX2                !
 ! R33   R(14,15)                1.3838         estimate D2E/DX2                !
 ! R34   R(14,36)                1.0802         estimate D2E/DX2                !
 ! R35   R(15,16)                1.3866         estimate D2E/DX2                !
 ! R36   R(15,37)                1.0807         estimate D2E/DX2                !
 ! R37   R(16,38)                1.0806         estimate D2E/DX2                !
 ! R38   R(17,18)                1.3851         estimate D2E/DX2                !
 ! R39   R(17,39)                1.0808         estimate D2E/DX2                !
 ! R40   R(18,19)                1.3821         estimate D2E/DX2                !
 ! R41   R(18,40)                1.0809         estimate D2E/DX2                !
 ! R42   R(19,20)                1.3911         estimate D2E/DX2                !
 ! R43   R(19,41)                1.0803         estimate D2E/DX2                !
 ! R44   R(20,42)                1.0739         estimate D2E/DX2                !
 ! A1    A(2,1,21)             111.448          estimate D2E/DX2                !
 ! A2    A(2,1,22)             111.9535         estimate D2E/DX2                !
 ! A3    A(2,1,23)             109.8167         estimate D2E/DX2                !
 ! A4    A(21,1,22)            108.5031         estimate D2E/DX2                !
 ! A5    A(21,1,23)            107.7675         estimate D2E/DX2                !
 ! A6    A(22,1,23)            107.1714         estimate D2E/DX2                !
 ! A7    A(1,2,3)              112.3535         estimate D2E/DX2                !
 ! A8    A(1,2,24)             106.9165         estimate D2E/DX2                !
 ! A9    A(3,2,24)             103.7669         estimate D2E/DX2                !
 ! A10   A(2,3,4)              111.1181         estimate D2E/DX2                !
 ! A11   A(2,3,25)             108.3202         estimate D2E/DX2                !
 ! A12   A(2,3,26)             110.8098         estimate D2E/DX2                !
 ! A13   A(4,3,25)             109.4619         estimate D2E/DX2                !
 ! A14   A(4,3,26)             111.197          estimate D2E/DX2                !
 ! A15   A(25,3,26)            105.7446         estimate D2E/DX2                !
 ! A16   A(3,4,5)              118.864          estimate D2E/DX2                !
 ! A17   A(3,4,27)             105.9301         estimate D2E/DX2                !
 ! A18   A(3,4,28)             109.844          estimate D2E/DX2                !
 ! A19   A(5,4,27)             106.1306         estimate D2E/DX2                !
 ! A20   A(5,4,28)             111.983          estimate D2E/DX2                !
 ! A21   A(27,4,28)            102.5259         estimate D2E/DX2                !
 ! A22   A(4,5,6)              115.5432         estimate D2E/DX2                !
 ! A23   A(4,5,29)             108.7049         estimate D2E/DX2                !
 ! A24   A(4,5,30)             109.8966         estimate D2E/DX2                !
 ! A25   A(6,5,29)             113.3439         estimate D2E/DX2                !
 ! A26   A(6,5,30)             108.8695         estimate D2E/DX2                !
 ! A27   A(29,5,30)             99.242          estimate D2E/DX2                !
 ! A28   A(5,6,7)              115.3824         estimate D2E/DX2                !
 ! A29   A(5,6,12)             112.7735         estimate D2E/DX2                !
 ! A30   A(7,6,12)             131.3808         estimate D2E/DX2                !
 ! A31   A(6,7,8)              124.4613         estimate D2E/DX2                !
 ! A32   A(6,7,20)             121.0189         estimate D2E/DX2                !
 ! A33   A(8,7,20)             114.495          estimate D2E/DX2                !
 ! A34   A(7,8,9)              122.4544         estimate D2E/DX2                !
 ! A35   A(7,8,17)             121.1357         estimate D2E/DX2                !
 ! A36   A(9,8,17)             116.3092         estimate D2E/DX2                !
 ! A37   A(8,9,10)             112.1942         estimate D2E/DX2                !
 ! A38   A(8,9,31)             109.8923         estimate D2E/DX2                !
 ! A39   A(8,9,32)             109.7234         estimate D2E/DX2                !
 ! A40   A(10,9,31)            108.18           estimate D2E/DX2                !
 ! A41   A(10,9,32)            112.1919         estimate D2E/DX2                !
 ! A42   A(31,9,32)            104.3438         estimate D2E/DX2                !
 ! A43   A(9,10,11)            110.8975         estimate D2E/DX2                !
 ! A44   A(9,10,33)            112.4571         estimate D2E/DX2                !
 ! A45   A(9,10,34)            108.6475         estimate D2E/DX2                !
 ! A46   A(11,10,33)           110.1322         estimate D2E/DX2                !
 ! A47   A(11,10,34)           109.9234         estimate D2E/DX2                !
 ! A48   A(33,10,34)           104.5756         estimate D2E/DX2                !
 ! A49   A(10,11,12)           121.5667         estimate D2E/DX2                !
 ! A50   A(10,11,16)           117.2812         estimate D2E/DX2                !
 ! A51   A(12,11,16)           120.9981         estimate D2E/DX2                !
 ! A52   A(6,12,11)            124.747          estimate D2E/DX2                !
 ! A53   A(6,12,13)            120.2689         estimate D2E/DX2                !
 ! A54   A(11,12,13)           114.9803         estimate D2E/DX2                !
 ! A55   A(12,13,14)           123.6824         estimate D2E/DX2                !
 ! A56   A(12,13,35)           120.76           estimate D2E/DX2                !
 ! A57   A(14,13,35)           115.5574         estimate D2E/DX2                !
 ! A58   A(13,14,15)           119.5708         estimate D2E/DX2                !
 ! A59   A(13,14,36)           120.082          estimate D2E/DX2                !
 ! A60   A(15,14,36)           120.3471         estimate D2E/DX2                !
 ! A61   A(14,15,16)           119.1299         estimate D2E/DX2                !
 ! A62   A(14,15,37)           120.4039         estimate D2E/DX2                !
 ! A63   A(16,15,37)           120.4329         estimate D2E/DX2                !
 ! A64   A(11,16,15)           121.3935         estimate D2E/DX2                !
 ! A65   A(11,16,38)           120.3186         estimate D2E/DX2                !
 ! A66   A(15,16,38)           118.2534         estimate D2E/DX2                !
 ! A67   A(8,17,18)            121.5633         estimate D2E/DX2                !
 ! A68   A(8,17,39)            120.327          estimate D2E/DX2                !
 ! A69   A(18,17,39)           118.0864         estimate D2E/DX2                !
 ! A70   A(17,18,19)           119.0336         estimate D2E/DX2                !
 ! A71   A(17,18,40)           120.4485         estimate D2E/DX2                !
 ! A72   A(19,18,40)           120.4986         estimate D2E/DX2                !
 ! A73   A(18,19,20)           119.6643         estimate D2E/DX2                !
 ! A74   A(18,19,41)           120.2005         estimate D2E/DX2                !
 ! A75   A(20,19,41)           120.1343         estimate D2E/DX2                !
 ! A76   A(7,20,19)            123.9243         estimate D2E/DX2                !
 ! A77   A(7,20,42)            122.1176         estimate D2E/DX2                !
 ! A78   A(19,20,42)           113.9554         estimate D2E/DX2                !
 ! D1    D(21,1,2,3)            58.1277         estimate D2E/DX2                !
 ! D2    D(21,1,2,24)          171.3321         estimate D2E/DX2                !
 ! D3    D(22,1,2,3)           -63.6066         estimate D2E/DX2                !
 ! D4    D(22,1,2,24)           49.5978         estimate D2E/DX2                !
 ! D5    D(23,1,2,3)           177.4726         estimate D2E/DX2                !
 ! D6    D(23,1,2,24)          -69.323          estimate D2E/DX2                !
 ! D7    D(1,2,3,4)             77.7758         estimate D2E/DX2                !
 ! D8    D(1,2,3,25)          -161.9511         estimate D2E/DX2                !
 ! D9    D(1,2,3,26)           -46.3803         estimate D2E/DX2                !
 ! D10   D(24,2,3,4)           -37.3545         estimate D2E/DX2                !
 ! D11   D(24,2,3,25)           82.9185         estimate D2E/DX2                !
 ! D12   D(24,2,3,26)         -161.5106         estimate D2E/DX2                !
 ! D13   D(2,3,4,5)             60.8084         estimate D2E/DX2                !
 ! D14   D(2,3,4,27)           179.9677         estimate D2E/DX2                !
 ! D15   D(2,3,4,28)           -69.9855         estimate D2E/DX2                !
 ! D16   D(25,3,4,5)           -58.7861         estimate D2E/DX2                !
 ! D17   D(25,3,4,27)           60.3732         estimate D2E/DX2                !
 ! D18   D(25,3,4,28)          170.42           estimate D2E/DX2                !
 ! D19   D(26,3,4,5)          -175.2555         estimate D2E/DX2                !
 ! D20   D(26,3,4,27)          -56.0962         estimate D2E/DX2                !
 ! D21   D(26,3,4,28)           53.9506         estimate D2E/DX2                !
 ! D22   D(3,4,5,6)            -58.4049         estimate D2E/DX2                !
 ! D23   D(3,4,5,29)            70.3118         estimate D2E/DX2                !
 ! D24   D(3,4,5,30)           177.9416         estimate D2E/DX2                !
 ! D25   D(27,4,5,6)          -177.4607         estimate D2E/DX2                !
 ! D26   D(27,4,5,29)          -48.744          estimate D2E/DX2                !
 ! D27   D(27,4,5,30)           58.8857         estimate D2E/DX2                !
 ! D28   D(28,4,5,6)            71.4256         estimate D2E/DX2                !
 ! D29   D(28,4,5,29)         -159.8577         estimate D2E/DX2                !
 ! D30   D(28,4,5,30)          -52.228          estimate D2E/DX2                !
 ! D31   D(4,5,6,7)            -72.4931         estimate D2E/DX2                !
 ! D32   D(4,5,6,12)           114.4142         estimate D2E/DX2                !
 ! D33   D(29,5,6,7)           161.1101         estimate D2E/DX2                !
 ! D34   D(29,5,6,12)          -11.9827         estimate D2E/DX2                !
 ! D35   D(30,5,6,7)            51.6978         estimate D2E/DX2                !
 ! D36   D(30,5,6,12)         -121.3949         estimate D2E/DX2                !
 ! D37   D(5,6,7,8)            174.8703         estimate D2E/DX2                !
 ! D38   D(5,6,7,20)            -3.2177         estimate D2E/DX2                !
 ! D39   D(12,6,7,8)           -13.6283         estimate D2E/DX2                !
 ! D40   D(12,6,7,20)          168.2838         estimate D2E/DX2                !
 ! D41   D(5,6,12,11)          149.2587         estimate D2E/DX2                !
 ! D42   D(5,6,12,13)          -31.4916         estimate D2E/DX2                !
 ! D43   D(7,6,12,11)          -22.4152         estimate D2E/DX2                !
 ! D44   D(7,6,12,13)          156.8346         estimate D2E/DX2                !
 ! D45   D(6,7,8,9)             10.5016         estimate D2E/DX2                !
 ! D46   D(6,7,8,17)          -173.283          estimate D2E/DX2                !
 ! D47   D(20,7,8,9)          -171.299          estimate D2E/DX2                !
 ! D48   D(20,7,8,17)            4.9164         estimate D2E/DX2                !
 ! D49   D(6,7,20,19)          174.334          estimate D2E/DX2                !
 ! D50   D(6,7,20,42)           -5.0286         estimate D2E/DX2                !
 ! D51   D(8,7,20,19)           -3.9337         estimate D2E/DX2                !
 ! D52   D(8,7,20,42)          176.7037         estimate D2E/DX2                !
 ! D53   D(7,8,9,10)            46.5263         estimate D2E/DX2                !
 ! D54   D(7,8,9,31)           166.9223         estimate D2E/DX2                !
 ! D55   D(7,8,9,32)           -78.8977         estimate D2E/DX2                !
 ! D56   D(17,8,9,10)         -129.8602         estimate D2E/DX2                !
 ! D57   D(17,8,9,31)           -9.4642         estimate D2E/DX2                !
 ! D58   D(17,8,9,32)          104.7158         estimate D2E/DX2                !
 ! D59   D(7,8,17,18)           -2.7818         estimate D2E/DX2                !
 ! D60   D(7,8,17,39)          179.0053         estimate D2E/DX2                !
 ! D61   D(9,8,17,18)          173.656          estimate D2E/DX2                !
 ! D62   D(9,8,17,39)           -4.557          estimate D2E/DX2                !
 ! D63   D(8,9,10,11)          -87.2974         estimate D2E/DX2                !
 ! D64   D(8,9,10,33)           36.5147         estimate D2E/DX2                !
 ! D65   D(8,9,10,34)          151.7844         estimate D2E/DX2                !
 ! D66   D(31,9,10,11)         151.319          estimate D2E/DX2                !
 ! D67   D(31,9,10,33)         -84.8689         estimate D2E/DX2                !
 ! D68   D(31,9,10,34)          30.4008         estimate D2E/DX2                !
 ! D69   D(32,9,10,11)          36.7632         estimate D2E/DX2                !
 ! D70   D(32,9,10,33)         160.5753         estimate D2E/DX2                !
 ! D71   D(32,9,10,34)         -84.155          estimate D2E/DX2                !
 ! D72   D(9,10,11,12)          51.6829         estimate D2E/DX2                !
 ! D73   D(9,10,11,16)        -123.8487         estimate D2E/DX2                !
 ! D74   D(33,10,11,12)        -73.4492         estimate D2E/DX2                !
 ! D75   D(33,10,11,16)        111.0192         estimate D2E/DX2                !
 ! D76   D(34,10,11,12)        171.8443         estimate D2E/DX2                !
 ! D77   D(34,10,11,16)         -3.6872         estimate D2E/DX2                !
 ! D78   D(10,11,12,6)           9.5592         estimate D2E/DX2                !
 ! D79   D(10,11,12,13)       -169.726          estimate D2E/DX2                !
 ! D80   D(16,11,12,6)        -175.0743         estimate D2E/DX2                !
 ! D81   D(16,11,12,13)          5.6406         estimate D2E/DX2                !
 ! D82   D(10,11,16,15)        172.5647         estimate D2E/DX2                !
 ! D83   D(10,11,16,38)         -5.2585         estimate D2E/DX2                !
 ! D84   D(12,11,16,15)         -2.9938         estimate D2E/DX2                !
 ! D85   D(12,11,16,38)        179.1831         estimate D2E/DX2                !
 ! D86   D(6,12,13,14)         175.9676         estimate D2E/DX2                !
 ! D87   D(6,12,13,35)          -4.2181         estimate D2E/DX2                !
 ! D88   D(11,12,13,14)         -4.7125         estimate D2E/DX2                !
 ! D89   D(11,12,13,35)        175.1018         estimate D2E/DX2                !
 ! D90   D(12,13,14,15)          0.9174         estimate D2E/DX2                !
 ! D91   D(12,13,14,36)       -179.2319         estimate D2E/DX2                !
 ! D92   D(35,13,14,15)       -178.9057         estimate D2E/DX2                !
 ! D93   D(35,13,14,36)          0.945          estimate D2E/DX2                !
 ! D94   D(13,14,15,16)          2.1365         estimate D2E/DX2                !
 ! D95   D(13,14,15,37)       -179.9505         estimate D2E/DX2                !
 ! D96   D(36,14,15,16)       -177.7138         estimate D2E/DX2                !
 ! D97   D(36,14,15,37)          0.1991         estimate D2E/DX2                !
 ! D98   D(14,15,16,11)         -1.1057         estimate D2E/DX2                !
 ! D99   D(14,15,16,38)        176.761          estimate D2E/DX2                !
 ! D100  D(37,15,16,11)       -179.0181         estimate D2E/DX2                !
 ! D101  D(37,15,16,38)         -1.1514         estimate D2E/DX2                !
 ! D102  D(8,17,18,19)          -0.8295         estimate D2E/DX2                !
 ! D103  D(8,17,18,40)        -179.2393         estimate D2E/DX2                !
 ! D104  D(39,17,18,19)        177.4221         estimate D2E/DX2                !
 ! D105  D(39,17,18,40)         -0.9877         estimate D2E/DX2                !
 ! D106  D(17,18,19,20)          1.903          estimate D2E/DX2                !
 ! D107  D(17,18,19,41)       -178.4482         estimate D2E/DX2                !
 ! D108  D(40,18,19,20)       -179.688          estimate D2E/DX2                !
 ! D109  D(40,18,19,41)         -0.0392         estimate D2E/DX2                !
 ! D110  D(18,19,20,7)           0.6108         estimate D2E/DX2                !
 ! D111  D(18,19,20,42)       -179.9799         estimate D2E/DX2                !
 ! D112  D(41,19,20,7)        -179.0382         estimate D2E/DX2                !
 ! D113  D(41,19,20,42)          0.3711         estimate D2E/DX2                !
 --------------------------------------------------------------------------------
 Trust Radius=3.00D-01 FncErr=1.00D-07 GrdErr=1.00D-06 EigMax=2.50D+02 EigMin=1.00D-04
 Number of steps in this run=    245 maximum allowed number of steps=    252.
 GradGradGradGradGradGradGradGradGradGradGradGradGradGradGradGradGradGrad

                          Input orientation:                          
 ---------------------------------------------------------------------
 Center     Atomic      Atomic             Coordinates (Angstroms)
 Number     Number       Type             X           Y           Z
 ---------------------------------------------------------------------
      1          6           0        1.195400   -3.786700    1.958500
      2          7           0       -0.036600   -3.020300    1.803300
      3          6           0       -0.200800   -2.019700    2.846300
      4          6           0        0.684400   -0.785400    2.576700
      5          6           0        0.457200    0.034100    1.265300
      6          7           0        0.604400   -0.734600   -0.009200
      7          6           0        1.956600   -1.092200   -0.363100
      8          6           0        2.309700   -1.910600   -1.475800
      9          6           0        1.313500   -2.304000   -2.541400
     10          6           0        0.488300   -1.120200   -3.021500
     11          6           0       -0.729700   -0.927100   -2.154900
     12          6           0       -0.630200   -0.843900   -0.739300
     13          6           0       -1.864600   -0.891400   -0.049800
     14          6           0       -3.102400   -0.915100   -0.684400
     15          6           0       -3.161200   -0.911100   -2.066900
     16          6           0       -1.979900   -0.928600   -2.792800
     17          6           0        3.634100   -2.330200   -1.676900
     18          6           0        4.659000   -1.922300   -0.839200
     19          6           0        4.369500   -1.068400    0.208300
     20          6           0        3.055500   -0.667200    0.426500
     21          1           0        1.233600   -4.289100    2.926700
     22          1           0        2.081900   -3.158400    1.859200
     23          1           0        1.254800   -4.552300    1.183600
     24          1           0        0.062900   -2.465900    0.946900
     25          1           0       -1.247900   -1.717600    2.869500
     26          1           0        0.006300   -2.447000    3.830100
     27          1           0        0.496500   -0.096800    3.400500
     28          1           0        1.731200   -1.043600    2.719200
     29          1           0       -0.492800    0.562700    1.343600
     30          1           0        1.132200    0.889800    1.240900
     31          1           0        1.836700   -2.725500   -3.401400
     32          1           0        0.688400   -3.122000   -2.177500
     33          1           0        1.069200   -0.196900   -3.064300
     34          1           0        0.185100   -1.302000   -4.053900
     35          1           0       -1.893700   -0.914600    1.024000
     36          1           0       -4.010300   -0.938900   -0.099600
     37          1           0       -4.115500   -0.928500   -2.573800
     38          1           0       -2.042400   -0.979000   -3.870400
     39          1           0        3.884400   -2.963700   -2.516000
     40          1           0        5.674500   -2.246600   -1.018000
     41          1           0        5.158400   -0.718500    0.858100
     42          1           0        2.935100   -0.004600    1.263000
 ---------------------------------------------------------------------
                    Distance matrix (angstroms):
                    1          2          3          4          5
     1  C    0.000000
     2  N    1.459205   0.000000
     3  C    2.420713   1.454652   0.000000
     4  C    3.106621   2.472401   1.542647   0.000000
     5  C    3.952718   3.140484   2.674064   1.563000   0.000000
     6  N    3.679190   2.986714   3.233220   2.587636   1.495633
     7  C    3.637249   3.519049   3.976793   3.217925   2.483634
     8  C    4.068886   4.181992   4.999506   4.508928   3.837609
     9  C    4.739351   4.605678   5.603681   5.375580   4.548728
    10  C    5.693032   5.211967   5.976206   5.611630   4.439598
    11  C    5.366878   4.530918   5.146408   4.940425   3.745718
    12  C    4.389876   3.399102   3.797817   3.567555   2.443715
    13  C    4.666865   3.362704   3.525434   3.661576   2.824322
    14  C    5.805350   4.474332   4.701624   4.999145   4.168101
    15  C    6.591880   5.402805   5.842302   6.030544   5.008970
    16  C    6.389532   5.410708   6.012915   5.995876   4.830572
    17  C    4.613543   5.105102   5.938199   5.401875   4.933472
    18  C    4.826970   5.498824   6.100004   5.362682   5.090338
    19  C    4.530703   5.076185   5.362057   4.389689   4.199863
    20  C    3.941862   4.122346   4.276468   3.203037   2.818966
    21  H    1.091456   2.117850   2.685916   3.563711   4.696073
    22  H    1.091102   2.123732   2.735274   2.845864   3.631036
    23  H    1.090936   2.097324   3.361161   4.056553   4.655954
    24  H    2.012561   1.025027   1.968845   2.422105   2.550853
    25  H    3.328785   2.073899   1.090056   2.165297   2.923915
    26  H    2.590684   2.106759   1.092400   2.189006   3.596855
    27  H    4.022833   3.373736   2.119177   1.090010   2.139570
    28  H    2.896609   2.805590   2.168306   1.087549   2.213219
    29  H    4.705890   3.641062   3.002026   2.173410   1.089977
    30  H    4.731659   4.119620   3.580417   2.188877   1.090157
    31  H    5.501449   5.539410   6.609335   6.389794   5.594328
    32  H    4.219641   4.047559   5.219608   5.297370   4.676248
    33  H    6.175039   5.734798   6.314324   5.684653   4.378737
    34  H    6.583570   6.108068   6.948149   6.669410   5.491183
    35  H    4.320276   2.913778   2.721752   3.012336   2.546564
    36  H    6.280530   4.872735   4.935458   5.406140   4.771607
    37  H    7.544316   6.338143   6.774443   7.041816   6.047716
    38  H    7.234819   6.354605   7.041918   7.002715   5.800844
    39  H    5.284808   5.833849   6.806927   6.396920   5.918677
    40  H    5.594086   6.416776   7.035869   6.321240   6.134759
    41  H    5.131286   5.760183   5.862345   4.793197   4.778441
    42  H    4.220729   4.268181   4.049856   2.720498   2.478203
                    6          7          8          9         10
     6  N    0.000000
     7  C    1.442764   0.000000
     8  C    2.538098   1.425679   0.000000
     9  C    3.062332   2.574301   1.510855   0.000000
    10  C    3.039098   3.037068   2.516231   1.520800   0.000000
    11  C    2.533951   3.233267   3.265946   2.493973   1.507252
    12  C    1.438482   2.625779   3.212988   3.026124   2.556525
    13  C    2.474307   3.839277   4.527364   4.278297   3.797300
    14  C    3.772114   5.072285   5.559511   4.987751   4.289199
    15  C    4.294767   5.397000   5.592776   4.710442   3.778073
    16  C    3.803245   4.628849   4.593417   3.577906   2.486167
    17  C    3.808706   2.464289   1.403759   2.476536   3.628789
    18  C    4.305730   2.866828   2.434052   3.773003   4.774991
    19  C    3.786120   2.479748   2.790747   4.292632   5.049555
    20  C    2.490435   1.418335   2.391863   3.810788   4.322549
    21  H    4.652942   4.643887   5.118326   5.817828   6.780744
    22  H    3.398342   3.037022   3.568070   4.548155   5.524043
    23  H    4.052237   3.854490   3.894073   4.351313   5.481761
    24  H    2.050548   2.681278   3.350514   3.709238   4.211897
    25  H    3.561491   4.594524   5.619199   6.015187   6.170507
    26  H    4.246206   4.818929   5.809127   6.505785   6.995509
    27  H    3.470517   4.157812   5.509616   6.391040   6.503038
    28  H    2.968051   3.090913   4.322543   5.425587   5.874207
    29  H    2.171843   3.413368   4.681905   5.154989   4.780043
    30  H    2.116601   2.679697   4.075439   4.953688   4.756339
    31  H    4.121804   3.451567   2.143765   1.091330   2.130609
    32  H    3.226183   3.003409   2.142075   1.091924   2.181646
    33  H    3.136686   2.980859   2.645551   2.184714   1.091677
    34  H    4.105771   4.099297   3.395721   2.136574   1.091252
    35  H    2.709318   4.096388   4.990951   4.992859   4.699177
    36  H    4.620105   5.974682   6.540682   6.014045   5.367287
    37  H    5.375149   6.464085   6.591913   5.600633   4.629488
    38  H    4.687659   5.320335   5.053985   3.844988   2.673015
    39  H    4.691624   3.442950   2.161184   2.654313   3.897117
    40  H    5.386069   3.947697   3.412383   4.619780   5.672694
    41  H    4.635880   3.447101   3.870825   5.371561   6.084611
    42  H    2.753826   2.187359   3.394847   4.731838   5.058491
                   11         12         13         14         15
    11  C    0.000000
    12  C    1.421529   0.000000
    13  C    2.391802   1.414712   0.000000
    14  C    2.791455   2.473834   1.391196   0.000000
    15  C    2.433145   2.858846   2.397968   1.383756   0.000000
    16  C    1.403538   2.458806   2.745674   2.388627   1.386617
    17  C    4.608679   4.612205   5.912132   6.954710   6.952845
    18  C    5.635564   5.398941   6.651561   7.828010   7.980307
    19  C    5.621968   5.093657   6.241951   7.526600   7.868464
    20  C    4.588999   3.869715   4.948183   6.262211   6.702529
    21  H    6.401582   5.364952   5.477478   6.574558   7.460643
    22  H    5.384867   4.411870   4.935426   6.195100   6.924934
    23  H    5.312805   4.582903   4.965292   5.975269   6.582184
    24  H    3.552082   2.440193   2.680992   3.883973   4.679232
    25  H    5.112535   3.764086   3.096004   4.088200   5.355297
    26  H    6.218683   4.884105   4.579714   5.691348   6.867798
    27  H    5.749386   4.354946   4.255673   5.505280   6.628297
    28  H    5.461360   4.192531   4.540958   5.913095   6.845428
    29  H    3.809872   2.517116   2.436761   3.620316   4.574271
    30  H    4.277763   3.167485   3.717444   4.989617   5.711223
    31  H    3.372597   4.088128   5.319471   5.920671   5.481965
    32  H    2.613256   2.999477   4.002561   4.633564   4.440690
    33  H    2.143885   2.951643   4.263417   4.856128   4.404676
    34  H    2.140937   3.444001   4.516933   4.723439   3.911355
    35  H    3.385330   2.170405   1.074445   2.092746   3.340693
    36  H    3.871270   3.441412   2.146803   1.080204   2.142898
    37  H    3.411616   3.939526   3.382086   2.143918   1.080712
    38  H    2.160744   3.437492   3.825738   3.358315   2.123426
    39  H    5.056486   5.294509   6.589960   7.507789   7.352233
    40  H    6.636821   6.464865   7.720881   8.883589   8.997408
    41  H    6.617507   6.006272   7.083552   8.405877   8.820911
    42  H    5.095469   4.174326   5.054402   6.408805   7.005344
                   16         17         18         19         20
    16  C    0.000000
    17  C    5.892937   0.000000
    18  C    6.991351   1.385115   0.000000
    19  C    7.024317   2.384729   1.382104   0.000000
    20  C    5.982263   2.743107   2.397600   1.391103   0.000000
    21  H    7.371039   5.549128   5.614010   5.253235   4.763243
    22  H    6.565922   3.949588   3.930744   3.510938   3.034239
    23  H    6.277439   4.333735   4.753651   4.773900   4.348531
    24  H    4.530086   4.433532   4.960825   4.587520   3.530126
    25  H    5.763678   6.699176   6.977666   6.249690   5.058739
    26  H    7.079077   6.595576   6.612510   5.835708   4.904060
    27  H    6.721712   6.372802   6.215618   5.112169   3.964658
    28  H    6.645873   4.960047   4.691091   3.642233   2.674308
    29  H    4.641686   5.875678   6.122163   5.252747   3.865768
    30  H    5.409481   5.014126   4.967196   3.921852   2.605106
    31  H    4.262121   2.522064   3.895559   4.710731   4.513855
    32  H    3.508479   3.091067   4.358439   4.843533   4.290690
    33  H    3.147397   3.613109   4.562317   4.728785   4.043792
    34  H    2.533185   4.313111   5.543902   5.977468   5.358745
    35  H    3.817799   6.313110   6.886570   6.317966   4.991272
    36  H    3.372826   7.928458   8.756189   8.386455   7.090566
    37  H    2.146800   7.926253   8.999351   8.930559   7.777745
    38  H    1.080587   6.233766   7.415305   7.599753   6.674515
    39  H    6.213555   1.080769   2.120419   3.353997   3.823518
    40  H    7.967238   2.145780   1.080916   2.143593   3.382343
    41  H    8.020507   3.368574   2.139944   1.080293   2.147347
    42  H    6.438984   3.813139   3.326958   2.074022   1.073903
                   21         22         23         24         25
    21  H    0.000000
    22  H    1.771342   0.000000
    23  H    1.762986   1.755986   0.000000
    24  H    2.934997   2.321252   2.414481   0.000000
    25  H    3.574035   3.766189   4.140204   2.444287   0.000000
    26  H    2.390759   2.949348   3.604858   2.883817   1.740056
    27  H    4.282894   3.776572   5.033999   3.438139   2.439649
    28  H    3.289975   2.309755   3.859534   2.819080   3.058088
    29  H    5.387636   4.554285   5.407673   3.104608   2.845754
    30  H    5.447312   4.203825   5.443782   3.534199   3.887898
    31  H    6.546253   5.284074   4.969711   4.703347   7.060794
    32  H    5.264240   4.270611   3.696425   3.253243   5.585142
    33  H    7.257080   5.834115   6.086757   4.717068   6.549157
    34  H    7.664913   6.481421   6.256206   5.135912   7.082350
    35  H    4.978707   4.640861   4.813667   2.498151   2.113702
    36  H    6.919597   6.773328   6.513412   4.474131   4.129501
    37  H    8.376276   7.939251   7.489333   5.676086   6.202848
    38  H    8.239509   7.388366   7.013053   5.463473   6.826640
    39  H    6.197290   4.735957   4.808897   5.181056   7.543002
    40  H    6.281246   4.692167   5.449499   5.949704   7.956891
    41  H    5.694940   4.052180   5.481064   5.387524   6.788565
    42  H    4.901014   3.321123   4.848844   3.795715   4.797155
                   26         27         28         29         30
    26  H    0.000000
    27  H    2.438912   0.000000
    28  H    2.485741   1.698554   0.000000
    29  H    3.935744   2.375814   3.068982   0.000000
    30  H    4.371023   2.457919   2.506433   1.660773   0.000000
    31  H    7.464752   7.414313   6.348359   6.225259   5.926016
    32  H    6.083761   6.348444   5.420779   5.231672   5.289325
    33  H    7.329765   6.490889   5.882518   4.737765   4.440679
    34  H    7.968717   7.557616   6.952128   5.750623   5.808261
    35  H    3.719200   3.468372   4.003779   2.060845   3.529727
    36  H    5.818074   5.768109   6.396985   4.087840   5.620177
    37  H    7.765630   7.593058   7.887522   5.540186   6.737693
    38  H    8.102462   7.751792   7.593883   5.653662   6.300467
    39  H    7.455174   7.396077   5.977489   6.818496   6.044697
    40  H    7.461416   7.138380   5.564484   7.176692   5.964237
    41  H    6.193919   5.346365   3.913449   5.814916   4.352408
    42  H    4.597085   3.244099   2.156250   3.475460   2.012682
                   31         32         33         34         35
    31  H    0.000000
    32  H    1.724452   0.000000
    33  H    2.663928   3.080200   0.000000
    34  H    2.275937   2.662065   1.726901   0.000000
    35  H    6.064603   4.667918   5.099810   5.500596   0.000000
    36  H    6.948470   5.582238   5.928012   5.776652   2.396469
    37  H    6.272385   5.295843   5.258987   4.563481   4.228564
    38  H    4.279911   3.862076   3.308101   2.258264   4.897082
    39  H    2.243601   3.217772   3.985118   4.337188   7.079326
    40  H    4.542978   5.193453   5.440349   6.343695   7.951204
    41  H    5.762385   5.913762   5.690241   7.014409   7.056776
    42  H    5.510572   5.157798   4.716364   6.124963   4.919607
                   36         37         38         39         40
    36  H    0.000000
    37  H    2.476457   0.000000
    38  H    4.253607   2.445703   0.000000
    39  H    8.500888   8.254925   6.395341   0.000000
    40  H    9.815747  10.000100   8.324274   2.441863   0.000000
    41  H    9.221216   9.890766   8.618474   4.248358   2.474106
    42  H    7.139200   8.079950   7.216423   4.892677   4.211156
                   41         42
    41  H    0.000000
    42  H    2.369949   0.000000
 Stoichiometry    C18H22N2
 Framework group  C1[X(C18H22N2)]
 Deg. of freedom   120
 Full point group                 C1      NOp   1
 Largest Abelian subgroup         C1      NOp   1
 Largest concise Abelian subgroup C1      NOp   1
                         Standard orientation:                         
 ---------------------------------------------------------------------
 Center     Atomic      Atomic             Coordinates (Angstroms)
 Number     Number       Type             X           Y           Z
 ---------------------------------------------------------------------
      1          6           0        1.433551    2.119667    2.053277
      2          7           0        0.106934    2.264234    1.462965
      3          6           0        0.078370    3.260758    0.403656
      4          6           0        0.676242    2.700018   -0.903202
      5          6           0        0.000129    1.458893   -1.570624
      6          7           0       -0.081111    0.232618   -0.718236
      7          6           0        1.168999   -0.454625   -0.502621
      8          6           0        1.333624   -1.578397    0.359118
      9          6           0        0.161311   -2.314121    0.964984
     10          6           0       -0.921424   -2.612928   -0.060312
     11          6           0       -1.886242   -1.460607   -0.174727
     12          6           0       -1.434381   -0.130540   -0.392648
     13          6           0       -2.426485    0.868109   -0.251795
     14          6           0       -3.770208    0.593306   -0.018729
     15          6           0       -4.187095   -0.720340    0.105048
     16          6           0       -3.245848   -1.736360    0.038231
     17          6           0        2.605893   -2.108071    0.626172
     18          6           0        3.744154   -1.599963    0.022242
     19          6           0        3.618174   -0.557852   -0.876839
     20          6           0        2.362928   -0.013611   -1.128492
     21          1           0        1.794321    3.065757    2.460749
     22          1           0        2.163951    1.753021    1.330374
     23          1           0        1.398196    1.397320    2.870043
     24          1           0       -0.100699    1.385832    0.977188
     25          1           0       -0.958639    3.550461    0.233644
     26          1           0        0.593691    4.172444    0.714478
     27          1           0        0.612696    3.507977   -1.632097
     28          1           0        1.749838    2.567497   -0.790972
     29          1           0       -0.962306    1.763889   -1.981409
     30          1           0        0.515496    1.209849   -2.498426
     31          1           0        0.497245   -3.260942    1.391221
     32          1           0       -0.223373   -1.754018    1.819736
     33          1           0       -0.510390   -2.857683   -1.041589
     34          1           0       -1.453794   -3.514545    0.247096
     35          1           0       -2.171191    1.909634   -0.318750
     36          1           0       -4.481261    1.401932    0.067097
     37          1           0       -5.227780   -0.949214    0.285409
     38          1           0       -3.579031   -2.753079    0.189685
     39          1           0        2.717127   -2.950379    1.294157
     40          1           0        4.713640   -2.029625    0.231687
     41          1           0        4.490480   -0.163762   -1.377646
     42          1           0        2.370865    0.789652   -1.841214
 ---------------------------------------------------------------------
 Rotational constants (GHZ):           0.4725753           0.3239429           0.2312800
 Standard basis: 6-31G(d,p) (6D, 7F)
 There are   410 symmetry adapted cartesian basis functions of A   symmetry.
 There are   410 symmetry adapted basis functions of A   symmetry.
   410 basis functions,   714 primitive gaussians,   410 cartesian basis functions
    72 alpha electrons       72 beta electrons
       nuclear repulsion energy      1587.3980652418 Hartrees.
 NAtoms=   42 NActive=   42 NUniq=   42 SFac= 1.00D+00 NAtFMM=   60 NAOKFM=F Big=F
 Integral buffers will be    131072 words long.
 Raffenetti 2 integral format.
 Two-electron integral symmetry is turned on.
 Nuclear repulsion after empirical dispersion term =     1587.3003715121 Hartrees.
 One-electron integrals computed using PRISM.
 NBasis=   410 RedAO= T EigKep=  3.60D-04  NBF=   410
 NBsUse=   410 1.00D-06 EigRej= -1.00D+00 NBFU=   410
 ExpMin= 1.61D-01 ExpMax= 4.17D+03 ExpMxC= 6.27D+02 IAcc=3 IRadAn=         5 AccDes= 0.00D+00
 Harris functional with IExCor=  402 and IRadAn=       5 diagonalized for initial guess.
 HarFok:  IExCor=  402 AccDes= 0.00D+00 IRadAn=         5 IDoV= 1 UseB2=F ITyADJ=14
 ICtDFT=  3500011 ScaDFX=  1.000000  1.000000  1.000000  1.000000
 FoFCou: FMM=F IPFlag=           0 FMFlag=      100000 FMFlg1=           0
         NFxFlg=           0 DoJE=T BraDBF=F KetDBF=T FulRan=T
         wScrn=  0.000000 ICntrl=       500 IOpCl=  0 I1Cent=   200000004 NGrid=           0
         NMat0=    1 NMatS0=      1 NMatT0=    0 NMatD0=    1 NMtDS0=    0 NMtDT0=    0
 Petite list used in FoFCou.
 Requested convergence on RMS density matrix=1.00D-08 within 128 cycles.
 Requested convergence on MAX density matrix=1.00D-06.
 Requested convergence on             energy=1.00D-06.
 No special actions if energy rises.
 Integral accuracy reduced to 1.0D-05 until final iterations.
 Initial convergence to 1.0D-05 achieved.  Increase integral accuracy.
 SCF Done:  E(RB3LYP) =  -808.754883542     A.U. after   14 cycles
            NFock= 14  Conv=0.59D-08     -V/T= 2.0097

 **********************************************************************

            Population analysis using the SCF Density.

 **********************************************************************

 Orbital symmetries:
       Occupied  (A) (A) (A) (A) (A) (A) (A) (A) (A) (A) (A) (A)
                 (A) (A) (A) (A) (A) (A) (A) (A) (A) (A) (A) (A)
                 (A) (A) (A) (A) (A) (A) (A) (A) (A) (A) (A) (A)
                 (A) (A) (A) (A) (A) (A) (A) (A) (A) (A) (A) (A)
                 (A) (A) (A) (A) (A) (A) (A) (A) (A) (A) (A) (A)
                 (A) (A) (A) (A) (A) (A) (A) (A) (A) (A) (A) (A)
       Virtual   (A) (A) (A) (A) (A) (A) (A) (A) (A) (A) (A) (A)
                 (A) (A) (A) (A) (A) (A) (A) (A) (A) (A) (A) (A)
                 (A) (A) (A) (A) (A) (A) (A) (A) (A) (A) (A) (A)
                 (A) (A) (A) (A) (A) (A) (A) (A) (A) (A) (A) (A)
                 (A) (A) (A) (A) (A) (A) (A) (A) (A) (A) (A) (A)
                 (A) (A) (A) (A) (A) (A) (A) (A) (A) (A) (A) (A)
                 (A) (A) (A) (A) (A) (A) (A) (A) (A) (A) (A) (A)
                 (A) (A) (A) (A) (A) (A) (A) (A) (A) (A) (A) (A)
                 (A) (A) (A) (A) (A) (A) (A) (A) (A) (A) (A) (A)
                 (A) (A) (A) (A) (A) (A) (A) (A) (A) (A) (A) (A)
                 (A) (A) (A) (A) (A) (A) (A) (A) (A) (A) (A) (A)
                 (A) (A) (A) (A) (A) (A) (A) (A) (A) (A) (A) (A)
                 (A) (A) (A) (A) (A) (A) (A) (A) (A) (A) (A) (A)
                 (A) (A) (A) (A) (A) (A) (A) (A) (A) (A) (A) (A)
                 (A) (A) (A) (A) (A) (A) (A) (A) (A) (A) (A) (A)
                 (A) (A) (A) (A) (A) (A) (A) (A) (A) (A) (A) (A)
                 (A) (A) (A) (A) (A) (A) (A) (A) (A) (A) (A) (A)
                 (A) (A) (A) (A) (A) (A) (A) (A) (A) (A) (A) (A)
                 (A) (A) (A) (A) (A) (A) (A) (A) (A) (A) (A) (A)
                 (A) (A) (A) (A) (A) (A) (A) (A) (A) (A) (A) (A)
                 (A) (A) (A) (A) (A) (A) (A) (A) (A) (A) (A) (A)
                 (A) (A) (A) (A) (A) (A) (A) (A) (A) (A) (A) (A)
                 (A) (A) (A) (A) (A) (A) (A) (A) (A) (A) (A) (A)
                 (A) (A) (A) (A) (A) (A) (A) (A) (A) (A) (A) (A)
                 (A) (A) (A) (A) (A) (A) (A) (A) (A) (A) (A) (A)
                 (A) (A) (A) (A) (A) (A) (A) (A) (A) (A) (A) (A)
                 (A) (A) (A) (A) (A) (A) (A) (A) (A) (A) (A) (A)
                 (A) (A) (A) (A) (A) (A) (A) (A) (A) (A) (A) (A)
                 (A) (A)
 The electronic state is 1-A.
 Alpha  occ. eigenvalues --  -14.37675 -14.29264 -10.24028 -10.23560 -10.22649
 Alpha  occ. eigenvalues --  -10.19803 -10.19452 -10.19278 -10.18536 -10.18490
 Alpha  occ. eigenvalues --  -10.18453 -10.18386 -10.18358 -10.18304 -10.18236
 Alpha  occ. eigenvalues --  -10.18225 -10.18219 -10.18184 -10.17702 -10.17645
 Alpha  occ. eigenvalues --   -0.95141  -0.88731  -0.85338  -0.84494  -0.79951
 Alpha  occ. eigenvalues --   -0.76510  -0.75584  -0.75204  -0.72377  -0.70325
 Alpha  occ. eigenvalues --   -0.67959  -0.64979  -0.64013  -0.60232  -0.59932
 Alpha  occ. eigenvalues --   -0.58776  -0.57927  -0.56501  -0.52052  -0.50953
 Alpha  occ. eigenvalues --   -0.48762  -0.47702  -0.47343  -0.46299  -0.45743
 Alpha  occ. eigenvalues --   -0.43977  -0.43951  -0.42814  -0.42633  -0.42188
 Alpha  occ. eigenvalues --   -0.41067  -0.40441  -0.39897  -0.39737  -0.38594
 Alpha  occ. eigenvalues --   -0.37442  -0.37100  -0.36404  -0.35873  -0.35129
 Alpha  occ. eigenvalues --   -0.34602  -0.34294  -0.33885  -0.32883  -0.32483
 Alpha  occ. eigenvalues --   -0.31807  -0.29993  -0.25046  -0.24018  -0.23756
 Alpha  occ. eigenvalues --   -0.20400  -0.18518
 Alpha virt. eigenvalues --   -0.00737   0.00209   0.00529   0.02345   0.08277
 Alpha virt. eigenvalues --    0.09816   0.09819   0.10164   0.11400   0.12584
 Alpha virt. eigenvalues --    0.13469   0.13909   0.14131   0.14754   0.15017
 Alpha virt. eigenvalues --    0.15446   0.16219   0.16593   0.16870   0.17318
 Alpha virt. eigenvalues --    0.18160   0.18730   0.18932   0.19557   0.20143
 Alpha virt. eigenvalues --    0.20201   0.20847   0.21155   0.22858   0.23782
 Alpha virt. eigenvalues --    0.24477   0.25546   0.25785   0.26649   0.27224
 Alpha virt. eigenvalues --    0.28471   0.28617   0.29457   0.32565   0.33216
 Alpha virt. eigenvalues --    0.33269   0.34737   0.36302   0.36844   0.37075
 Alpha virt. eigenvalues --    0.39515   0.45330   0.49065   0.50118   0.50961
 Alpha virt. eigenvalues --    0.51347   0.52110   0.52710   0.53710   0.54200
 Alpha virt. eigenvalues --    0.54554   0.54882   0.56341   0.56668   0.57156
 Alpha virt. eigenvalues --    0.57541   0.58281   0.59045   0.59656   0.60352
 Alpha virt. eigenvalues --    0.60592   0.60954   0.61052   0.61607   0.62344
 Alpha virt. eigenvalues --    0.62827   0.63438   0.63731   0.64677   0.65187
 Alpha virt. eigenvalues --    0.65253   0.66550   0.67174   0.68101   0.69449
 Alpha virt. eigenvalues --    0.71004   0.71316   0.72892   0.73706   0.74435
 Alpha virt. eigenvalues --    0.76517   0.77242   0.78168   0.79289   0.79564
 Alpha virt. eigenvalues --    0.80774   0.81559   0.82040   0.82329   0.83111
 Alpha virt. eigenvalues --    0.83228   0.83827   0.84354   0.85404   0.85773
 Alpha virt. eigenvalues --    0.86596   0.87871   0.88815   0.89239   0.90007
 Alpha virt. eigenvalues --    0.90877   0.92092   0.92869   0.93119   0.94202
 Alpha virt. eigenvalues --    0.94607   0.95359   0.95809   0.96115   0.96970
 Alpha virt. eigenvalues --    0.97583   0.98747   0.99448   1.01138   1.03351
 Alpha virt. eigenvalues --    1.04471   1.05457   1.06513   1.07775   1.09307
 Alpha virt. eigenvalues --    1.09990   1.11311   1.12398   1.14860   1.15663
 Alpha virt. eigenvalues --    1.16353   1.18180   1.19564   1.20200   1.21462
 Alpha virt. eigenvalues --    1.23232   1.24960   1.26263   1.27797   1.28730
 Alpha virt. eigenvalues --    1.29844   1.32857   1.33444   1.34170   1.35771
 Alpha virt. eigenvalues --    1.37416   1.39965   1.40662   1.41664   1.42173
 Alpha virt. eigenvalues --    1.42598   1.43418   1.44472   1.46893   1.48090
 Alpha virt. eigenvalues --    1.50382   1.51751   1.52832   1.56925   1.58360
 Alpha virt. eigenvalues --    1.59389   1.63017   1.65900   1.66688   1.67800
 Alpha virt. eigenvalues --    1.69331   1.73220   1.73329   1.75337   1.76653
 Alpha virt. eigenvalues --    1.77196   1.78392   1.79124   1.80185   1.81812
 Alpha virt. eigenvalues --    1.82972   1.83671   1.84872   1.85576   1.87145
 Alpha virt. eigenvalues --    1.87307   1.88112   1.89072   1.89881   1.90316
 Alpha virt. eigenvalues --    1.91188   1.92038   1.93492   1.94653   1.95080
 Alpha virt. eigenvalues --    1.95485   1.96652   1.99040   1.99613   2.01124
 Alpha virt. eigenvalues --    2.01790   2.02110   2.02458   2.03128   2.04193
 Alpha virt. eigenvalues --    2.04408   2.06321   2.06775   2.07699   2.09914
 Alpha virt. eigenvalues --    2.10971   2.12932   2.13246   2.14573   2.15376
 Alpha virt. eigenvalues --    2.15930   2.17631   2.17715   2.20706   2.21153
 Alpha virt. eigenvalues --    2.22418   2.22958   2.23505   2.25821   2.26999
 Alpha virt. eigenvalues --    2.27404   2.27883   2.29952   2.30914   2.31404
 Alpha virt. eigenvalues --    2.32372   2.34770   2.35247   2.36435   2.37913
 Alpha virt. eigenvalues --    2.39222   2.39780   2.40605   2.41527   2.42313
 Alpha virt. eigenvalues --    2.42436   2.42815   2.43248   2.45095   2.45563
 Alpha virt. eigenvalues --    2.46328   2.47389   2.48351   2.49431   2.50273
 Alpha virt. eigenvalues --    2.51031   2.51844   2.52770   2.54627   2.56058
 Alpha virt. eigenvalues --    2.56296   2.57380   2.58802   2.60126   2.60969
 Alpha virt. eigenvalues --    2.61716   2.62288   2.63562   2.64827   2.65337
 Alpha virt. eigenvalues --    2.65888   2.66724   2.68164   2.70500   2.71572
 Alpha virt. eigenvalues --    2.72071   2.73576   2.73948   2.74464   2.75440
 Alpha virt. eigenvalues --    2.75914   2.77620   2.79200   2.79916   2.80905
 Alpha virt. eigenvalues --    2.83548   2.84457   2.85999   2.86728   2.88746
 Alpha virt. eigenvalues --    2.89301   2.90596   2.92229   2.94835   2.97033
 Alpha virt. eigenvalues --    2.97526   2.99238   3.00099   3.05125   3.07519
 Alpha virt. eigenvalues --    3.10756   3.15397   3.21204   3.22271   3.22977
 Alpha virt. eigenvalues --    3.26384   3.26543   3.28918   3.29500   3.31371
 Alpha virt. eigenvalues --    3.33895   3.34319   3.36735   3.38476   3.40772
 Alpha virt. eigenvalues --    3.41729   3.43598   3.44647   3.45672   3.49408
 Alpha virt. eigenvalues --    3.50247   3.50851   3.52051   3.56261   3.56837
 Alpha virt. eigenvalues --    3.65418   3.85146   3.86541   4.12031   4.14878
 Alpha virt. eigenvalues --    4.15210   4.17919   4.18150   4.23603   4.24080
 Alpha virt. eigenvalues --    4.30406   4.40238   4.43929   4.46732   4.48716
 Alpha virt. eigenvalues --    4.50089   4.54297   4.56938   4.64823   4.64962
 Alpha virt. eigenvalues --    4.72531   4.84452   4.88244
          Condensed to atoms (all electrons):
               1          2          3          4          5          6
     1  C    4.821576   0.319415  -0.059741  -0.001955  -0.000684   0.000843
     2  N    0.319415   6.782643   0.343847  -0.065144  -0.009708  -0.016714
     3  C   -0.059741   0.343847   4.805753   0.353952  -0.035680  -0.000371
     4  C   -0.001955  -0.065144   0.353952   5.077310   0.367999  -0.051133
     5  C   -0.000684  -0.009708  -0.035680   0.367999   4.860904   0.288699
     6  N    0.000843  -0.016714  -0.000371  -0.051133   0.288699   7.306580
     7  C    0.000887   0.002264  -0.000199  -0.000991  -0.045782   0.233207
     8  C    0.000599   0.000037   0.000009  -0.000182   0.003253  -0.056913
     9  C   -0.000014  -0.000065   0.000001  -0.000009  -0.000147  -0.010935
    10  C    0.000001   0.000022  -0.000000   0.000012  -0.000061  -0.010575
    11  C   -0.000004  -0.000010  -0.000004  -0.000226   0.003275  -0.058609
    12  C    0.000007  -0.001487   0.000858  -0.000633  -0.038621   0.236988
    13  C   -0.000027   0.000895  -0.002310   0.000080  -0.010490  -0.077862
    14  C    0.000002  -0.000143   0.000011   0.000051  -0.000087   0.004511
    15  C   -0.000000  -0.000000   0.000000   0.000000   0.000008  -0.000070
    16  C   -0.000000  -0.000000  -0.000001   0.000001  -0.000065   0.006014
    17  C    0.000053  -0.000034   0.000002  -0.000007  -0.000031   0.005655
    18  C   -0.000019   0.000006   0.000000  -0.000007  -0.000024  -0.000078
    19  C   -0.000391  -0.000026   0.000002   0.000043   0.000394   0.004485
    20  C   -0.001451   0.000267  -0.000015  -0.004719  -0.000684  -0.069828
    21  H    0.384756  -0.035756  -0.007715  -0.001276  -0.000013  -0.000051
    22  H    0.370724  -0.055620  -0.002412   0.004425   0.001259  -0.000107
    23  H    0.391614  -0.036135   0.005385  -0.000149  -0.000024  -0.000034
    24  H   -0.044912   0.347560  -0.052475  -0.010486  -0.001848   0.015190
    25  H    0.006591  -0.047709   0.386166  -0.057044  -0.006726   0.000293
    26  H   -0.009878  -0.035593   0.380029  -0.035293   0.003846  -0.000180
    27  H    0.000051   0.006206  -0.028442   0.339951  -0.034125   0.004297
    28  H    0.002081  -0.003198  -0.036600   0.385757  -0.039540  -0.002838
    29  H    0.000007   0.000048  -0.003324  -0.040687   0.380797  -0.030945
    30  H   -0.000003  -0.000172   0.003908  -0.045723   0.374539  -0.040969
    31  H    0.000000   0.000000  -0.000000  -0.000000   0.000003  -0.000053
    32  H   -0.000001  -0.000004  -0.000000  -0.000005   0.000008   0.002165
    33  H   -0.000000   0.000000  -0.000000   0.000001   0.000051   0.003074
    34  H   -0.000000   0.000000  -0.000000  -0.000000   0.000002  -0.000019
    35  H    0.000100  -0.001385   0.002592  -0.001958   0.001233  -0.009563
    36  H    0.000000   0.000001   0.000002  -0.000001   0.000008  -0.000095
    37  H   -0.000000   0.000000   0.000000   0.000000   0.000000   0.000005
    38  H    0.000000  -0.000000  -0.000000  -0.000000   0.000001  -0.000080
    39  H   -0.000001  -0.000000   0.000000  -0.000000   0.000002  -0.000072
    40  H   -0.000000   0.000000  -0.000000   0.000000  -0.000000   0.000005
    41  H   -0.000003  -0.000000   0.000000  -0.000007   0.000017  -0.000085
    42  H    0.000017   0.000104  -0.000040  -0.004011   0.003684  -0.010158
               7          8          9         10         11         12
     1  C    0.000887   0.000599  -0.000014   0.000001  -0.000004   0.000007
     2  N    0.002264   0.000037  -0.000065   0.000022  -0.000010  -0.001487
     3  C   -0.000199   0.000009   0.000001  -0.000000  -0.000004   0.000858
     4  C   -0.000991  -0.000182  -0.000009   0.000012  -0.000226  -0.000633
     5  C   -0.045782   0.003253  -0.000147  -0.000061   0.003275  -0.038621
     6  N    0.233207  -0.056913  -0.010935  -0.010575  -0.058609   0.236988
     7  C    4.718770   0.504075  -0.066791   0.000811  -0.005139  -0.007850
     8  C    0.504075   4.795723   0.359353  -0.041906  -0.006547  -0.004999
     9  C   -0.066791   0.359353   5.063288   0.336423  -0.042982   0.000008
    10  C    0.000811  -0.041906   0.336423   5.061824   0.362077  -0.068844
    11  C   -0.005139  -0.006547  -0.042982   0.362077   4.786041   0.515329
    12  C   -0.007850  -0.004999   0.000008  -0.068844   0.515329   4.745174
    13  C    0.003654   0.000072  -0.000331   0.008361  -0.036006   0.482508
    14  C   -0.000059  -0.000002   0.000056   0.000117  -0.037230  -0.025409
    15  C    0.000024  -0.000002  -0.000170   0.007992  -0.026888  -0.042654
    16  C   -0.000391   0.000173  -0.000836  -0.056811   0.536784  -0.012996
    17  C   -0.014798   0.540484  -0.055692   0.000325   0.000198  -0.000409
    18  C   -0.041774  -0.026855   0.007833  -0.000176  -0.000002   0.000024
    19  C   -0.025346  -0.037932   0.000168   0.000032  -0.000004  -0.000055
    20  C    0.481526  -0.034512   0.007950  -0.000196   0.000063   0.003646
    21  H    0.000063   0.000021   0.000000   0.000000   0.000000  -0.000003
    22  H    0.000665  -0.000784  -0.000045  -0.000001  -0.000000   0.000014
    23  H    0.000060   0.000272   0.000005   0.000000   0.000002   0.000014
    24  H   -0.001583  -0.000243   0.000291  -0.000111  -0.000517   0.001118
    25  H    0.000065  -0.000001   0.000000   0.000000   0.000001  -0.000026
    26  H   -0.000024   0.000001  -0.000000   0.000000  -0.000000  -0.000011
    27  H    0.000236   0.000006   0.000000  -0.000000   0.000004  -0.000049
    28  H    0.000949  -0.000116  -0.000000  -0.000000   0.000003   0.000045
    29  H    0.003213  -0.000118   0.000000  -0.000009   0.000552  -0.003662
    30  H   -0.008066   0.000068   0.000011  -0.000035   0.000111   0.003224
    31  H    0.004886  -0.031753   0.368153  -0.032864   0.005075   0.000267
    32  H   -0.003876  -0.029436   0.371302  -0.042729  -0.004150  -0.000594
    33  H   -0.000150  -0.004549  -0.042656   0.369728  -0.029363  -0.004468
    34  H    0.000211   0.004969  -0.032030   0.367581  -0.030844   0.005234
    35  H   -0.000060   0.000009   0.000004  -0.000184   0.004736  -0.043694
    36  H    0.000001   0.000000  -0.000000   0.000007   0.000967   0.003863
    37  H   -0.000000   0.000000   0.000002  -0.000202   0.004090   0.001178
    38  H   -0.000003  -0.000004   0.000361  -0.013070  -0.038799   0.004824
    39  H    0.004727  -0.039939  -0.013143   0.000322  -0.000006  -0.000003
    40  H    0.001099   0.004244  -0.000201   0.000002   0.000000  -0.000000
    41  H    0.003909   0.000878   0.000006  -0.000000  -0.000000   0.000001
    42  H   -0.039598   0.004342  -0.000173   0.000004   0.000012  -0.000143
              13         14         15         16         17         18
     1  C   -0.000027   0.000002  -0.000000  -0.000000   0.000053  -0.000019
     2  N    0.000895  -0.000143  -0.000000  -0.000000  -0.000034   0.000006
     3  C   -0.002310   0.000011   0.000000  -0.000001   0.000002   0.000000
     4  C    0.000080   0.000051   0.000000   0.000001  -0.000007  -0.000007
     5  C   -0.010490  -0.000087   0.000008  -0.000065  -0.000031  -0.000024
     6  N   -0.077862   0.004511  -0.000070   0.006014   0.005655  -0.000078
     7  C    0.003654  -0.000059   0.000024  -0.000391  -0.014798  -0.041774
     8  C    0.000072  -0.000002  -0.000002   0.000173   0.540484  -0.026855
     9  C   -0.000331   0.000056  -0.000170  -0.000836  -0.055692   0.007833
    10  C    0.008361   0.000117   0.007992  -0.056811   0.000325  -0.000176
    11  C   -0.036006  -0.037230  -0.026888   0.536784   0.000198  -0.000002
    12  C    0.482508  -0.025409  -0.042654  -0.012996  -0.000409   0.000024
    13  C    4.950429   0.543565  -0.031114  -0.056033  -0.000002   0.000000
    14  C    0.543565   4.798655   0.549251  -0.036058   0.000000  -0.000000
    15  C   -0.031114   0.549251   4.833228   0.513630  -0.000000   0.000000
    16  C   -0.056033  -0.036058   0.513630   4.916292   0.000004  -0.000000
    17  C   -0.000002   0.000000  -0.000000   0.000004   4.909254   0.514198
    18  C    0.000000  -0.000000   0.000000  -0.000000   0.514198   4.829395
    19  C    0.000001  -0.000000  -0.000000   0.000000  -0.034646   0.550647
    20  C   -0.000148   0.000001   0.000000  -0.000001  -0.057536  -0.030947
    21  H   -0.000002  -0.000000   0.000000   0.000000   0.000000  -0.000003
    22  H    0.000014  -0.000000  -0.000000   0.000000   0.000093   0.000039
    23  H    0.000003   0.000000  -0.000000  -0.000000   0.000036   0.000002
    24  H    0.000245   0.000038  -0.000007  -0.000004   0.000012   0.000010
    25  H   -0.004089   0.000149   0.000000  -0.000001  -0.000000   0.000000
    26  H    0.000132  -0.000001   0.000000   0.000000   0.000000  -0.000000
    27  H   -0.000039   0.000000  -0.000000  -0.000000  -0.000000   0.000000
    28  H   -0.000071   0.000000  -0.000000  -0.000000  -0.000013   0.000006
    29  H    0.003037   0.000499  -0.000035  -0.000062   0.000001   0.000001
    30  H    0.000655  -0.000017  -0.000002   0.000003  -0.000002  -0.000018
    31  H    0.000008  -0.000001   0.000003  -0.000087  -0.009558   0.000576
    32  H   -0.000458  -0.000027  -0.000060   0.001494   0.000820  -0.000323
    33  H   -0.000131   0.000019  -0.000307   0.001583   0.001271  -0.000046
    34  H   -0.000207   0.000010   0.000462  -0.009255  -0.000121   0.000003
    35  H    0.356359  -0.035462   0.005416   0.000988  -0.000000  -0.000000
    36  H   -0.036187   0.366939  -0.041538   0.004716   0.000000  -0.000000
    37  H    0.005081  -0.041781   0.362516  -0.037560   0.000000  -0.000000
    38  H    0.000489   0.005280  -0.045407   0.366475   0.000000  -0.000000
    39  H   -0.000000   0.000000  -0.000000   0.000000   0.367833  -0.045227
    40  H    0.000000  -0.000000  -0.000000   0.000000  -0.038041   0.362554
    41  H   -0.000000   0.000000   0.000000   0.000000   0.004911  -0.041174
    42  H   -0.000004   0.000000  -0.000000   0.000000   0.001018   0.005464
              19         20         21         22         23         24
     1  C   -0.000391  -0.001451   0.384756   0.370724   0.391614  -0.044912
     2  N   -0.000026   0.000267  -0.035756  -0.055620  -0.036135   0.347560
     3  C    0.000002  -0.000015  -0.007715  -0.002412   0.005385  -0.052475
     4  C    0.000043  -0.004719  -0.001276   0.004425  -0.000149  -0.010486
     5  C    0.000394  -0.000684  -0.000013   0.001259  -0.000024  -0.001848
     6  N    0.004485  -0.069828  -0.000051  -0.000107  -0.000034   0.015190
     7  C   -0.025346   0.481526   0.000063   0.000665   0.000060  -0.001583
     8  C   -0.037932  -0.034512   0.000021  -0.000784   0.000272  -0.000243
     9  C    0.000168   0.007950   0.000000  -0.000045   0.000005   0.000291
    10  C    0.000032  -0.000196   0.000000  -0.000001   0.000000  -0.000111
    11  C   -0.000004   0.000063   0.000000  -0.000000   0.000002  -0.000517
    12  C   -0.000055   0.003646  -0.000003   0.000014   0.000014   0.001118
    13  C    0.000001  -0.000148  -0.000002   0.000014   0.000003   0.000245
    14  C   -0.000000   0.000001  -0.000000  -0.000000   0.000000   0.000038
    15  C   -0.000000   0.000000   0.000000  -0.000000  -0.000000  -0.000007
    16  C    0.000000  -0.000001   0.000000   0.000000  -0.000000  -0.000004
    17  C   -0.034646  -0.057536   0.000000   0.000093   0.000036   0.000012
    18  C    0.550647  -0.030947  -0.000003   0.000039   0.000002   0.000010
    19  C    4.808800   0.535770  -0.000004   0.001751  -0.000012  -0.000027
    20  C    0.535770   4.969185   0.000054   0.002618   0.000006  -0.000613
    21  H   -0.000004   0.000054   0.620553  -0.044053  -0.028766   0.005717
    22  H    0.001751   0.002618  -0.044053   0.678125  -0.043336  -0.005086
    23  H   -0.000012   0.000006  -0.028766  -0.043336   0.610235  -0.002740
    24  H   -0.000027  -0.000613   0.005717  -0.005086  -0.002740   0.479642
    25  H   -0.000000  -0.000012   0.000315  -0.000560  -0.000230  -0.001612
    26  H   -0.000000   0.000012   0.007404  -0.000395   0.000140   0.007028
    27  H   -0.000010  -0.000251   0.000016  -0.000552   0.000008   0.000266
    28  H   -0.000008   0.002655   0.000392   0.000938  -0.000172  -0.000351
    29  H   -0.000020   0.000207   0.000001  -0.000013   0.000000  -0.000218
    30  H    0.000280   0.001572  -0.000001   0.000003  -0.000000   0.000313
    31  H    0.000004  -0.000191   0.000000  -0.000000  -0.000001  -0.000007
    32  H    0.000029  -0.000183  -0.000002   0.000017   0.000125   0.000530
    33  H   -0.000025  -0.000411   0.000000   0.000000   0.000000   0.000008
    34  H   -0.000000   0.000005  -0.000000   0.000000  -0.000000   0.000000
    35  H    0.000000  -0.000004  -0.000001  -0.000008  -0.000001  -0.001134
    36  H    0.000000  -0.000000   0.000000   0.000000  -0.000000  -0.000007
    37  H   -0.000000   0.000000   0.000000  -0.000000  -0.000000   0.000000
    38  H    0.000000  -0.000000  -0.000000  -0.000000   0.000000   0.000000
    39  H    0.005346   0.000526  -0.000000   0.000002   0.000000  -0.000001
    40  H   -0.042173   0.005271   0.000000  -0.000002   0.000000   0.000000
    41  H    0.367372  -0.037742  -0.000000   0.000026  -0.000000  -0.000000
    42  H   -0.039691   0.359529   0.000000  -0.000452   0.000004   0.000027
              25         26         27         28         29         30
     1  C    0.006591  -0.009878   0.000051   0.002081   0.000007  -0.000003
     2  N   -0.047709  -0.035593   0.006206  -0.003198   0.000048  -0.000172
     3  C    0.386166   0.380029  -0.028442  -0.036600  -0.003324   0.003908
     4  C   -0.057044  -0.035293   0.339951   0.385757  -0.040687  -0.045723
     5  C   -0.006726   0.003846  -0.034125  -0.039540   0.380797   0.374539
     6  N    0.000293  -0.000180   0.004297  -0.002838  -0.030945  -0.040969
     7  C    0.000065  -0.000024   0.000236   0.000949   0.003213  -0.008066
     8  C   -0.000001   0.000001   0.000006  -0.000116  -0.000118   0.000068
     9  C    0.000000  -0.000000   0.000000  -0.000000   0.000000   0.000011
    10  C    0.000000   0.000000  -0.000000  -0.000000  -0.000009  -0.000035
    11  C    0.000001  -0.000000   0.000004   0.000003   0.000552   0.000111
    12  C   -0.000026  -0.000011  -0.000049   0.000045  -0.003662   0.003224
    13  C   -0.004089   0.000132  -0.000039  -0.000071   0.003037   0.000655
    14  C    0.000149  -0.000001   0.000000   0.000000   0.000499  -0.000017
    15  C    0.000000   0.000000  -0.000000  -0.000000  -0.000035  -0.000002
    16  C   -0.000001   0.000000  -0.000000  -0.000000  -0.000062   0.000003
    17  C   -0.000000   0.000000  -0.000000  -0.000013   0.000001  -0.000002
    18  C    0.000000  -0.000000   0.000000   0.000006   0.000001  -0.000018
    19  C   -0.000000  -0.000000  -0.000010  -0.000008  -0.000020   0.000280
    20  C   -0.000012   0.000012  -0.000251   0.002655   0.000207   0.001572
    21  H    0.000315   0.007404   0.000016   0.000392   0.000001  -0.000001
    22  H   -0.000560  -0.000395  -0.000552   0.000938  -0.000013   0.000003
    23  H   -0.000230   0.000140   0.000008  -0.000172   0.000000  -0.000000
    24  H   -0.001612   0.007028   0.000266  -0.000351  -0.000218   0.000313
    25  H    0.654726  -0.037190  -0.000819   0.005767   0.002139  -0.000083
    26  H   -0.037190   0.633108  -0.002168  -0.004742  -0.000068  -0.000139
    27  H   -0.000819  -0.002168   0.666570  -0.036045  -0.003559  -0.000245
    28  H    0.005767  -0.004742  -0.036045   0.614798   0.005156  -0.007687
    29  H    0.002139  -0.000068  -0.003559   0.005156   0.599423  -0.036469
    30  H   -0.000083  -0.000139  -0.000245  -0.007687  -0.036469   0.639717
    31  H   -0.000000   0.000000  -0.000000   0.000000  -0.000000  -0.000000
    32  H   -0.000000   0.000000   0.000000   0.000001   0.000002   0.000001
    33  H   -0.000000   0.000000  -0.000000   0.000000   0.000003  -0.000013
    34  H    0.000000   0.000000   0.000000   0.000000   0.000000  -0.000000
    35  H    0.005861  -0.000192   0.000183  -0.000005  -0.000107   0.000208
    36  H    0.000013  -0.000000  -0.000000   0.000000   0.000007  -0.000000
    37  H    0.000000  -0.000000  -0.000000   0.000000   0.000000  -0.000000
    38  H    0.000000   0.000000   0.000000   0.000000   0.000000  -0.000000
    39  H   -0.000000   0.000000   0.000000  -0.000000  -0.000000   0.000000
    40  H    0.000000  -0.000000  -0.000000  -0.000000  -0.000000   0.000000
    41  H   -0.000000  -0.000000  -0.000001   0.000015  -0.000000   0.000003
    42  H    0.000006   0.000003   0.000704   0.002252   0.000129   0.000277
              31         32         33         34         35         36
     1  C    0.000000  -0.000001  -0.000000  -0.000000   0.000100   0.000000
     2  N    0.000000  -0.000004   0.000000   0.000000  -0.001385   0.000001
     3  C   -0.000000  -0.000000  -0.000000  -0.000000   0.002592   0.000002
     4  C   -0.000000  -0.000005   0.000001  -0.000000  -0.001958  -0.000001
     5  C    0.000003   0.000008   0.000051   0.000002   0.001233   0.000008
     6  N   -0.000053   0.002165   0.003074  -0.000019  -0.009563  -0.000095
     7  C    0.004886  -0.003876  -0.000150   0.000211  -0.000060   0.000001
     8  C   -0.031753  -0.029436  -0.004549   0.004969   0.000009   0.000000
     9  C    0.368153   0.371302  -0.042656  -0.032030   0.000004  -0.000000
    10  C   -0.032864  -0.042729   0.369728   0.367581  -0.000184   0.000007
    11  C    0.005075  -0.004150  -0.029363  -0.030844   0.004736   0.000967
    12  C    0.000267  -0.000594  -0.004468   0.005234  -0.043694   0.003863
    13  C    0.000008  -0.000458  -0.000131  -0.000207   0.356359  -0.036187
    14  C   -0.000001  -0.000027   0.000019   0.000010  -0.035462   0.366939
    15  C    0.000003  -0.000060  -0.000307   0.000462   0.005416  -0.041538
    16  C   -0.000087   0.001494   0.001583  -0.009255   0.000988   0.004716
    17  C   -0.009558   0.000820   0.001271  -0.000121  -0.000000   0.000000
    18  C    0.000576  -0.000323  -0.000046   0.000003  -0.000000  -0.000000
    19  C    0.000004   0.000029  -0.000025  -0.000000   0.000000   0.000000
    20  C   -0.000191  -0.000183  -0.000411   0.000005  -0.000004  -0.000000
    21  H    0.000000  -0.000002   0.000000  -0.000000  -0.000001   0.000000
    22  H   -0.000000   0.000017   0.000000   0.000000  -0.000008   0.000000
    23  H   -0.000001   0.000125   0.000000  -0.000000  -0.000001  -0.000000
    24  H   -0.000007   0.000530   0.000008   0.000000  -0.001134  -0.000007
    25  H   -0.000000  -0.000000  -0.000000   0.000000   0.005861   0.000013
    26  H    0.000000   0.000000   0.000000   0.000000  -0.000192  -0.000000
    27  H   -0.000000   0.000000  -0.000000   0.000000   0.000183  -0.000000
    28  H    0.000000   0.000001   0.000000   0.000000  -0.000005   0.000000
    29  H   -0.000000   0.000002   0.000003   0.000000  -0.000107   0.000007
    30  H   -0.000000   0.000001  -0.000013  -0.000000   0.000208  -0.000000
    31  H    0.634120  -0.036460   0.000175  -0.008415  -0.000000   0.000000
    32  H   -0.036460   0.611220   0.005537   0.000137   0.000006  -0.000000
    33  H    0.000175   0.005537   0.619046  -0.036826   0.000001  -0.000000
    34  H   -0.008415   0.000137  -0.036826   0.633521   0.000003  -0.000000
    35  H   -0.000000   0.000006   0.000001   0.000003   0.641010  -0.007788
    36  H    0.000000  -0.000000  -0.000000  -0.000000  -0.007788   0.630035
    37  H   -0.000000   0.000002   0.000004  -0.000020  -0.000245  -0.005891
    38  H   -0.000034   0.000112   0.000405   0.006981   0.000016  -0.000242
    39  H    0.006585   0.000578   0.000078  -0.000029  -0.000000  -0.000000
    40  H   -0.000022   0.000004   0.000001  -0.000000   0.000000   0.000000
    41  H   -0.000000  -0.000000  -0.000000   0.000000  -0.000000  -0.000000
    42  H    0.000003   0.000001   0.000005  -0.000000  -0.000000  -0.000000
              37         38         39         40         41         42
     1  C   -0.000000   0.000000  -0.000001  -0.000000  -0.000003   0.000017
     2  N    0.000000  -0.000000  -0.000000   0.000000  -0.000000   0.000104
     3  C    0.000000  -0.000000   0.000000  -0.000000   0.000000  -0.000040
     4  C    0.000000  -0.000000  -0.000000   0.000000  -0.000007  -0.004011
     5  C    0.000000   0.000001   0.000002  -0.000000   0.000017   0.003684
     6  N    0.000005  -0.000080  -0.000072   0.000005  -0.000085  -0.010158
     7  C   -0.000000  -0.000003   0.004727   0.001099   0.003909  -0.039598
     8  C    0.000000  -0.000004  -0.039939   0.004244   0.000878   0.004342
     9  C    0.000002   0.000361  -0.013143  -0.000201   0.000006  -0.000173
    10  C   -0.000202  -0.013070   0.000322   0.000002  -0.000000   0.000004
    11  C    0.004090  -0.038799  -0.000006   0.000000  -0.000000   0.000012
    12  C    0.001178   0.004824  -0.000003  -0.000000   0.000001  -0.000143
    13  C    0.005081   0.000489  -0.000000   0.000000  -0.000000  -0.000004
    14  C   -0.041781   0.005280   0.000000  -0.000000   0.000000   0.000000
    15  C    0.362516  -0.045407  -0.000000  -0.000000   0.000000  -0.000000
    16  C   -0.037560   0.366475   0.000000   0.000000   0.000000   0.000000
    17  C    0.000000   0.000000   0.367833  -0.038041   0.004911   0.001018
    18  C   -0.000000  -0.000000  -0.045227   0.362554  -0.041174   0.005464
    19  C   -0.000000   0.000000   0.005346  -0.042173   0.367372  -0.039691
    20  C    0.000000  -0.000000   0.000526   0.005271  -0.037742   0.359529
    21  H    0.000000  -0.000000  -0.000000   0.000000  -0.000000   0.000000
    22  H   -0.000000  -0.000000   0.000002  -0.000002   0.000026  -0.000452
    23  H   -0.000000   0.000000   0.000000   0.000000  -0.000000   0.000004
    24  H    0.000000   0.000000  -0.000001   0.000000  -0.000000   0.000027
    25  H    0.000000   0.000000  -0.000000   0.000000  -0.000000   0.000006
    26  H   -0.000000   0.000000   0.000000  -0.000000  -0.000000   0.000003
    27  H   -0.000000   0.000000   0.000000  -0.000000  -0.000001   0.000704
    28  H    0.000000   0.000000  -0.000000  -0.000000   0.000015   0.002252
[...]
    31  H    0.000066  -0.000022  -0.000032   0.000284  -0.012680   0.001701
    32  H   -0.000406  -0.000169   0.001097  -0.002530  -0.000559   0.000271
    33  H    0.001486  -0.000198   0.000231  -0.001087  -0.001865   0.000948
    34  H   -0.000185   0.000216   0.000824  -0.009925   0.000526  -0.000070
    35  H    0.412907   0.010465   0.001330   0.000769  -0.000025   0.000003
    36  H   -0.022612   0.394460  -0.031824   0.003266   0.000000   0.000000
    37  H    0.009891  -0.041130   0.417293  -0.040595  -0.000000   0.000000
    38  H   -0.001743   0.005779  -0.035230   0.401569  -0.000001  -0.000000
    39  H    0.000006  -0.000000   0.000000  -0.000007   0.398292  -0.031557
    40  H    0.000000  -0.000000   0.000000  -0.000000  -0.040295   0.417200
    41  H   -0.000003   0.000000  -0.000000   0.000000   0.004403  -0.033831
    42  H   -0.000303  -0.000001   0.000000   0.000001   0.001792   0.001047
              19         20         21         22         23         24
     1  C   -0.000526   0.001456   0.416704   0.402315   0.416763  -0.046194
     2  N   -0.001072   0.003733  -0.039749  -0.073855  -0.033309   0.386183
     3  C   -0.000441  -0.001024   0.008797  -0.029166   0.008995  -0.044208
     4  C    0.004513  -0.010298  -0.016688   0.054522  -0.002616  -0.008930
     5  C   -0.004472  -0.042521   0.001273  -0.009985   0.000464   0.003300
     6  N    0.008547  -0.075516  -0.000236   0.002577  -0.000270  -0.006660
     7  C   -0.050221   0.367982  -0.000370   0.007931  -0.001221  -0.000740
     8  C   -0.073202  -0.018509   0.000744  -0.010651   0.001047   0.000555
     9  C   -0.000866   0.006791  -0.000088   0.002466  -0.000179  -0.000109
    10  C   -0.001191   0.001563   0.000014  -0.000584   0.000063   0.000298
    11  C    0.000644   0.000262   0.000016  -0.000161   0.000003   0.000728
    12  C   -0.002147   0.015354   0.000463  -0.007787   0.000577   0.009880
    13  C    0.000010  -0.000604  -0.000129   0.001012   0.000235  -0.003977
    14  C    0.000010   0.000199  -0.000010   0.000117  -0.000014   0.001334
    15  C   -0.000003  -0.000029   0.000001  -0.000017   0.000000  -0.000376
    16  C    0.000024   0.000002  -0.000002   0.000071  -0.000013   0.000283
    17  C   -0.011471  -0.103476  -0.000166   0.004085  -0.000164  -0.000018
    18  C    0.505801  -0.024118   0.000080  -0.003205   0.000149   0.000020
    19  C    4.968598   0.450348  -0.000329   0.003729  -0.000074  -0.000085
    20  C    0.450348   5.254044   0.000875  -0.014509   0.000330   0.001049
    21  H   -0.000329   0.000875   0.541173  -0.057315  -0.014603   0.006738
    22  H    0.003729  -0.014509  -0.057315   0.643002  -0.039844  -0.000566
    23  H   -0.000074   0.000330  -0.014603  -0.039844   0.523876  -0.009643
    24  H   -0.000085   0.001049   0.006738  -0.000566  -0.009643   0.485559
    25  H    0.000010   0.000187   0.000687  -0.001444  -0.000168  -0.006200
    26  H   -0.000091   0.000158   0.003404  -0.002542   0.000148   0.006355
    27  H   -0.000182   0.000444   0.000015  -0.000720   0.000026  -0.000882
    28  H    0.003125   0.010510   0.002117  -0.017610   0.000494   0.000457
    29  H    0.000092   0.004799   0.000005  -0.000205   0.000003   0.000215
    30  H    0.003522  -0.011521  -0.000006   0.000206  -0.000008  -0.000036
    31  H   -0.000035  -0.000093   0.000001  -0.000035  -0.000002  -0.000005
    32  H   -0.000266   0.001689   0.000018  -0.000419   0.000189   0.000491
    33  H   -0.000329   0.000675  -0.000000   0.000012   0.000001   0.000001
    34  H    0.000010  -0.000017  -0.000000   0.000003  -0.000000  -0.000005
    35  H   -0.000001   0.000387   0.000029  -0.000342  -0.000008  -0.003803
    36  H   -0.000000  -0.000002   0.000000  -0.000000   0.000000   0.000060
    37  H   -0.000000  -0.000000   0.000000  -0.000000   0.000000  -0.000000
    38  H    0.000000   0.000006  -0.000000   0.000000  -0.000000  -0.000001
    39  H    0.004531  -0.000465  -0.000001   0.000025  -0.000019  -0.000003
    40  H   -0.039856   0.008577   0.000003  -0.000119   0.000003   0.000000
    41  H    0.403143  -0.032196  -0.000001  -0.000101   0.000001  -0.000001
    42  H   -0.012601   0.428143  -0.000049   0.000366  -0.000018  -0.000036
              25         26         27         28         29         30
     1  C    0.007460  -0.007514   0.000384  -0.001632   0.000173  -0.000090
     2  N   -0.041351  -0.035436   0.007511   0.004431   0.001400  -0.000593
     3  C    0.442043   0.462394  -0.035435  -0.040435  -0.010649   0.006760
     4  C   -0.073421  -0.104336   0.417661   0.445083  -0.034438  -0.081271
     5  C   -0.004345   0.014463  -0.050443  -0.068388   0.427607   0.438432
     6  N   -0.001297  -0.000906   0.008075   0.000476  -0.032083  -0.031987
     7  C   -0.000033   0.000083  -0.000358  -0.016136   0.001900  -0.018614
     8  C   -0.000051   0.000058  -0.000015   0.000701  -0.000552  -0.000162
     9  C   -0.000019  -0.000009   0.000003  -0.000003   0.000118   0.000174
    10  C    0.000006   0.000006  -0.000002   0.000019  -0.000256  -0.000275
    11  C   -0.000134   0.000002   0.000130  -0.000142   0.002187   0.003340
    12  C   -0.001783   0.000973   0.000408   0.001201  -0.011725   0.004180
    13  C   -0.014948   0.000248   0.000139   0.000333  -0.013720  -0.001202
    14  C    0.001993  -0.000114  -0.000041   0.000087   0.002824  -0.000110
    15  C    0.000012   0.000001   0.000002  -0.000003  -0.000377  -0.000037
    16  C   -0.000007  -0.000003  -0.000005  -0.000005  -0.000043   0.000054
    17  C   -0.000003  -0.000022  -0.000035  -0.000323   0.000003   0.000282
    18  C    0.000002   0.000014   0.000034   0.000603   0.000007  -0.000335
    19  C    0.000010  -0.000091  -0.000182   0.003125   0.000092   0.003522
    20  C    0.000187   0.000158   0.000444   0.010510   0.004799  -0.011521
    21  H    0.000687   0.003404   0.000015   0.002117   0.000005  -0.000006
    22  H   -0.001444  -0.002542  -0.000720  -0.017610  -0.000205   0.000206
    23  H   -0.000168   0.000148   0.000026   0.000494   0.000003  -0.000008
    24  H   -0.006200   0.006355  -0.000882   0.000457   0.000215  -0.000036
    25  H    0.522504  -0.011592  -0.000415   0.006363   0.001905  -0.000397
    26  H   -0.011592   0.520147  -0.002567  -0.000941  -0.000354  -0.000335
    27  H   -0.000415  -0.002567   0.526449  -0.018193  -0.000849  -0.001503
    28  H    0.006363  -0.000941  -0.018193   0.501786   0.003408  -0.003727
    29  H    0.001905  -0.000354  -0.000849   0.003408   0.461558  -0.003692
    30  H   -0.000397  -0.000335  -0.001503  -0.003727  -0.003692   0.519886
    31  H    0.000000   0.000000  -0.000000   0.000000   0.000000  -0.000004
    32  H   -0.000001   0.000003   0.000002   0.000018   0.000007   0.000011
    33  H    0.000000  -0.000000  -0.000001   0.000005   0.000029  -0.000084
    34  H   -0.000000  -0.000000  -0.000000   0.000000  -0.000007  -0.000003
    35  H    0.013119  -0.000302   0.000278   0.000660  -0.006950   0.000428
    36  H   -0.000000   0.000002   0.000000   0.000000   0.000003  -0.000001
    37  H   -0.000000   0.000000  -0.000000  -0.000000   0.000003  -0.000000
    38  H    0.000000   0.000000   0.000000   0.000000  -0.000002  -0.000000
    39  H    0.000000  -0.000000  -0.000000  -0.000002  -0.000000  -0.000001
    40  H    0.000000   0.000000   0.000000   0.000004  -0.000000   0.000000
    41  H    0.000000   0.000000   0.000000   0.000078   0.000001  -0.000013
    42  H   -0.000063  -0.000083   0.001172  -0.004018   0.001357   0.002206
              31         32         33         34         35         36
     1  C    0.000017   0.000066  -0.000001  -0.000001   0.001239  -0.000004
     2  N    0.000010   0.000324  -0.000009  -0.000003  -0.007938   0.000049
     3  C   -0.000003   0.000070  -0.000011   0.000001   0.019933  -0.000037
     4  C   -0.000004  -0.000236   0.000055   0.000000  -0.013943  -0.000046
     5  C    0.000078  -0.000012   0.000417   0.000012   0.002341   0.000116
     6  N   -0.000598   0.000191   0.000689  -0.000105  -0.006100  -0.000279
     7  C    0.022432  -0.012197   0.004330  -0.001671   0.000012   0.000010
     8  C   -0.064915  -0.057406  -0.024366   0.008109  -0.000357   0.000007
     9  C    0.418819   0.463553  -0.046091  -0.039867  -0.000035  -0.000016
    10  C   -0.034542  -0.045456   0.474490   0.422157  -0.000046   0.000115
    11  C    0.007751  -0.022637  -0.066620  -0.062212   0.000073   0.002171
    12  C   -0.001222   0.005006  -0.009515   0.022317  -0.076418   0.006487
    13  C    0.000066  -0.000406   0.001486  -0.000185   0.412907  -0.022612
    14  C   -0.000022  -0.000169  -0.000198   0.000216   0.010465   0.394460
    15  C   -0.000032   0.001097   0.000231   0.000824   0.001330  -0.031824
    16  C    0.000284  -0.002530  -0.001087  -0.009925   0.000769   0.003266
    17  C   -0.012680  -0.000559  -0.001865   0.000526  -0.000025   0.000000
    18  C    0.001701   0.000271   0.000948  -0.000070   0.000003   0.000000
    19  C   -0.000035  -0.000266  -0.000329   0.000010  -0.000001  -0.000000
    20  C   -0.000093   0.001689   0.000675  -0.000017   0.000387  -0.000002
    21  H    0.000001   0.000018  -0.000000  -0.000000   0.000029   0.000000
    22  H   -0.000035  -0.000419   0.000012   0.000003  -0.000342  -0.000000
    23  H   -0.000002   0.000189   0.000001  -0.000000  -0.000008   0.000000
    24  H   -0.000005   0.000491   0.000001  -0.000005  -0.003803   0.000060
    25  H    0.000000  -0.000001   0.000000  -0.000000   0.013119  -0.000000
    26  H    0.000000   0.000003  -0.000000  -0.000000  -0.000302   0.000002
    27  H   -0.000000   0.000002  -0.000001  -0.000000   0.000278   0.000000
    28  H    0.000000   0.000018   0.000005   0.000000   0.000660   0.000000
    29  H    0.000000   0.000007   0.000029  -0.000007  -0.006950   0.000003
    30  H   -0.000004   0.000011  -0.000084  -0.000003   0.000428  -0.000001
    31  H    0.542000  -0.020543   0.004051  -0.009184   0.000002   0.000000
    32  H   -0.020543   0.502870   0.003549   0.004146   0.000030  -0.000005
    33  H    0.004051   0.003549   0.488777  -0.016947   0.000049  -0.000003
    34  H   -0.009184   0.004146  -0.016947   0.531925   0.000003  -0.000003
    35  H    0.000002   0.000030   0.000049   0.000003   0.503531  -0.004671
    36  H    0.000000  -0.000005  -0.000003  -0.000003  -0.004671   0.515366
    37  H   -0.000002   0.000011   0.000012  -0.000072  -0.000235  -0.003666
    38  H   -0.000130   0.000240  -0.000154   0.005405   0.000066  -0.000378
    39  H    0.005866  -0.000306   0.000049  -0.000091   0.000000  -0.000000
    40  H   -0.000073   0.000013   0.000006  -0.000001   0.000000   0.000000
    41  H   -0.000004  -0.000002  -0.000006   0.000000  -0.000000  -0.000000
    42  H    0.000002   0.000023  -0.000036   0.000000  -0.000001  -0.000000
              37         38         39         40         41         42
     1  C    0.000000   0.000000  -0.000021   0.000004  -0.000006   0.000797
     2  N    0.000000  -0.000000  -0.000003   0.000003   0.000003   0.000049
     3  C   -0.000001  -0.000000  -0.000000  -0.000000  -0.000005   0.000653
     4  C    0.000001  -0.000001  -0.000005   0.000007  -0.000006  -0.019893
     5  C   -0.000006   0.000045   0.000053  -0.000012   0.000090   0.012322
     6  N    0.000014  -0.000110  -0.000199   0.000017  -0.000181  -0.003677
     7  C   -0.000001  -0.000026   0.021499  -0.001475   0.007264  -0.061232
     8  C   -0.000003   0.000048  -0.047571   0.008791   0.001639  -0.002715
     9  C    0.000046   0.000149  -0.010822  -0.000374   0.000084   0.000117
    10  C   -0.000280  -0.010123   0.000378   0.000064  -0.000010  -0.000280
    11  C    0.008582  -0.049319   0.000001  -0.000006   0.000004   0.000349
    12  C   -0.001687   0.023507  -0.000064   0.000003   0.000016  -0.000549
    13  C    0.009891  -0.001743   0.000006   0.000000  -0.000003  -0.000303
    14  C   -0.041130   0.005779  -0.000000  -0.000000   0.000000  -0.000001
    15  C    0.417293  -0.035230   0.000000   0.000000  -0.000000   0.000000
    16  C   -0.040595   0.401569  -0.000007  -0.000000   0.000000   0.000001
    17  C   -0.000000  -0.000001   0.398292  -0.040295   0.004403   0.001792
    18  C    0.000000  -0.000000  -0.031557   0.417200  -0.033831   0.001047
    19  C   -0.000000   0.000000   0.004531  -0.039856   0.403143  -0.012601
    20  C   -0.000000   0.000006  -0.000465   0.008577  -0.032196   0.428143
    21  H    0.000000  -0.000000  -0.000001   0.000003  -0.000001  -0.000049
    22  H   -0.000000   0.000000   0.000025  -0.000119  -0.000101   0.000366
    23  H    0.000000  -0.000000  -0.000019   0.000003   0.000001  -0.000018
    24  H   -0.000000  -0.000001  -0.000003   0.000000  -0.000001  -0.000036
    25  H   -0.000000   0.000000   0.000000   0.000000   0.000000  -0.000063
    26  H    0.000000   0.000000  -0.000000   0.000000   0.000000  -0.000083
    27  H   -0.000000   0.000000  -0.000000   0.000000   0.000000   0.001172
    28  H   -0.000000   0.000000  -0.000002   0.000004   0.000078  -0.004018
    29  H    0.000003  -0.000002  -0.000000  -0.000000   0.000001   0.001357
    30  H   -0.000000  -0.000000  -0.000001   0.000000  -0.000013   0.002206
    31  H   -0.000002  -0.000130   0.005866  -0.000073  -0.000004   0.000002
    32  H    0.000011   0.000240  -0.000306   0.000013  -0.000002   0.000023
    33  H    0.000012  -0.000154   0.000049   0.000006  -0.000006  -0.000036
    34  H   -0.000072   0.005405  -0.000091  -0.000001   0.000000   0.000000
    35  H   -0.000235   0.000066   0.000000   0.000000  -0.000000  -0.000001
    36  H   -0.003666  -0.000378  -0.000000   0.000000  -0.000000  -0.000000
    37  H    0.515313  -0.003836  -0.000000   0.000000  -0.000000   0.000000
    38  H   -0.003836   0.530585  -0.000001  -0.000000  -0.000000   0.000000
    39  H   -0.000000  -0.000001   0.532045  -0.003885  -0.000380   0.000060
    40  H    0.000000  -0.000000  -0.003885   0.516588  -0.003790  -0.000280
    41  H   -0.000000  -0.000000  -0.000380  -0.003790   0.518910  -0.004458
    42  H    0.000000   0.000000   0.000060  -0.000280  -0.004458   0.500208
 Mulliken charges:
               1
     1  C   -0.371151
     2  N   -0.315928
     3  C   -0.275610
     4  C   -0.277896
     5  C   -0.347254
     6  N   -0.062937
     7  C    0.036778
     8  C    0.083217
     9  C   -0.333911
    10  C   -0.366106
    11  C    0.034675
    12  C    0.101494
    13  C   -0.206498
    14  C   -0.196146
    15  C   -0.170804
    16  C   -0.140088
    17  C   -0.137454
    18  C   -0.178957
    19  C   -0.157198
    20  C   -0.224662
    21  H    0.146587
    22  H    0.148744
    23  H    0.148806
    24  H    0.228973
    25  H    0.161383
    26  H    0.158688
    27  H    0.148911
    28  H    0.189599
    29  H    0.206300
    30  H    0.176526
    31  H    0.141044
    32  H    0.179262
    33  H    0.187463
    34  H    0.144715
    35  H    0.153521
    36  H    0.141438
    37  H    0.140351
    38  H    0.133657
    39  H    0.132599
    40  H    0.138885
    41  H    0.139357
    42  H    0.159629
 Sum of Mulliken charges =  -0.00000
 Mulliken charges with hydrogens summed into heavy atoms:
               1
     1  C    0.072985
     2  N   -0.086955
     3  C    0.044461
     4  C    0.060615
     5  C    0.035572
     6  N   -0.062937
     7  C    0.036778
     8  C    0.083217
     9  C   -0.013605
    10  C   -0.033928
    11  C    0.034675
    12  C    0.101494
    13  C   -0.052977
    14  C   -0.054708
    15  C   -0.030453
    16  C   -0.006431
    17  C   -0.004856
    18  C   -0.040071
    19  C   -0.017841
    20  C   -0.065034
 Electronic spatial extent (au):  <R**2>=           5034.0613
 Charge=              0.0000 electrons
 Dipole moment (field-independent basis, Debye):
    X=              0.1550    Y=             -0.3317    Z=             -1.1055  Tot=              1.1646
 Quadrupole moment (field-independent basis, Debye-Ang):
   XX=           -116.5405   YY=           -115.6398   ZZ=           -125.1828
   XY=              1.7740   XZ=             -0.7511   YZ=             -9.5556
 Traceless Quadrupole moment (field-independent basis, Debye-Ang):
   XX=              2.5805   YY=              3.4813   ZZ=             -6.0618
   XY=              1.7740   XZ=             -0.7511   YZ=             -9.5556
 Octapole moment (field-independent basis, Debye-Ang**2):
  XXX=             -5.0229  YYY=             -4.4044  ZZZ=             -5.3876  XYY=             -5.1803
  XXY=              1.3844  XXZ=              5.3761  XZZ=             14.1489  YZZ=             -1.1162
  YYZ=             -4.5609  XYZ=             -1.6076
 Hexadecapole moment (field-independent basis, Debye-Ang**3):
 XXXX=          -3479.7197 YYYY=          -2428.7330 ZZZZ=           -831.6321 XXXY=            -24.6353
 XXXZ=            -61.6624 YYYX=             38.0273 YYYZ=            -68.0105 ZZZX=              4.6986
 ZZZY=            -35.0220 XXYY=           -992.9774 XXZZ=           -805.2490 YYZZ=           -578.5938
 XXYZ=            -32.5887 YYXZ=             32.0981 ZZXY=             14.3479
 N-N= 1.594109478950D+03 E-N=-5.063396565066D+03  KE= 8.040852421045D+02
 Unable to Open any file for archive entry.
 1\1\GINC-NOTCH363\SP\RM062X\def2TZVP\C18H22N2\U6032257\23-Sep-2022\0\\
 # M062X/def2tzvp int=(grid=ultrafine) nmr=giao guess=read geom=check\\
 SecN5.xyz\\0,1\C,0,1.2013319013,-3.7618285072,1.8314496296\N,0,-0.1022
 851627,-3.1129541252,1.9056544436\C,0,-0.1715984123,-1.9779213533,2.81
 62455093\C,0,0.7487632417,-0.7676579393,2.5491377147\C,0,0.4889967128,
 0.0631611155,1.2792776972\N,0,0.616179895,-0.6461761784,-0.0134771399\
 C,0,1.9301244466,-1.0530438336,-0.3718525999\C,0,2.259691433,-1.925653
 5327,-1.4458997827\C,0,1.2923722812,-2.3082922401,-2.5338333971\C,0,0.
 5223395344,-1.0609973545,-3.0164537613\C,0,-0.6899673206,-0.8927164595
 ,-2.1508468153\C,0,-0.5982954566,-0.8271476428,-0.7384958043\C,0,-1.81
 12747102,-0.9025228578,-0.0175952413\C,0,-3.0512623397,-0.9695977247,-
 0.6439970605\C,0,-3.1345812915,-0.9842790863,-2.0311084205\C,0,-1.9476
 362028,-0.9687615846,-2.756343151\C,0,3.5839623754,-2.3468352215,-1.60
 58122068\C,0,4.6206781216,-1.9402509347,-0.7742485098\C,0,4.3199828571
 ,-1.0266555308,0.2279408345\C,0,3.0132298863,-0.5913986338,0.414555840
 9\H,0,1.4672226319,-4.1481668008,2.8227754558\H,0,2.0289101614,-3.1244
 934715,1.4839980381\H,0,1.135113845,-4.6170963996,1.1521982556\H,0,-0.
 4030505135,-2.835747619,0.9772464807\H,0,-1.216623961,-1.6476577228,2.
 8683120816\H,0,0.0692772535,-2.3518157244,3.820465569\H,0,0.652256731,
 -0.0752346416,3.3964811622\H,0,1.7852813541,-1.1128317,2.5603181739\H,
 0,-0.5053949482,0.5008837338,1.3148331999\H,0,1.1682264005,0.922135909
 8,1.2683549034\H,0,1.8593631816,-2.7526865514,-3.357047378\H,0,0.56852
 49245,-3.0642210575,-2.2073835093\H,0,1.1884716938,-0.1917298336,-2.97
 85691403\H,0,0.2052830547,-1.1796104674,-4.0563940217\H,0,-1.800327269
 ,-0.9180646351,1.0610508778\H,0,-3.9466687793,-1.0221145384,-0.0325464
 615\H,0,-4.0928396229,-1.0313410062,-2.5373869202\H,0,-1.9812774888,-1
 .0204126845,-3.8411534964\H,0,3.7982744272,-3.0133501398,-2.4367868596
 \H,0,5.6315627697,-2.3027519996,-0.9265032023\H,0,5.0980391751,-0.6386
 198381,0.8783227357\H,0,2.8504231887,0.1225568132,1.2052162759\\Versio
 n=ES64L-G16RevC.01\State=1-A\HF=-808.5857424\RMSD=2.275e-09\Dipole=0.1
 435082,0.4290514,-0.0724511\Quadrupole=0.8729876,-5.2123182,4.3393306,
 -2.1796746,1.5489717,6.1105536\PG=C01 [X(C18H22N2)]\\@
 The archive entry for this job was punched.


 HE THAT RISETH LATE MUST TROT ALL DAY.

                  -- BENJAMIN FRANKLIN
 Job cpu time:       0 days  3 hours 10 minutes 49.6 seconds.
 Elapsed time:       0 days  0 hours  4 minutes  9.0 seconds.
 File lengths (MBytes):  RWF=    318 Int=      0 D2E=      0 Chk=     53 Scr=      1
 Normal termination of Gaussian 16 at Fri Sep 23 16:38:09 2022.
