 Entering Gaussian System, Link 0=/uufs/chpc.utah.edu/sys/installdir/gaussian16/C01/AVX2/g16/g16
 Input=SecN2_conf-1.com
 Output=SecN2_conf-1.log
 Initial command:
 /uufs/chpc.utah.edu/sys/installdir/gaussian16/C01/AVX2/g16/l1.exe "/scratch/local/u6032257/5771503/notchpeak.peaks/Gau-713120.inp" -scrdir="/scratch/local/u6032257/5771503/notchpeak.peaks/"
 Entering Link 1 = /uufs/chpc.utah.edu/sys/installdir/gaussian16/C01/AVX2/g16/l1.exe PID=    713122.
  
 Copyright (c) 1988-2019, Gaussian, Inc.  All Rights Reserved.
  
 This is part of the Gaussian(R) 16 program.  It is based on
 the Gaussian(R) 09 system (copyright 2009, Gaussian, Inc.),
 the Gaussian(R) 03 system (copyright 2003, Gaussian, Inc.),
 the Gaussian(R) 98 system (copyright 1998, Gaussian, Inc.),
 the Gaussian(R) 94 system (copyright 1995, Gaussian, Inc.),
 the Gaussian 92(TM) system (copyright 1992, Gaussian, Inc.),
 the Gaussian 90(TM) system (copyright 1990, Gaussian, Inc.),
 the Gaussian 88(TM) system (copyright 1988, Gaussian, Inc.),
 the Gaussian 86(TM) system (copyright 1986, Carnegie Mellon
 University), and the Gaussian 82(TM) system (copyright 1983,
 Carnegie Mellon University). Gaussian is a federally registered
 trademark of Gaussian, Inc.
  
 This software contains proprietary and confidential information,
 including trade secrets, belonging to Gaussian, Inc.
  
 This software is provided under written license and may be
 used, copied, transmitted, or stored only in accord with that
 written license.
  
 The following legend is applicable only to US Government
 contracts under FAR:
  
                    RESTRICTED RIGHTS LEGEND
  
 Use, reproduction and disclosure by the US Government is
 subject to restrictions as set forth in subparagraphs (a)
 and (c) of the Commercial Computer Software - Restricted
 Rights clause in FAR 52.227-19.
  
 Gaussian, Inc.
 340 Quinnipiac St., Bldg. 40, Wallingford CT 06492
  
  
 ---------------------------------------------------------------
 Warning -- This program may not be used in any manner that
 competes with the business of Gaussian, Inc. or will provide
 assistance to any competitor of Gaussian, Inc.  The licensee
 of this program is prohibited from giving any competitor of
 Gaussian, Inc. access to this program.  By using this program,
 the user acknowledges that Gaussian, Inc. is engaged in the
 business of creating and licensing software in the field of
 computational chemistry and represents and warrants to the
 licensee that it is not a competitor of Gaussian, Inc. and that
 it will not use this program in any manner prohibited above.
 ---------------------------------------------------------------
  

 Cite this work as:
 Gaussian 16, Revision C.01,
 M. J. Frisch, G. W. Trucks, H. B. Schlegel, G. E. Scuseria, 
 M. A. Robb, J. R. Cheeseman, G. Scalmani, V. Barone, 
 G. A. Petersson, H. Nakatsuji, X. Li, M. Caricato, A. V. Marenich, 
 J. Bloino, B. G. Janesko, R. Gomperts, B. Mennucci, H. P. Hratchian, 
 J. V. Ortiz, A. F. Izmaylov, J. L. Sonnenberg, D. Williams-Young, 
 F. Ding, F. Lipparini, F. Egidi, J. Goings, B. Peng, A. Petrone, 
 T. Henderson, D. Ranasinghe, V. G. Zakrzewski, J. Gao, N. Rega, 
 G. Zheng, W. Liang, M. Hada, M. Ehara, K. Toyota, R. Fukuda, 
 J. Hasegawa, M. Ishida, T. Nakajima, Y. Honda, O. Kitao, H. Nakai, 
 T. Vreven, K. Throssell, J. A. Montgomery, Jr., J. E. Peralta, 
 F. Ogliaro, M. J. Bearpark, J. J. Heyd, E. N. Brothers, K. N. Kudin, 
 V. N. Staroverov, T. A. Keith, R. Kobayashi, J. Normand, 
 K. Raghavachari, A. P. Rendell, J. C. Burant, S. S. Iyengar, 
 J. Tomasi, M. Cossi, J. M. Millam, M. Klene, C. Adamo, R. Cammi, 
 J. W. Ochterski, R. L. Martin, K. Morokuma, O. Farkas, 
 J. B. Foresman, and D. J. Fox, Gaussian, Inc., Wallingford CT, 2019.
 
 ******************************************
 Gaussian 16:  ES64L-G16RevC.01  3-Jul-2019
                23-Sep-2022 
 ******************************************
 %NProcShared=40
 Will use up to   40 processors via shared memory.
 %mem=16GB
 %chk=SecN2_conf-1.chk
 ----------------------------------------------------------------------
 # B3LYP/6-31G(d,p) empiricaldispersion=GD3BJ int=(grid=ultrafine) opt 
 freq=noraman
 ----------------------------------------------------------------------
 1/18=20,19=15,26=4,38=1/1,3;
 2/9=110,12=2,17=6,18=5,40=1/2;
 3/5=1,6=6,7=101,11=2,25=1,30=1,71=1,74=-5,75=-5,124=41/1,2,3;
 4//1;
 5/5=2,38=5/2;
 6/7=2,8=2,9=2,10=2,28=1/1;
 7//1,2,3,16;
 1/18=20,19=15,26=4/3(2);
 2/9=110/2;
 99//99;
 2/9=110/2;
 3/5=1,6=6,7=101,11=2,25=1,30=1,71=1,74=-5,75=-5,124=41/1,2,3;
 4/5=5,16=3,69=1/1;
 5/5=2,38=5/2;
 7//1,2,3,16;
 1/18=20,19=15,26=4/3(-5);
 2/9=110/2;
 6/7=2,8=2,9=2,10=2,19=2,28=1/1;
 99/9=1/99;
 ---------
 SecN2.xyz
 ---------
 Symbolic Z-matrix:
 Charge =  0 Multiplicity = 1
 C                     1.4       0.1892   -0.0048 
 C                     0.7429   -1.0304   -0.6706 
 C                    -0.6431   -1.3451   -0.0755 
 N                    -1.5164   -0.1701   -0.1252 
 C                    -0.9582    1.0025    0.5528 
 C                     0.4203    1.3733   -0.0273 
 H                     2.3286    0.4501   -0.514 
 H                     1.6643   -0.0513    1.0262 
 H                     1.3887   -1.9012   -0.5561 
 H                     0.6468   -0.884    -1.7475 
 H                    -1.1108   -2.16     -0.6312 
 H                    -0.5421   -1.6777    0.9598 
 H                    -2.4293   -0.3931    0.2505 
 H                    -1.6478    1.841     0.4395 
 H                    -0.8742    0.7966    1.622 
 H                     0.2924    1.7563   -1.0409 
 H                     0.8377    2.2037    0.5424 
 

 GradGradGradGradGradGradGradGradGradGradGradGradGradGradGradGradGradGrad
 Berny optimization.
 Initialization pass.
                           ----------------------------
                           !    Initial Parameters    !
                           ! (Angstroms and Degrees)  !
 --------------------------                            --------------------------
 ! Name  Definition              Value          Derivative Info.                !
 --------------------------------------------------------------------------------
 ! R1    R(1,2)                  1.537          estimate D2E/DX2                !
 ! R2    R(1,6)                  1.537          estimate D2E/DX2                !
 ! R3    R(1,7)                  1.0907         estimate D2E/DX2                !
 ! R4    R(1,8)                  1.0912         estimate D2E/DX2                !
 ! R5    R(2,3)                  1.5408         estimate D2E/DX2                !
 ! R6    R(2,9)                  1.0902         estimate D2E/DX2                !
 ! R7    R(2,10)                 1.091          estimate D2E/DX2                !
 ! R8    R(3,4)                  1.4648         estimate D2E/DX2                !
 ! R9    R(3,11)                 1.0916         estimate D2E/DX2                !
 ! R10   R(3,12)                 1.0921         estimate D2E/DX2                !
 ! R11   R(4,5)                  1.465          estimate D2E/DX2                !
 ! R12   R(4,13)                 1.0121         estimate D2E/DX2                !
 ! R13   R(5,6)                  1.5409         estimate D2E/DX2                !
 ! R14   R(5,14)                 1.0915         estimate D2E/DX2                !
 ! R15   R(5,15)                 1.0921         estimate D2E/DX2                !
 ! R16   R(6,16)                 1.0911         estimate D2E/DX2                !
 ! R17   R(6,17)                 1.0901         estimate D2E/DX2                !
 ! A1    A(2,1,6)              109.4173         estimate D2E/DX2                !
 ! A2    A(2,1,7)              110.5817         estimate D2E/DX2                !
 ! A3    A(2,1,8)              109.7519         estimate D2E/DX2                !
 ! A4    A(6,1,7)              110.5825         estimate D2E/DX2                !
 ! A5    A(6,1,8)              109.7563         estimate D2E/DX2                !
 ! A6    A(7,1,8)              106.7151         estimate D2E/DX2                !
 ! A7    A(1,2,3)              112.291          estimate D2E/DX2                !
 ! A8    A(1,2,9)              109.5763         estimate D2E/DX2                !
 ! A9    A(1,2,10)             111.0227         estimate D2E/DX2                !
 ! A10   A(3,2,9)              109.2173         estimate D2E/DX2                !
 ! A11   A(3,2,10)             109.2316         estimate D2E/DX2                !
 ! A12   A(9,2,10)             105.2498         estimate D2E/DX2                !
 ! A13   A(2,3,4)              111.0593         estimate D2E/DX2                !
 ! A14   A(2,3,11)             109.9532         estimate D2E/DX2                !
 ! A15   A(2,3,12)             110.1907         estimate D2E/DX2                !
 ! A16   A(4,3,11)             109.0324         estimate D2E/DX2                !
 ! A17   A(4,3,12)             109.3655         estimate D2E/DX2                !
 ! A18   A(11,3,12)            107.1494         estimate D2E/DX2                !
 ! A19   A(3,4,5)              113.5266         estimate D2E/DX2                !
 ! A20   A(3,4,13)             110.3909         estimate D2E/DX2                !
 ! A21   A(5,4,13)             110.3804         estimate D2E/DX2                !
 ! A22   A(4,5,6)              111.0542         estimate D2E/DX2                !
 ! A23   A(4,5,14)             109.0322         estimate D2E/DX2                !
 ! A24   A(4,5,15)             109.3597         estimate D2E/DX2                !
 ! A25   A(6,5,14)             109.9536         estimate D2E/DX2                !
 ! A26   A(6,5,15)             110.1908         estimate D2E/DX2                !
 ! A27   A(14,5,15)            107.1605         estimate D2E/DX2                !
 ! A28   A(1,6,5)              112.2927         estimate D2E/DX2                !
 ! A29   A(1,6,16)             111.0235         estimate D2E/DX2                !
 ! A30   A(1,6,17)             109.581          estimate D2E/DX2                !
 ! A31   A(5,6,16)             109.2291         estimate D2E/DX2                !
 ! A32   A(5,6,17)             109.2149         estimate D2E/DX2                !
 ! A33   A(16,6,17)            105.2472         estimate D2E/DX2                !
 ! D1    D(6,1,2,3)            -52.0664         estimate D2E/DX2                !
 ! D2    D(6,1,2,9)           -173.6233         estimate D2E/DX2                !
 ! D3    D(6,1,2,10)            70.5441         estimate D2E/DX2                !
 ! D4    D(7,1,2,3)           -174.1082         estimate D2E/DX2                !
 ! D5    D(7,1,2,9)             64.3349         estimate D2E/DX2                !
 ! D6    D(7,1,2,10)           -51.4976         estimate D2E/DX2                !
 ! D7    D(8,1,2,3)             68.4232         estimate D2E/DX2                !
 ! D8    D(8,1,2,9)            -53.1337         estimate D2E/DX2                !
 ! D9    D(8,1,2,10)          -168.9663         estimate D2E/DX2                !
 ! D10   D(2,1,6,5)             52.0674         estimate D2E/DX2                !
 ! D11   D(2,1,6,16)           -70.5418         estimate D2E/DX2                !
 ! D12   D(2,1,6,17)           173.6256         estimate D2E/DX2                !
 ! D13   D(7,1,6,5)            174.1087         estimate D2E/DX2                !
 ! D14   D(7,1,6,16)            51.4995         estimate D2E/DX2                !
 ! D15   D(7,1,6,17)           -64.3331         estimate D2E/DX2                !
 ! D16   D(8,1,6,5)            -68.4195         estimate D2E/DX2                !
 ! D17   D(8,1,6,16)           168.9713         estimate D2E/DX2                !
 ! D18   D(8,1,6,17)            53.1387         estimate D2E/DX2                !
 ! D19   D(1,2,3,4)             54.3543         estimate D2E/DX2                !
 ! D20   D(1,2,3,11)           175.1214         estimate D2E/DX2                !
 ! D21   D(1,2,3,12)           -66.9908         estimate D2E/DX2                !
 ! D22   D(9,2,3,4)            176.1161         estimate D2E/DX2                !
 ! D23   D(9,2,3,11)           -63.1167         estimate D2E/DX2                !
 ! D24   D(9,2,3,12)            54.7711         estimate D2E/DX2                !
 ! D25   D(10,2,3,4)           -69.2627         estimate D2E/DX2                !
 ! D26   D(10,2,3,11)           51.5044         estimate D2E/DX2                !
 ! D27   D(10,2,3,12)          169.3922         estimate D2E/DX2                !
 ! D28   D(2,3,4,5)            -56.6086         estimate D2E/DX2                !
 ! D29   D(2,3,4,13)           178.8468         estimate D2E/DX2                !
 ! D30   D(11,3,4,5)          -177.9174         estimate D2E/DX2                !
 ! D31   D(11,3,4,13)           57.5379         estimate D2E/DX2                !
 ! D32   D(12,3,4,5)            65.2191         estimate D2E/DX2                !
 ! D33   D(12,3,4,13)          -59.3256         estimate D2E/DX2                !
 ! D34   D(3,4,5,6)             56.6057         estimate D2E/DX2                !
 ! D35   D(3,4,5,14)           177.9116         estimate D2E/DX2                !
 ! D36   D(3,4,5,15)           -65.2149         estimate D2E/DX2                !
 ! D37   D(13,4,5,6)          -178.844          estimate D2E/DX2                !
 ! D38   D(13,4,5,14)          -57.5381         estimate D2E/DX2                !
 ! D39   D(13,4,5,15)           59.3354         estimate D2E/DX2                !
 ! D40   D(4,5,6,1)            -54.3506         estimate D2E/DX2                !
 ! D41   D(4,5,6,16)            69.2667         estimate D2E/DX2                !
 ! D42   D(4,5,6,17)          -176.1179         estimate D2E/DX2                !
 ! D43   D(14,5,6,1)          -175.1145         estimate D2E/DX2                !
 ! D44   D(14,5,6,16)          -51.4971         estimate D2E/DX2                !
 ! D45   D(14,5,6,17)           63.1182         estimate D2E/DX2                !
 ! D46   D(15,5,6,1)            66.9839         estimate D2E/DX2                !
 ! D47   D(15,5,6,16)         -169.3988         estimate D2E/DX2                !
 ! D48   D(15,5,6,17)          -54.7834         estimate D2E/DX2                !
 --------------------------------------------------------------------------------
 Trust Radius=3.00D-01 FncErr=1.00D-07 GrdErr=1.00D-06 EigMax=2.50D+02 EigMin=1.00D-04
 Number of steps in this run=    102 maximum allowed number of steps=    102.
 GradGradGradGradGradGradGradGradGradGradGradGradGradGradGradGradGradGrad

                          Input orientation:                          
 ---------------------------------------------------------------------
 Center     Atomic      Atomic             Coordinates (Angstroms)
 Number     Number       Type             X           Y           Z
 ---------------------------------------------------------------------
      1          6           0        1.400000    0.189200   -0.004800
      2          6           0        0.742900   -1.030400   -0.670600
      3          6           0       -0.643100   -1.345100   -0.075500
      4          7           0       -1.516400   -0.170100   -0.125200
      5          6           0       -0.958200    1.002500    0.552800
      6          6           0        0.420300    1.373300   -0.027300
      7          1           0        2.328600    0.450100   -0.514000
      8          1           0        1.664300   -0.051300    1.026200
      9          1           0        1.388700   -1.901200   -0.556100
     10          1           0        0.646800   -0.884000   -1.747500
     11          1           0       -1.110800   -2.160000   -0.631200
     12          1           0       -0.542100   -1.677700    0.959800
     13          1           0       -2.429300   -0.393100    0.250500
     14          1           0       -1.647800    1.841000    0.439500
     15          1           0       -0.874200    0.796600    1.622000
     16          1           0        0.292400    1.756300   -1.040900
     17          1           0        0.837700    2.203700    0.542400
 ---------------------------------------------------------------------
                    Distance matrix (angstroms):
                    1          2          3          4          5
     1  C    0.000000
     2  C    1.537041   0.000000
     3  C    2.556038   1.540836   0.000000
     4  N    2.940915   2.478309   1.464837   0.000000
     5  C    2.556068   2.919440   2.450566   1.465013   0.000000
     6  C    1.537014   2.509119   2.919391   2.478402   1.540867
     7  H    1.090711   2.175051   3.499432   3.914057   3.499466
     8  H    1.091172   2.164889   2.865616   3.384773   2.865678
     9  H    2.161905   1.090165   2.160656   3.409104   3.894749
    10  H    2.180842   1.091046   2.161490   2.796595   3.380279
    11  H    3.495030   2.171118   1.091608   2.092905   3.380318
    12  H    2.861384   2.174495   1.092094   2.097461   2.742674
    13  H    3.881725   3.364139   2.050144   1.012060   2.050176
    14  H    3.494986   3.897782   3.380219   2.093006   1.091544
    15  H    2.861363   3.347978   2.742589   2.097531   1.092080
    16  H    2.180845   2.847063   3.380213   2.796655   2.161503
    17  H    2.161902   3.455396   3.894682   3.409165   2.160613
                    6          7          8          9         10
     6  C    0.000000
     7  H    2.175037   0.000000
     8  H    2.164921   1.750689   0.000000
     9  H    3.455398   2.532547   2.449849   0.000000
    10  H    2.847068   2.475843   3.069545   1.733362   0.000000
    11  H    3.897842   4.319240   3.859374   2.513984   2.442020
    12  H    3.348012   3.865299   2.741858   2.464933   3.061522
    13  H    3.364158   4.892143   4.180442   4.183550   3.700727
    14  H    2.171102   4.319204   3.859407   4.920936   4.180165
    15  H    2.174512   3.865292   2.741878   4.140406   4.060959
    16  H    1.091069   2.475862   3.069598   3.848923   2.756096
    17  H    1.090112   2.532563   2.449970   4.284916   3.848893
                   11         12         13         14         15
    11  H    0.000000
    12  H    1.757075   0.000000
    13  H    2.374399   2.390571   0.000000
    14  H    4.176454   3.724854   2.374377   0.000000
    15  H    3.724832   2.582820   2.390551   1.757138   0.000000
    16  H    4.180219   4.060979   3.700714   2.441953   3.061538
    17  H    4.920962   4.140451   4.183523   2.513931   2.464968
                   16         17
    16  H    0.000000
    17  H    1.733308   0.000000
 Stoichiometry    C5H11N
 Framework group  C1[X(C5H11N)]
 Deg. of freedom    45
 Full point group                 C1      NOp   1
 Largest Abelian subgroup         C1      NOp   1
 Largest concise Abelian subgroup C1      NOp   1
                         Standard orientation:                         
 ---------------------------------------------------------------------
 Center     Atomic      Atomic             Coordinates (Angstroms)
 Number     Number       Type             X           Y           Z
 ---------------------------------------------------------------------
      1          6           0        1.482121   -0.000495    0.243010
      2          6           0        0.725309   -1.254804   -0.222221
      3          6           0       -0.760747   -1.224987    0.183887
      4          7           0       -1.410630    0.000415   -0.287059
      5          6           0       -0.759916    1.225579    0.183905
      6          6           0        0.726191    1.254316   -0.222212
      7          1           0        2.500903   -0.000855   -0.146522
      8          1           0        1.562214   -0.000571    1.331238
      9          1           0        1.195182   -2.142859    0.200908
     10          1           0        0.799914   -1.378322   -1.303683
     11          1           0       -1.279587   -2.087806   -0.237960
     12          1           0       -0.856145   -1.291134    1.269794
     13          1           0       -2.389887    0.000824   -0.031478
     14          1           0       -1.278135    2.088648   -0.238030
     15          1           0       -0.855262    1.291686    1.269805
     16          1           0        0.800841    1.377774   -1.303701
     17          1           0        1.196619    2.142057    0.200823
 ---------------------------------------------------------------------
 Rotational constants (GHZ):           4.5307521           4.3301842           2.4866105
 Standard basis: 6-31G(d,p) (6D, 7F)
 There are   145 symmetry adapted cartesian basis functions of A   symmetry.
 There are   145 symmetry adapted basis functions of A   symmetry.
   145 basis functions,   245 primitive gaussians,   145 cartesian basis functions
    24 alpha electrons       24 beta electrons
       nuclear repulsion energy       257.7573557598 Hartrees.
 NAtoms=   17 NActive=   17 NUniq=   17 SFac= 1.00D+00 NAtFMM=   60 NAOKFM=F Big=F
 Integral buffers will be    131072 words long.
 Raffenetti 2 integral format.
 Two-electron integral symmetry is turned on.
 Nuclear repulsion after empirical dispersion term =      257.7334347470 Hartrees.
 One-electron integrals computed using PRISM.
 NBasis=   145 RedAO= T EigKep=  4.25D-03  NBF=   145
 NBsUse=   145 1.00D-06 EigRej= -1.00D+00 NBFU=   145
 ExpMin= 1.61D-01 ExpMax= 4.17D+03 ExpMxC= 6.27D+02 IAcc=3 IRadAn=         5 AccDes= 0.00D+00
 Harris functional with IExCor=  402 and IRadAn=       5 diagonalized for initial guess.
 HarFok:  IExCor=  402 AccDes= 0.00D+00 IRadAn=         5 IDoV= 1 UseB2=F ITyADJ=14
 ICtDFT=  3500011 ScaDFX=  1.000000  1.000000  1.000000  1.000000
 FoFCou: FMM=F IPFlag=           0 FMFlag=      100000 FMFlg1=           0
         NFxFlg=           0 DoJE=T BraDBF=F KetDBF=T FulRan=T
         wScrn=  0.000000 ICntrl=       500 IOpCl=  0 I1Cent=   200000004 NGrid=           0
         NMat0=    1 NMatS0=      1 NMatT0=    0 NMatD0=    1 NMtDS0=    0 NMtDT0=    0
 Petite list used in FoFCou.
 Requested convergence on RMS density matrix=1.00D-08 within 128 cycles.
 Requested convergence on MAX density matrix=1.00D-06.
 Requested convergence on             energy=1.00D-06.
 No special actions if energy rises.
 Integral accuracy reduced to 1.0D-05 until final iterations.
 Initial convergence to 1.0D-05 achieved.  Increase integral accuracy.
 SCF Done:  E(RB3LYP) =  -251.942416831     A.U. after   12 cycles
            NFock= 12  Conv=0.38D-08     -V/T= 2.0098

 **********************************************************************

            Population analysis using the SCF Density.

 **********************************************************************

 Orbital symmetries:
       Occupied  (A) (A) (A) (A) (A) (A) (A) (A) (A) (A) (A) (A)
                 (A) (A) (A) (A) (A) (A) (A) (A) (A) (A) (A) (A)
       Virtual   (A) (A) (A) (A) (A) (A) (A) (A) (A) (A) (A) (A)
                 (A) (A) (A) (A) (A) (A) (A) (A) (A) (A) (A) (A)
                 (A) (A) (A) (A) (A) (A) (A) (A) (A) (A) (A) (A)
                 (A) (A) (A) (A) (A) (A) (A) (A) (A) (A) (A) (A)
                 (A) (A) (A) (A) (A) (A) (A) (A) (A) (A) (A) (A)
                 (A) (A) (A) (A) (A) (A) (A) (A) (A) (A) (A) (A)
                 (A) (A) (A) (A) (A) (A) (A) (A) (A) (A) (A) (A)
                 (A) (A) (A) (A) (A) (A) (A) (A) (A) (A) (A) (A)
                 (A) (A) (A) (A) (A) (A) (A) (A) (A) (A) (A) (A)
                 (A) (A) (A) (A) (A) (A) (A) (A) (A) (A) (A) (A)
                 (A)
 The electronic state is 1-A.
 Alpha  occ. eigenvalues --  -14.30380 -10.19785 -10.19784 -10.17535 -10.17312
 Alpha  occ. eigenvalues --  -10.17311  -0.89492  -0.77614  -0.74094  -0.62877
 Alpha  occ. eigenvalues --   -0.61470  -0.54356  -0.49936  -0.44717  -0.43777
 Alpha  occ. eigenvalues --   -0.41744  -0.40057  -0.39333  -0.37242  -0.34088
 Alpha  occ. eigenvalues --   -0.32326  -0.30621  -0.30598  -0.20561
 Alpha virt. eigenvalues --    0.08480   0.11740   0.13205   0.13878   0.15638
 Alpha virt. eigenvalues --    0.17034   0.17287   0.18405   0.18581   0.19228
 Alpha virt. eigenvalues --    0.19502   0.22829   0.23851   0.25573   0.26421
 Alpha virt. eigenvalues --    0.27654   0.29281   0.51842   0.52238   0.54910
 Alpha virt. eigenvalues --    0.55191   0.55777   0.58684   0.58999   0.63861
 Alpha virt. eigenvalues --    0.65637   0.67380   0.71123   0.72781   0.78191
 Alpha virt. eigenvalues --    0.79282   0.82266   0.82436   0.83025   0.84083
 Alpha virt. eigenvalues --    0.87754   0.88456   0.89259   0.90372   0.92887
 Alpha virt. eigenvalues --    0.93499   0.94724   0.95478   0.98655   1.00659
 Alpha virt. eigenvalues --    1.17048   1.18089   1.25587   1.28708   1.32400
 Alpha virt. eigenvalues --    1.36666   1.45654   1.49193   1.59680   1.62174
 Alpha virt. eigenvalues --    1.62565   1.66015   1.67948   1.73600   1.79814
 Alpha virt. eigenvalues --    1.84156   1.88064   1.88386   1.92360   1.92534
 Alpha virt. eigenvalues --    1.94614   1.96962   1.97803   2.09115   2.10901
 Alpha virt. eigenvalues --    2.11845   2.15520   2.16831   2.17725   2.18364
 Alpha virt. eigenvalues --    2.20484   2.28160   2.29411   2.32251   2.32484
 Alpha virt. eigenvalues --    2.36769   2.37477   2.39254   2.39654   2.45025
 Alpha virt. eigenvalues --    2.47131   2.53350   2.55729   2.60819   2.61205
 Alpha virt. eigenvalues --    2.65417   2.65525   2.69920   2.73573   2.80219
 Alpha virt. eigenvalues --    2.81308   2.85028   2.85332   2.88567   2.89668
 Alpha virt. eigenvalues --    2.93046   2.94424   2.96054   2.99150   3.23369
 Alpha virt. eigenvalues --    3.30982   3.31650   3.33749   3.35836   3.43091
 Alpha virt. eigenvalues --    3.48682   3.49618   3.50484   3.53161   3.58149
 Alpha virt. eigenvalues --    4.08208   4.32242   4.40548   4.59909   4.71335
 Alpha virt. eigenvalues --    4.72435
          Condensed to atoms (all electrons):
               1          2          3          4          5          6
     1  C    4.905613   0.382568  -0.038792  -0.010161  -0.038786   0.382572
     2  C    0.382568   4.913949   0.381844  -0.050242  -0.016416  -0.045107
     3  C   -0.038792   0.381844   4.794753   0.320574  -0.045817  -0.016413
     4  N   -0.010161  -0.050242   0.320574   6.817821   0.320548  -0.050231
     5  C   -0.038786  -0.016416  -0.045817   0.320548   4.794838   0.381836
     6  C    0.382572  -0.045107  -0.016413  -0.050231   0.381836   4.913929
     7  H    0.381112  -0.032173   0.004539  -0.000031   0.004539  -0.032174
     8  H    0.378162  -0.040103  -0.004012  -0.001003  -0.004013  -0.040099
     9  H   -0.034877   0.370354  -0.032411   0.003817   0.000256   0.005365
    10  H   -0.039448   0.376716  -0.036369   0.002554  -0.000699  -0.004070
    11  H    0.004699  -0.025131   0.383346  -0.037848   0.005408   0.000159
    12  H   -0.010308  -0.049336   0.365195  -0.061567  -0.006853  -0.000335
    13  H    0.000360   0.005477  -0.036008   0.340864  -0.036010   0.005475
    14  H    0.004698   0.000160   0.005405  -0.037835   0.383352  -0.025134
    15  H   -0.010306  -0.000336  -0.006847  -0.061555   0.365194  -0.049328
    16  H   -0.039445  -0.004070  -0.000699   0.002553  -0.036369   0.376718
    17  H   -0.034875   0.005365   0.000256   0.003817  -0.032418   0.370361
               7          8          9         10         11         12
     1  C    0.381112   0.378162  -0.034877  -0.039448   0.004699  -0.010308
     2  C   -0.032173  -0.040103   0.370354   0.376716  -0.025131  -0.049336
     3  C    0.004539  -0.004012  -0.032411  -0.036369   0.383346   0.365195
     4  N   -0.000031  -0.001003   0.003817   0.002554  -0.037848  -0.061567
     5  C    0.004539  -0.004013   0.000256  -0.000699   0.005408  -0.006853
     6  C   -0.032174  -0.040099   0.005365  -0.004070   0.000159  -0.000335
     7  H    0.638472  -0.039415  -0.002307  -0.005642  -0.000155  -0.000118
     8  H   -0.039415   0.647056  -0.005339   0.006198  -0.000107   0.005721
     9  H   -0.002307  -0.005339   0.650963  -0.037634  -0.001961  -0.001854
    10  H   -0.005642   0.006198  -0.037634   0.631701  -0.007026   0.007193
    11  H   -0.000155  -0.000107  -0.001961  -0.007026   0.640709  -0.050412
    12  H   -0.000118   0.005721  -0.001854   0.007193  -0.050412   0.725890
    13  H    0.000020  -0.000056  -0.000214  -0.000125  -0.003628  -0.004690
    14  H   -0.000155  -0.000107   0.000009  -0.000056  -0.000206  -0.000381
    15  H   -0.000118   0.005720   0.000071   0.000320  -0.000382   0.013938
    16  H   -0.005642   0.006198   0.000013   0.004484  -0.000056   0.000320
    17  H   -0.002308  -0.005338  -0.000195   0.000013   0.000009   0.000071
              13         14         15         16         17
     1  C    0.000360   0.004698  -0.010306  -0.039445  -0.034875
     2  C    0.005477   0.000160  -0.000336  -0.004070   0.005365
     3  C   -0.036008   0.005405  -0.006847  -0.000699   0.000256
     4  N    0.340864  -0.037835  -0.061555   0.002553   0.003817
     5  C   -0.036010   0.383352   0.365194  -0.036369  -0.032418
     6  C    0.005475  -0.025134  -0.049328   0.376718   0.370361
     7  H    0.000020  -0.000155  -0.000118  -0.005642  -0.002308
     8  H   -0.000056  -0.000107   0.005720   0.006198  -0.005338
     9  H   -0.000214   0.000009   0.000071   0.000013  -0.000195
    10  H   -0.000125  -0.000056   0.000320   0.004484   0.000013
    11  H   -0.003628  -0.000206  -0.000382  -0.000056   0.000009
    12  H   -0.004690  -0.000381   0.013938   0.000320   0.000071
    13  H    0.506189  -0.003626  -0.004687  -0.000125  -0.000214
    14  H   -0.003626   0.640649  -0.050393  -0.007024  -0.001960
    15  H   -0.004687  -0.050393   0.725812   0.007192  -0.001855
    16  H   -0.000125  -0.007024   0.007192   0.631707  -0.037640
    17  H   -0.000214  -0.001960  -0.001855  -0.037640   0.650957
 Mulliken charges:
               1
     1  C   -0.182785
     2  C   -0.173520
     3  C   -0.038545
     4  N   -0.502076
     5  C   -0.038590
     6  C   -0.173524
     7  H    0.091558
     8  H    0.090537
     9  H    0.085944
    10  H    0.101888
    11  H    0.092583
    12  H    0.067526
    13  H    0.230998
    14  H    0.092604
    15  H    0.067559
    16  H    0.101886
    17  H    0.085953
 Sum of Mulliken charges =  -0.00000
 Mulliken charges with hydrogens summed into heavy atoms:
               1
     1  C   -0.000689
     2  C    0.014313
     3  C    0.121564
     4  N   -0.271077
     5  C    0.121573
     6  C    0.014316
 Electronic spatial extent (au):  <R**2>=            571.4623
 Charge=             -0.0000 electrons
 Dipole moment (field-independent basis, Debye):
    X=             -0.1404    Y=              0.0005    Z=              0.8087  Tot=              0.8208
 Quadrupole moment (field-independent basis, Debye-Ang):
   XX=            -36.5827   YY=            -37.7649   ZZ=            -40.4248
   XY=             -0.0009   XZ=             -1.6289   YZ=              0.0004
 Traceless Quadrupole moment (field-independent basis, Debye-Ang):
   XX=              1.6748   YY=              0.4925   ZZ=             -2.1673
   XY=             -0.0009   XZ=             -1.6289   YZ=              0.0004
 Octapole moment (field-independent basis, Debye-Ang**2):
  XXX=            -11.3934  YYY=              0.0048  ZZZ=              0.1181  XYY=             -2.5517
  XXY=              0.0028  XXZ=              1.8014  XZZ=              1.6424  YZZ=              0.0000
  YYZ=             -1.4002  XYZ=             -0.0010
 Hexadecapole moment (field-independent basis, Debye-Ang**3):
 XXXX=           -311.0555 YYYY=           -338.2702 ZZZZ=            -90.6434 XXXY=             -0.0107
 XXXZ=             -4.1829 YYYX=             -0.0042 YYYZ=             -0.0039 ZZZX=             -2.0794
 ZZZY=              0.0013 XXYY=           -111.2402 XXZZ=            -75.4032 YYZZ=            -72.7743
 XXYZ=              0.0026 YYXZ=              2.7158 ZZXY=             -0.0003
 N-N= 2.577334347470D+02 E-N=-1.098868916909D+03  KE= 2.494980630103D+02
 Calling FoFJK, ICntrl=      2127 FMM=F ISym2X=0 I1Cent= 0 IOpClX= 0 NMat=1 NMatS=1 NMatT=0.
 ***** Axes restored to original set *****
 -------------------------------------------------------------------
 Center     Atomic                   Forces (Hartrees/Bohr)
 Number     Number              X              Y              Z
 -------------------------------------------------------------------
      1        6          -0.012529887    0.000185022   -0.007013258
      2        6          -0.000497725   -0.004180513    0.004717751
      3        6           0.000018219    0.010150178   -0.000320270
      4        7           0.004088931    0.005164894   -0.016914995
      5        6           0.002525666   -0.008423819   -0.005322732
      6        6          -0.001239991    0.001046293    0.006095056
      7        1           0.002470914    0.000762004   -0.001606090
      8        1          -0.000451865   -0.001244093    0.004438062
      9        1           0.001393514   -0.004667527    0.001845485
     10        1          -0.002448323    0.004829025   -0.002716527
     11        1          -0.001457376   -0.001091298   -0.001633950
     12        1           0.006887931   -0.006334271    0.008305973
     13        1          -0.001572502   -0.000539344    0.001192216
     14        1          -0.001811708    0.001379142   -0.000975379
     15        1           0.005638943    0.002915974    0.010781840
     16        1          -0.001353913   -0.003311261   -0.004881070
     17        1           0.000339170    0.003359596    0.004007888
 -------------------------------------------------------------------
 Cartesian Forces:  Max     0.016914995 RMS     0.005072673

 GradGradGradGradGradGradGradGradGradGradGradGradGradGradGradGradGradGrad
 Berny optimization.
 FormGI is forming the generalized inverse of G from B-inverse, IUseBI=4.
 Internal  Forces:  Max     0.010440685 RMS     0.002764061
 Search for a local minimum.
 Step number   1 out of a maximum of  102
 All quantities printed in internal units (Hartrees-Bohrs-Radians)
 Mixed Optimization -- RFO/linear search
 Second derivative matrix not updated -- first step.
 ITU=  0
     Eigenvalues ---    0.00483   0.00486   0.00972   0.01764   0.02190
     Eigenvalues ---    0.03172   0.03842   0.04198   0.04442   0.04814
     Eigenvalues ---    0.04815   0.05477   0.05779   0.05953   0.06607
     Eigenvalues ---    0.07770   0.08268   0.08274   0.08333   0.08476
     Eigenvalues ---    0.09244   0.09254   0.11872   0.12104   0.12495
     Eigenvalues ---    0.16214   0.16427   0.22052   0.27211   0.28035
     Eigenvalues ---    0.28180   0.28444   0.34572   0.34573   0.34627
     Eigenvalues ---    0.34635   0.34678   0.34689   0.34692   0.34731
     Eigenvalues ---    0.34794   0.34800   0.35275   0.35387   0.45629
 RFO step:  Lambda=-5.52982281D-03 EMin= 4.83044954D-03
 Linear search not attempted -- first point.
 Iteration  1 RMS(Cart)=  0.02713904 RMS(Int)=  0.00066623
 Iteration  2 RMS(Cart)=  0.00068744 RMS(Int)=  0.00031026
 Iteration  3 RMS(Cart)=  0.00000044 RMS(Int)=  0.00031026
 Variable       Old X    -DE/DX   Delta X   Delta X   Delta X     New X
                                 (Linear)    (Quad)   (Total)
    R1        2.90459  -0.00299   0.00000  -0.00665  -0.00646   2.89812
    R2        2.90453  -0.00298   0.00000  -0.00663  -0.00644   2.89809
    R3        2.06115   0.00304   0.00000   0.00861   0.00861   2.06975
    R4        2.06202   0.00436   0.00000   0.01237   0.01237   2.07438
    R5        2.91176  -0.00766   0.00000  -0.02650  -0.02651   2.88525
    R6        2.06011   0.00475   0.00000   0.01343   0.01343   2.07355
    R7        2.06178   0.00355   0.00000   0.01006   0.01006   2.07184
    R8        2.76814   0.00033   0.00000  -0.00199  -0.00217   2.76597
    R9        2.06284   0.00227   0.00000   0.00645   0.00645   2.06929
   R10        2.06376   0.01044   0.00000   0.02972   0.02972   2.09348
   R11        2.76847   0.00025   0.00000  -0.00222  -0.00240   2.76607
   R12        1.91252   0.00198   0.00000   0.00429   0.00429   1.91680
   R13        2.91182  -0.00767   0.00000  -0.02655  -0.02656   2.88526
   R14        2.06272   0.00230   0.00000   0.00655   0.00655   2.06927
   R15        2.06373   0.01044   0.00000   0.02972   0.02972   2.09346
   R16        2.06182   0.00353   0.00000   0.01002   0.01002   2.07184
   R17        2.06001   0.00478   0.00000   0.01353   0.01353   2.07354
    A1        1.90969   0.00305   0.00000   0.02290   0.02271   1.93240
    A2        1.93002  -0.00125   0.00000  -0.00473  -0.00471   1.92531
    A3        1.91553  -0.00081   0.00000  -0.00943  -0.00930   1.90623
    A4        1.93003  -0.00126   0.00000  -0.00473  -0.00472   1.92531
    A5        1.91561  -0.00081   0.00000  -0.00948  -0.00936   1.90625
    A6        1.86253   0.00098   0.00000   0.00458   0.00449   1.86702
    A7        1.95985  -0.00171   0.00000  -0.02202  -0.02261   1.93723
    A8        1.91247   0.00247   0.00000   0.02394   0.02422   1.93669
    A9        1.93771  -0.00183   0.00000  -0.02216  -0.02275   1.91496
   A10        1.90620  -0.00099   0.00000   0.00086   0.00111   1.90732
   A11        1.90645   0.00088   0.00000  -0.00905  -0.00975   1.89670
   A12        1.83696   0.00137   0.00000   0.03219   0.03233   1.86928
   A13        1.93835  -0.00045   0.00000  -0.01920  -0.01991   1.91844
   A14        1.91905  -0.00009   0.00000  -0.00868  -0.00896   1.91009
   A15        1.92319  -0.00386   0.00000  -0.02492  -0.02467   1.89852
   A16        1.90297  -0.00121   0.00000  -0.01548  -0.01567   1.88730
   A17        1.90879   0.00538   0.00000   0.06689   0.06706   1.97585
   A18        1.87011   0.00031   0.00000   0.00269   0.00229   1.87240
   A19        1.98141  -0.00110   0.00000  -0.02231  -0.02401   1.95741
   A20        1.92668  -0.00083   0.00000  -0.01683  -0.01724   1.90944
   A21        1.92650  -0.00082   0.00000  -0.01672  -0.01713   1.90937
   A22        1.93826  -0.00043   0.00000  -0.01913  -0.01984   1.91842
   A23        1.90297  -0.00122   0.00000  -0.01552  -0.01571   1.88726
   A24        1.90869   0.00538   0.00000   0.06691   0.06708   1.97577
   A25        1.91905  -0.00009   0.00000  -0.00866  -0.00893   1.91012
   A26        1.92319  -0.00386   0.00000  -0.02490  -0.02465   1.89854
   A27        1.87030   0.00031   0.00000   0.00259   0.00219   1.87250
   A28        1.95988  -0.00170   0.00000  -0.02205  -0.02264   1.93724
   A29        1.93772  -0.00183   0.00000  -0.02216  -0.02276   1.91497
   A30        1.91255   0.00246   0.00000   0.02388   0.02416   1.93671
   A31        1.90641   0.00088   0.00000  -0.00903  -0.00972   1.89668
   A32        1.90616  -0.00098   0.00000   0.00090   0.00115   1.90731
   A33        1.83691   0.00137   0.00000   0.03222   0.03236   1.86927
    D1       -0.90873  -0.00043   0.00000  -0.00108  -0.00130  -0.91003
    D2       -3.03030   0.00025   0.00000  -0.00419  -0.00418  -3.03448
    D3        1.23123  -0.00184   0.00000  -0.04488  -0.04472   1.18651
    D4       -3.03876  -0.00006   0.00000  -0.00728  -0.00746  -3.04622
    D5        1.12286   0.00061   0.00000  -0.01039  -0.01034   1.11251
    D6       -0.89880  -0.00148   0.00000  -0.05108  -0.05088  -0.94969
    D7        1.19421  -0.00002   0.00000  -0.00430  -0.00454   1.18966
    D8       -0.92736   0.00066   0.00000  -0.00741  -0.00742  -0.93478
    D9       -2.94902  -0.00143   0.00000  -0.04810  -0.04797  -2.99698
   D10        0.90875   0.00042   0.00000   0.00108   0.00130   0.91005
   D11       -1.23119   0.00184   0.00000   0.04488   0.04471  -1.18647
   D12        3.03034  -0.00025   0.00000   0.00418   0.00417   3.03451
   D13        3.03877   0.00006   0.00000   0.00728   0.00747   3.04624
   D14        0.89884   0.00148   0.00000   0.05108   0.05088   0.94972
   D15       -1.12282  -0.00061   0.00000   0.01038   0.01034  -1.11249
   D16       -1.19415   0.00001   0.00000   0.00427   0.00451  -1.18964
   D17        2.94911   0.00143   0.00000   0.04806   0.04792   2.99703
   D18        0.92745  -0.00066   0.00000   0.00736   0.00738   0.93482
   D19        0.94866   0.00032   0.00000   0.02919   0.02895   0.97761
   D20        3.05645  -0.00155   0.00000  -0.00851  -0.00857   3.04788
   D21       -1.16921  -0.00356   0.00000  -0.02558  -0.02550  -1.19471
   D22        3.07381   0.00163   0.00000   0.04554   0.04534   3.11914
   D23       -1.10159  -0.00024   0.00000   0.00783   0.00782  -1.09378
   D24        0.95594  -0.00225   0.00000  -0.00924  -0.00911   0.94682
   D25       -1.20886   0.00321   0.00000   0.07940   0.07912  -1.12974
   D26        0.89892   0.00134   0.00000   0.04170   0.04160   0.94052
   D27        2.95645  -0.00068   0.00000   0.02463   0.02467   2.98112
   D28       -0.98801  -0.00242   0.00000  -0.08276  -0.08233  -1.07034
   D29        3.12146   0.00015   0.00000  -0.03067  -0.03047   3.09099
   D30       -3.10524  -0.00122   0.00000  -0.04945  -0.04934   3.12860
   D31        1.00423   0.00135   0.00000   0.00264   0.00253   1.00675
   D32        1.13829  -0.00394   0.00000  -0.08165  -0.08173   1.05656
   D33       -1.03543  -0.00137   0.00000  -0.02956  -0.02986  -1.06529
   D34        0.98796   0.00242   0.00000   0.08281   0.08238   1.07034
   D35        3.10514   0.00123   0.00000   0.04955   0.04943  -3.12861
   D36       -1.13822   0.00394   0.00000   0.08162   0.08170  -1.05652
   D37       -3.12142  -0.00015   0.00000   0.03066   0.03046  -3.09095
   D38       -1.00423  -0.00135   0.00000  -0.00259  -0.00248  -1.00671
   D39        1.03560   0.00136   0.00000   0.02948   0.02978   1.06538
   D40       -0.94860  -0.00033   0.00000  -0.02926  -0.02902  -0.97762
   D41        1.20893  -0.00321   0.00000  -0.07948  -0.07920   1.12974
   D42       -3.07384  -0.00163   0.00000  -0.04554  -0.04534  -3.11918
   D43       -3.05632   0.00154   0.00000   0.00843   0.00849  -3.04784
   D44       -0.89879  -0.00134   0.00000  -0.04179  -0.04169  -0.94048
   D45        1.10162   0.00024   0.00000  -0.00785  -0.00783   1.09379
   D46        1.16909   0.00356   0.00000   0.02560   0.02551   1.19460
   D47       -2.95657   0.00068   0.00000  -0.02462  -0.02466  -2.98123
   D48       -0.95615   0.00226   0.00000   0.00932   0.00919  -0.94696
         Item               Value     Threshold  Converged?
 Maximum Force            0.010441     0.000450     NO 
 RMS     Force            0.002764     0.000300     NO 
 Maximum Displacement     0.114947     0.001800     NO 
 RMS     Displacement     0.027344     0.001200     NO 
 Predicted change in Energy=-2.998389D-03
 GradGradGradGradGradGradGradGradGradGradGradGradGradGradGradGradGradGrad

                          Input orientation:                          
 ---------------------------------------------------------------------
 Center     Atomic      Atomic             Coordinates (Angstroms)
 Number     Number       Type             X           Y           Z
 ---------------------------------------------------------------------
      1          6           0        1.377248    0.185708   -0.003174
      2          6           0        0.737271   -1.039512   -0.667447
      3          6           0       -0.633298   -1.335847   -0.063403
      4          7           0       -1.491139   -0.154685   -0.169937
      5          6           0       -0.945623    0.991200    0.559376
      6          6           0        0.412804    1.377972   -0.020482
      7          1           0        2.313365    0.446558   -0.508396
      8          1           0        1.631435   -0.058403    1.036431
      9          1           0        1.378726   -1.923429   -0.561459
     10          1           0        0.615367   -0.856535   -1.741544
     11          1           0       -1.107211   -2.152412   -0.618114
     12          1           0       -0.495818   -1.682898    0.979635
     13          1           0       -2.413708   -0.374711    0.189672
     14          1           0       -1.641633    1.829104    0.447418
     15          1           0       -0.829413    0.802578    1.644806
     16          1           0        0.269161    1.722657   -1.051302
     17          1           0        0.822266    2.222456    0.548021
 ---------------------------------------------------------------------
                    Distance matrix (angstroms):
                    1          2          3          4          5
     1  C    0.000000
     2  C    1.533621   0.000000
     3  C    2.522113   1.526809   0.000000
     4  N    2.893324   2.448723   1.463687   0.000000
     5  C    2.522105   2.908784   2.429104   1.463741   0.000000
     6  C    1.533605   2.523504   2.908777   2.448750   1.526812
     7  H    1.095265   2.172043   3.472435   3.866561   3.472431
     8  H    1.097716   2.159931   2.823210   3.348889   2.823204
     9  H    2.181776   1.097273   2.154427   3.393798   3.892806
    10  H    2.165333   1.096369   2.145941   2.720277   3.338421
    11  H    3.466626   2.154785   1.095023   2.083068   3.360787
    12  H    2.822407   2.155767   1.107824   2.155832   2.744037
    13  H    3.837005   3.332459   2.039040   1.014329   2.039036
    14  H    3.466616   3.889867   3.360742   2.083073   1.095010
    15  H    2.822361   3.345790   2.743957   2.155812   1.107809
    16  H    2.165326   2.827728   3.338386   2.720271   2.145930
    17  H    2.181780   3.482100   3.892817   3.393833   2.154426
                    6          7          8          9         10
     6  C    0.000000
     7  H    2.172032   0.000000
     8  H    2.159931   1.762528   0.000000
     9  H    3.482085   2.548177   2.468894   0.000000
    10  H    2.827740   2.470203   3.063749   1.764534   0.000000
    11  H    3.889887   4.297327   3.823947   2.497103   2.430775
    12  H    3.345856   3.826267   2.677202   2.438594   3.053264
    13  H    3.332452   4.848402   4.144904   4.164766   3.624506
    14  H    2.154800   4.297328   3.823950   4.921576   4.135004
    15  H    2.155775   3.826236   2.677159   4.144224   4.038244
    16  H    1.096372   2.470211   3.063755   3.842528   2.692308
    17  H    1.097272   2.548178   2.468931   4.327697   3.842539
                   11         12         13         14         15
    11  H    0.000000
    12  H    1.773992   0.000000
    13  H    2.349398   2.452283   0.000000
    14  H    4.156132   3.732332   2.349326   0.000000
    15  H    3.732284   2.594480   2.452226   1.774034   0.000000
    16  H    4.134998   4.038279   3.624466   2.430767   3.053262
    17  H    4.921607   4.144324   4.164759   2.497127   2.438654
                   16         17
    16  H    0.000000
    17  H    1.764528   0.000000
 Stoichiometry    C5H11N
 Framework group  C1[X(C5H11N)]
 Deg. of freedom    45
 Full point group                 C1      NOp   1
 Largest Abelian subgroup         C1      NOp   1
 Largest concise Abelian subgroup C1      NOp   1
                         Standard orientation:                         
 ---------------------------------------------------------------------
 Center     Atomic      Atomic             Coordinates (Angstroms)
 Number     Number       Type             X           Y           Z
 ---------------------------------------------------------------------
      1          6           0        0.004281   -1.459078    0.230361
      2          6           0       -1.259654   -0.717794   -0.222364
      3          6           0       -1.216737    0.747612    0.204118
      4          7           0       -0.004065    1.382515   -0.314251
      5          6           0        1.212357    0.754714    0.204134
      6          6           0        1.263839   -0.710414   -0.222365
      7          1           0        0.007269   -2.481088   -0.163456
      8          1           0        0.004502   -1.537583    1.325266
      9          1           0       -2.160365   -1.189121    0.190646
     10          1           0       -1.343931   -0.763196   -1.314546
     11          1           0       -2.081818    1.273951   -0.212629
     12          1           0       -1.299629    0.800438    1.307572
     13          1           0       -0.006907    2.366341   -0.067386
     14          1           0        2.074296    1.286139   -0.212635
     15          1           0        1.294840    0.808029    1.307580
     16          1           0        1.348365   -0.755289   -1.314552
     17          1           0        2.167313   -1.176459    0.190605
 ---------------------------------------------------------------------
 Rotational constants (GHZ):           4.5176044           4.4339747           2.5306053
 Standard basis: 6-31G(d,p) (6D, 7F)
 There are   145 symmetry adapted cartesian basis functions of A   symmetry.
 There are   145 symmetry adapted basis functions of A   symmetry.
   145 basis functions,   245 primitive gaussians,   145 cartesian basis functions
    24 alpha electrons       24 beta electrons
       nuclear repulsion energy       258.7767793034 Hartrees.
 NAtoms=   17 NActive=   17 NUniq=   17 SFac= 1.00D+00 NAtFMM=   60 NAOKFM=F Big=F
 Integral buffers will be    131072 words long.
 Raffenetti 2 integral format.
 Two-electron integral symmetry is turned on.
 Nuclear repulsion after empirical dispersion term =      258.7526956361 Hartrees.
 One-electron integrals computed using PRISM.
 NBasis=   145 RedAO= T EigKep=  3.99D-03  NBF=   145
 NBsUse=   145 1.00D-06 EigRej= -1.00D+00 NBFU=   145
 Initial guess from the checkpoint file:  "SecN2_conf-1.chk"
 B after Tr=     0.000000    0.000000    0.000000
         Rot=    0.708259   -0.001594   -0.001595    0.705949 Ang= -89.81 deg.
 ExpMin= 1.61D-01 ExpMax= 4.17D+03 ExpMxC= 6.27D+02 IAcc=3 IRadAn=         5 AccDes= 0.00D+00
 Harris functional with IExCor=  402 and IRadAn=       5 diagonalized for initial guess.
 HarFok:  IExCor=  402 AccDes= 0.00D+00 IRadAn=         5 IDoV= 1 UseB2=F ITyADJ=14
 ICtDFT=  3500011 ScaDFX=  1.000000  1.000000  1.000000  1.000000
 FoFCou: FMM=F IPFlag=           0 FMFlag=      100000 FMFlg1=           0
         NFxFlg=           0 DoJE=T BraDBF=F KetDBF=T FulRan=T
         wScrn=  0.000000 ICntrl=       500 IOpCl=  0 I1Cent=   200000004 NGrid=           0
         NMat0=    1 NMatS0=      1 NMatT0=    0 NMatD0=    1 NMtDS0=    0 NMtDT0=    0
 Petite list used in FoFCou.
 Requested convergence on RMS density matrix=1.00D-08 within 128 cycles.
 Requested convergence on MAX density matrix=1.00D-06.
 Requested convergence on             energy=1.00D-06.
 No special actions if energy rises.
 Integral accuracy reduced to 1.0D-05 until final iterations.
 Initial convergence to 1.0D-05 achieved.  Increase integral accuracy.
 SCF Done:  E(RB3LYP) =  -251.945072024     A.U. after   11 cycles
            NFock= 11  Conv=0.22D-08     -V/T= 2.0099
 Calling FoFJK, ICntrl=      2127 FMM=F ISym2X=0 I1Cent= 0 IOpClX= 0 NMat=1 NMatS=1 NMatT=0.
 ***** Axes restored to original set *****
 -------------------------------------------------------------------
 Center     Atomic                   Forces (Hartrees/Bohr)
 Number     Number              X              Y              Z
 -------------------------------------------------------------------
      1        6           0.000210710    0.000242309   -0.000823895
      2        6           0.001766329   -0.001030664   -0.000872460
      3        6          -0.001509133   -0.001096779   -0.001840392
      4        7           0.002504141   -0.000019136    0.001415752
      5        6          -0.001853615    0.001413133   -0.001181986
      6        6           0.001388134    0.001733691   -0.000135980
      7        1           0.000773484   -0.000057561    0.000603162
      8        1           0.000133854   -0.000180222    0.000744341
      9        1           0.000344515    0.001035617    0.000128111
     10        1          -0.000411284    0.000785115   -0.000064005
     11        1          -0.000704394   -0.000879117    0.000915078
     12        1          -0.000386029    0.000952252    0.000723650
     13        1          -0.001716026   -0.000208281   -0.000098008
     14        1          -0.000839233    0.000118358    0.001184974
     15        1          -0.000092539   -0.001237957    0.000142650
     16        1          -0.000207269   -0.000726941   -0.000467492
     17        1           0.000598355   -0.000843818   -0.000373501
 -------------------------------------------------------------------
 Cartesian Forces:  Max     0.002504141 RMS     0.000976020

 GradGradGradGradGradGradGradGradGradGradGradGradGradGradGradGradGradGrad
 Berny optimization.
 Using GEDIIS/GDIIS optimizer.
 FormGI is forming the generalized inverse of G from B-inverse, IUseBI=4.
 Internal  Forces:  Max     0.002398483 RMS     0.000543531
 Search for a local minimum.
 Step number   2 out of a maximum of  102
 All quantities printed in internal units (Hartrees-Bohrs-Radians)
 Mixed Optimization -- En-DIIS/RFO-DIIS
 Update second derivatives using D2CorX and points    1    2
 DE= -2.66D-03 DEPred=-3.00D-03 R= 8.86D-01
 TightC=F SS=  1.41D+00  RLast= 3.13D-01 DXNew= 5.0454D-01 9.3792D-01
 Trust test= 8.86D-01 RLast= 3.13D-01 DXMaxT set to 5.05D-01
 ITU=  1  0
 Use linear search instead of GDIIS.
     Eigenvalues ---    0.00483   0.00506   0.01003   0.01833   0.02245
     Eigenvalues ---    0.03275   0.03958   0.04356   0.04664   0.04977
     Eigenvalues ---    0.05075   0.05517   0.05882   0.06143   0.06427
     Eigenvalues ---    0.07962   0.07997   0.08010   0.08132   0.08169
     Eigenvalues ---    0.09018   0.09429   0.11676   0.12016   0.12709
     Eigenvalues ---    0.15920   0.16282   0.22075   0.27192   0.28026
     Eigenvalues ---    0.28113   0.29770   0.33551   0.34573   0.34630
     Eigenvalues ---    0.34642   0.34666   0.34689   0.34691   0.34726
     Eigenvalues ---    0.34797   0.35040   0.35229   0.35271   0.45599
 RFO step:  Lambda=-3.86214520D-04 EMin= 4.82707302D-03
 Quartic linear search produced a step of -0.04383.
 Iteration  1 RMS(Cart)=  0.01521032 RMS(Int)=  0.00015264
 Iteration  2 RMS(Cart)=  0.00015545 RMS(Int)=  0.00002631
 Iteration  3 RMS(Cart)=  0.00000001 RMS(Int)=  0.00002631
 Variable       Old X    -DE/DX   Delta X   Delta X   Delta X     New X
                                 (Linear)    (Quad)   (Total)
    R1        2.89812   0.00028   0.00028   0.00004   0.00030   2.89842
    R2        2.89809   0.00029   0.00028   0.00006   0.00032   2.89842
    R3        2.06975   0.00037  -0.00038   0.00176   0.00139   2.07114
    R4        2.07438   0.00078  -0.00054   0.00321   0.00267   2.07705
    R5        2.88525   0.00240   0.00116   0.00572   0.00688   2.89213
    R6        2.07355  -0.00062  -0.00059  -0.00053  -0.00112   2.07243
    R7        2.07184   0.00024  -0.00044   0.00153   0.00109   2.07293
    R8        2.76597  -0.00000   0.00010   0.00007   0.00019   2.76616
    R9        2.06929   0.00050  -0.00028   0.00193   0.00165   2.07094
   R10        2.09348   0.00034  -0.00130   0.00351   0.00221   2.09570
   R11        2.76607  -0.00002   0.00011  -0.00001   0.00012   2.76619
   R12        1.91680   0.00157  -0.00019   0.00365   0.00347   1.92027
   R13        2.88526   0.00240   0.00116   0.00572   0.00688   2.89214
   R14        2.06927   0.00050  -0.00029   0.00195   0.00167   2.07093
   R15        2.09346   0.00034  -0.00130   0.00353   0.00223   2.09568
   R16        2.07184   0.00024  -0.00044   0.00153   0.00109   2.07293
   R17        2.07354  -0.00062  -0.00059  -0.00052  -0.00111   2.07243
    A1        1.93240  -0.00014  -0.00100  -0.00377  -0.00484   1.92756
    A2        1.92531   0.00017   0.00021   0.00503   0.00527   1.93057
    A3        1.90623   0.00003   0.00041  -0.00182  -0.00141   1.90482
    A4        1.92531   0.00017   0.00021   0.00503   0.00527   1.93058
    A5        1.90625   0.00003   0.00041  -0.00184  -0.00143   1.90482
    A6        1.86702  -0.00025  -0.00020  -0.00271  -0.00291   1.86411
    A7        1.93723   0.00017   0.00099  -0.00705  -0.00609   1.93115
    A8        1.93669  -0.00078  -0.00106  -0.00224  -0.00328   1.93341
    A9        1.91496  -0.00006   0.00100  -0.00490  -0.00389   1.91107
   A10        1.90732   0.00052  -0.00005   0.00781   0.00776   1.91508
   A11        1.89670  -0.00015   0.00043  -0.00178  -0.00135   1.89535
   A12        1.86928   0.00031  -0.00142   0.00874   0.00730   1.87658
   A13        1.91844  -0.00006   0.00087  -0.00553  -0.00470   1.91375
   A14        1.91009   0.00075   0.00039   0.01312   0.01351   1.92360
   A15        1.89852   0.00031   0.00108  -0.00384  -0.00285   1.89567
   A16        1.88730   0.00011   0.00069   0.00646   0.00716   1.89446
   A17        1.97585  -0.00086  -0.00294  -0.00845  -0.01145   1.96439
   A18        1.87240  -0.00021  -0.00010  -0.00072  -0.00078   1.87161
   A19        1.95741   0.00031   0.00105  -0.00406  -0.00295   1.95445
   A20        1.90944  -0.00006   0.00076   0.00083   0.00161   1.91105
   A21        1.90937  -0.00006   0.00075   0.00088   0.00166   1.91102
   A22        1.91842  -0.00006   0.00087  -0.00551  -0.00468   1.91374
   A23        1.88726   0.00011   0.00069   0.00649   0.00718   1.89444
   A24        1.97577  -0.00085  -0.00294  -0.00840  -0.01140   1.96437
   A25        1.91012   0.00075   0.00039   0.01310   0.01349   1.92361
   A26        1.89854   0.00031   0.00108  -0.00385  -0.00286   1.89568
   A27        1.87250  -0.00021  -0.00010  -0.00080  -0.00086   1.87164
   A28        1.93724   0.00017   0.00099  -0.00705  -0.00609   1.93115
   A29        1.91497  -0.00006   0.00100  -0.00490  -0.00389   1.91107
   A30        1.93671  -0.00078  -0.00106  -0.00226  -0.00330   1.93341
   A31        1.89668  -0.00015   0.00043  -0.00176  -0.00134   1.89535
   A32        1.90731   0.00052  -0.00005   0.00782   0.00776   1.91508
   A33        1.86927   0.00031  -0.00142   0.00875   0.00731   1.87658
    D1       -0.91003   0.00009   0.00006  -0.01819  -0.01812  -0.92815
    D2       -3.03448  -0.00015   0.00018  -0.02175  -0.02157  -3.05605
    D3        1.18651  -0.00003   0.00196  -0.02809  -0.02613   1.16037
    D4       -3.04622  -0.00014   0.00033  -0.02544  -0.02510  -3.07132
    D5        1.11251  -0.00039   0.00045  -0.02900  -0.02854   1.08397
    D6       -0.94969  -0.00026   0.00223  -0.03534  -0.03311  -0.98279
    D7        1.18966   0.00005   0.00020  -0.02399  -0.02378   1.16588
    D8       -0.93478  -0.00019   0.00033  -0.02755  -0.02723  -0.96201
    D9       -2.99698  -0.00007   0.00210  -0.03389  -0.03179  -3.02878
   D10        0.91005  -0.00009  -0.00006   0.01817   0.01811   0.92815
   D11       -1.18647   0.00002  -0.00196   0.02806   0.02610  -1.16037
   D12        3.03451   0.00015  -0.00018   0.02172   0.02154   3.05605
   D13        3.04624   0.00014  -0.00033   0.02542   0.02508   3.07132
   D14        0.94972   0.00026  -0.00223   0.03531   0.03308   0.98280
   D15       -1.11249   0.00039  -0.00045   0.02897   0.02852  -1.08397
   D16       -1.18964  -0.00005  -0.00020   0.02396   0.02376  -1.16588
   D17        2.99703   0.00006  -0.00210   0.03385   0.03175   3.02878
   D18        0.93482   0.00019  -0.00032   0.02751   0.02719   0.96202
   D19        0.97761  -0.00018  -0.00127   0.01412   0.01285   0.99046
   D20        3.04788   0.00037   0.00038   0.02663   0.02702   3.07490
   D21       -1.19471   0.00072   0.00112   0.03094   0.03205  -1.16266
   D22        3.11914  -0.00070  -0.00199   0.01194   0.00994   3.12909
   D23       -1.09378  -0.00014  -0.00034   0.02446   0.02411  -1.06967
   D24        0.94682   0.00021   0.00040   0.02877   0.02914   0.97596
   D25       -1.12974  -0.00012  -0.00347   0.02571   0.02225  -1.10749
   D26        0.94052   0.00043  -0.00182   0.03823   0.03642   0.97695
   D27        2.98112   0.00078  -0.00108   0.04254   0.04145   3.02258
   D28       -1.07034   0.00022   0.00361  -0.01283  -0.00927  -1.07961
   D29        3.09099   0.00013   0.00134  -0.01183  -0.01053   3.08047
   D30        3.12860  -0.00072   0.00216  -0.02940  -0.02726   3.10134
   D31        1.00675  -0.00081  -0.00011  -0.02840  -0.02851   0.97824
   D32        1.05656  -0.00002   0.00358  -0.02768  -0.02406   1.03250
   D33       -1.06529  -0.00011   0.00131  -0.02668  -0.02532  -1.09061
   D34        1.07034  -0.00022  -0.00361   0.01283   0.00927   1.07961
   D35       -3.12861   0.00072  -0.00217   0.02941   0.02726  -3.10135
   D36       -1.05652   0.00002  -0.00358   0.02764   0.02402  -1.03250
   D37       -3.09095  -0.00014  -0.00134   0.01180   0.01050  -3.08046
   D38       -1.00671   0.00081   0.00011   0.02837   0.02849  -0.97823
   D39        1.06538   0.00010  -0.00131   0.02660   0.02525   1.09062
   D40       -0.97762   0.00018   0.00127  -0.01411  -0.01284  -0.99045
   D41        1.12974   0.00012   0.00347  -0.02570  -0.02224   1.10749
   D42       -3.11918   0.00070   0.00199  -0.01191  -0.00991  -3.12908
   D43       -3.04784  -0.00037  -0.00037  -0.02665  -0.02703  -3.07487
   D44       -0.94048  -0.00044   0.00183  -0.03825  -0.03644  -0.97692
   D45        1.09379   0.00014   0.00034  -0.02445  -0.02410   1.06969
   D46        1.19460  -0.00072  -0.00112  -0.03085  -0.03196   1.16264
   D47       -2.98123  -0.00078   0.00108  -0.04245  -0.04137  -3.02260
   D48       -0.94696  -0.00020  -0.00040  -0.02865  -0.02903  -0.97599
         Item               Value     Threshold  Converged?
 Maximum Force            0.002398     0.000450     NO 
 RMS     Force            0.000544     0.000300     NO 
 Maximum Displacement     0.049069     0.001800     NO 
 RMS     Displacement     0.015233     0.001200     NO 
 Predicted change in Energy=-2.038370D-04
 GradGradGradGradGradGradGradGradGradGradGradGradGradGradGradGradGradGrad

                          Input orientation:                          
 ---------------------------------------------------------------------
 Center     Atomic      Atomic             Coordinates (Angstroms)
 Number     Number       Type             X           Y           Z
 ---------------------------------------------------------------------
      1          6           0        1.376413    0.184215    0.001957
      2          6           0        0.738014   -1.035569   -0.674099
      3          6           0       -0.633373   -1.334516   -0.064009
      4          7           0       -1.490084   -0.152917   -0.175998
      5          6           0       -0.945420    0.990350    0.558174
      6          6           0        0.414048    1.378123   -0.028144
      7          1           0        2.325377    0.441214   -0.482430
      8          1           0        1.610004   -0.064078    1.046881
      9          1           0        1.385133   -1.915897   -0.579388
     10          1           0        0.608335   -0.834687   -1.744671
     11          1           0       -1.112158   -2.163930   -0.596759
     12          1           0       -0.490299   -1.658053    0.987048
     13          1           0       -2.417542   -0.371814    0.176838
     14          1           0       -1.647848    1.827024    0.471290
     15          1           0       -0.817496    0.779594    1.639410
     16          1           0        0.267559    1.704219   -1.065205
     17          1           0        0.829137    2.226522    0.529206
 ---------------------------------------------------------------------
                    Distance matrix (angstroms):
                    1          2          3          4          5
     1  C    0.000000
     2  C    1.533779   0.000000
     3  C    2.519948   1.530451   0.000000
     4  N    2.891734   2.447774   1.463787   0.000000
     5  C    2.519948   2.908057   2.426827   1.463806   0.000000
     6  C    1.533776   2.519548   2.908057   2.447788   1.530454
     7  H    1.095998   2.176545   3.475989   3.873582   3.475992
     8  H    1.099127   2.160077   2.807282   3.333747   2.807284
     9  H    2.179107   1.096682   2.162865   3.396718   3.895099
    10  H    2.163056   1.096948   2.148556   2.707196   3.323855
    11  H    3.473504   2.168482   1.095894   2.089029   3.363206
    12  H    2.801601   2.157695   1.108994   2.148879   2.721233
    13  H    3.838469   3.334996   2.041583   1.016163   2.041581
    14  H    3.473507   3.898550   3.363190   2.089029   1.095892
    15  H    2.801600   3.326673   2.721213   2.148873   1.108987
    16  H    2.163054   2.807264   3.323851   2.707204   2.148555
    17  H    2.179110   3.478144   3.895104   3.396738   2.162871
                    6          7          8          9         10
     6  C    0.000000
     7  H    2.176546   0.000000
     8  H    2.160077   1.762347   0.000000
     9  H    3.478138   2.539573   2.474783   0.000000
    10  H    2.807266   2.483829   3.064301   1.769270   0.000000
    11  H    3.898560   4.314683   3.810656   2.509638   2.458595
    12  H    3.326684   3.807140   2.637349   2.457122   3.057322
    13  H    3.334996   4.857049   4.131925   4.173297   3.614192
    14  H    2.168493   4.314693   3.810666   4.930757   4.133468
    15  H    2.157701   3.807145   2.637353   4.127991   4.011347
    16  H    1.096948   2.483833   3.064301   3.819716   2.650254
    17  H    1.096685   2.539580   2.474791   4.324090   3.819722
                   11         12         13         14         15
    11  H    0.000000
    12  H    1.775124   0.000000
    13  H    2.348225   2.454612   0.000000
    14  H    4.165982   3.708327   2.348195   0.000000
    15  H    3.708317   2.544555   2.454588   1.775133   0.000000
    16  H    4.133478   4.011355   3.614188   2.458594   3.057322
    17  H    4.930770   4.128008   4.173300   2.509663   2.457143
                   16         17
    16  H    0.000000
    17  H    1.769271   0.000000
 Stoichiometry    C5H11N
 Framework group  C1[X(C5H11N)]
 Deg. of freedom    45
 Full point group                 C1      NOp   1
 Largest Abelian subgroup         C1      NOp   1
 Largest concise Abelian subgroup C1      NOp   1
                         Standard orientation:                         
 ---------------------------------------------------------------------
 Center     Atomic      Atomic             Coordinates (Angstroms)
 Number     Number       Type             X           Y           Z
 ---------------------------------------------------------------------
      1          6           0        1.456978   -0.000797    0.236260
      2          6           0        0.714853   -1.260165   -0.228198
      3          6           0       -0.752042   -1.212998    0.205709
      4          7           0       -1.381275    0.000750   -0.317315
      5          6           0       -0.750710    1.213829    0.205710
      6          6           0        0.716239    1.259383   -0.228196
      7          1           0        2.488033   -0.001367   -0.135409
      8          1           0        1.514839   -0.000832    1.333864
      9          1           0        1.190903   -2.162695    0.173706
     10          1           0        0.754019   -1.325539   -1.322496
     11          1           0       -1.291327   -2.082290   -0.187341
     12          1           0       -0.795931   -1.271848    1.312270
     13          1           0       -2.368667    0.001305   -0.077226
     14          1           0       -1.289057    2.083691   -0.187354
     15          1           0       -0.794547    1.272706    1.312266
     16          1           0        0.755472    1.324714   -1.322493
     17          1           0        1.193282    2.161394    0.173705
 ---------------------------------------------------------------------
 Rotational constants (GHZ):           4.5263077           4.4280087           2.5361582
 Standard basis: 6-31G(d,p) (6D, 7F)
 There are   145 symmetry adapted cartesian basis functions of A   symmetry.
 There are   145 symmetry adapted basis functions of A   symmetry.
   145 basis functions,   245 primitive gaussians,   145 cartesian basis functions
    24 alpha electrons       24 beta electrons
       nuclear repulsion energy       258.7916186429 Hartrees.
 NAtoms=   17 NActive=   17 NUniq=   17 SFac= 1.00D+00 NAtFMM=   60 NAOKFM=F Big=F
 Integral buffers will be    131072 words long.
 Raffenetti 2 integral format.
 Two-electron integral symmetry is turned on.
 Nuclear repulsion after empirical dispersion term =      258.7674944570 Hartrees.
 One-electron integrals computed using PRISM.
 NBasis=   145 RedAO= T EigKep=  3.95D-03  NBF=   145
 NBsUse=   145 1.00D-06 EigRej= -1.00D+00 NBFU=   145
 Initial guess from the checkpoint file:  "SecN2_conf-1.chk"
 B after Tr=    -0.000000   -0.000000   -0.000000
         Rot=    0.708335   -0.000016   -0.000016   -0.705876 Ang= -89.80 deg.
 ExpMin= 1.61D-01 ExpMax= 4.17D+03 ExpMxC= 6.27D+02 IAcc=3 IRadAn=         5 AccDes= 0.00D+00
 Harris functional with IExCor=  402 and IRadAn=       5 diagonalized for initial guess.
 HarFok:  IExCor=  402 AccDes= 0.00D+00 IRadAn=         5 IDoV= 1 UseB2=F ITyADJ=14
 ICtDFT=  3500011 ScaDFX=  1.000000  1.000000  1.000000  1.000000
 FoFCou: FMM=F IPFlag=           0 FMFlag=      100000 FMFlg1=           0
         NFxFlg=           0 DoJE=T BraDBF=F KetDBF=T FulRan=T
         wScrn=  0.000000 ICntrl=       500 IOpCl=  0 I1Cent=   200000004 NGrid=           0
         NMat0=    1 NMatS0=      1 NMatT0=    0 NMatD0=    1 NMtDS0=    0 NMtDT0=    0
 Petite list used in FoFCou.
 Requested convergence on RMS density matrix=1.00D-08 within 128 cycles.
 Requested convergence on MAX density matrix=1.00D-06.
 Requested convergence on             energy=1.00D-06.
 No special actions if energy rises.
 Integral accuracy reduced to 1.0D-05 until final iterations.
 Initial convergence to 1.0D-05 achieved.  Increase integral accuracy.
 SCF Done:  E(RB3LYP) =  -251.945296976     A.U. after    9 cycles
            NFock=  9  Conv=0.58D-08     -V/T= 2.0100
 Calling FoFJK, ICntrl=      2127 FMM=F ISym2X=0 I1Cent= 0 IOpClX= 0 NMat=1 NMatS=1 NMatT=0.
 ***** Axes restored to original set *****
 -------------------------------------------------------------------
 Center     Atomic                   Forces (Hartrees/Bohr)
 Number     Number              X              Y              Z
 -------------------------------------------------------------------
      1        6           0.000036850    0.000000147    0.000013815
      2        6           0.000488795   -0.000793374   -0.000434449
      3        6          -0.000081916   -0.000268411   -0.000233675
      4        7           0.000050800   -0.000117892    0.000497414
      5        6          -0.000161496    0.000308937   -0.000085575
      6        6           0.000246262    0.000999120    0.000046166
      7        1          -0.000010749   -0.000060592    0.000222380
      8        1           0.000061060    0.000008731   -0.000001853
      9        1          -0.000111055    0.000383428   -0.000056980
     10        1          -0.000134017   -0.000087599    0.000190347
     11        1          -0.000038739    0.000207446    0.000355656
     12        1          -0.000056473    0.000173338   -0.000104644
     13        1          -0.000153087    0.000082529   -0.000390862
     14        1           0.000037728   -0.000355642    0.000205795
     15        1          -0.000018138   -0.000105575   -0.000176856
     16        1          -0.000138468   -0.000053163    0.000199275
     17        1          -0.000017358   -0.000321427   -0.000245952
 -------------------------------------------------------------------
 Cartesian Forces:  Max     0.000999120 RMS     0.000271681

 GradGradGradGradGradGradGradGradGradGradGradGradGradGradGradGradGradGrad
 Berny optimization.
 Using GEDIIS/GDIIS optimizer.
 FormGI is forming the generalized inverse of G from B-inverse, IUseBI=4.
 Internal  Forces:  Max     0.000380305 RMS     0.000135337
 Search for a local minimum.
 Step number   3 out of a maximum of  102
 All quantities printed in internal units (Hartrees-Bohrs-Radians)
 Mixed Optimization -- En-DIIS/RFO-DIIS
 Swapping is turned off.
 Update second derivatives using D2CorX and points    1    2    3
 DE= -2.25D-04 DEPred=-2.04D-04 R= 1.10D+00
 TightC=F SS=  1.41D+00  RLast= 1.84D-01 DXNew= 8.4853D-01 5.5275D-01
 Trust test= 1.10D+00 RLast= 1.84D-01 DXMaxT set to 5.53D-01
 ITU=  1  1  0
     Eigenvalues ---    0.00512   0.00513   0.00888   0.01800   0.02253
     Eigenvalues ---    0.03280   0.04003   0.04360   0.04636   0.04998
     Eigenvalues ---    0.05002   0.05554   0.05923   0.06243   0.06381
     Eigenvalues ---    0.07919   0.07926   0.07953   0.08046   0.08142
     Eigenvalues ---    0.08982   0.09274   0.11648   0.11977   0.12615
     Eigenvalues ---    0.15836   0.16204   0.22226   0.27171   0.28005
     Eigenvalues ---    0.28213   0.29541   0.34001   0.34573   0.34631
     Eigenvalues ---    0.34660   0.34687   0.34691   0.34724   0.34797
     Eigenvalues ---    0.34887   0.35000   0.35223   0.35302   0.45688
 En-DIIS/RFO-DIIS/Sim-DIIS IScMMF=       -3 using points:     3    2
 RFO step:  Lambda=-2.65108352D-05.
 DidBck=F Rises=F RFO-DIIS coefs:    1.17580   -0.17580
 Iteration  1 RMS(Cart)=  0.00413043 RMS(Int)=  0.00001481
 Iteration  2 RMS(Cart)=  0.00001535 RMS(Int)=  0.00000560
 Iteration  3 RMS(Cart)=  0.00000000 RMS(Int)=  0.00000560
 Variable       Old X    -DE/DX   Delta X   Delta X   Delta X     New X
                                 (Linear)    (Quad)   (Total)
    R1        2.89842   0.00037   0.00005   0.00182   0.00187   2.90029
    R2        2.89842   0.00037   0.00006   0.00182   0.00187   2.90029
    R3        2.07114  -0.00012   0.00024  -0.00051  -0.00027   2.07087
    R4        2.07705   0.00001   0.00047  -0.00021   0.00026   2.07731
    R5        2.89213   0.00022   0.00121  -0.00030   0.00091   2.89305
    R6        2.07243  -0.00038  -0.00020  -0.00098  -0.00118   2.07125
    R7        2.07293  -0.00019   0.00019  -0.00067  -0.00048   2.07245
    R8        2.76616   0.00006   0.00003  -0.00020  -0.00017   2.76599
    R9        2.07094  -0.00031   0.00029  -0.00120  -0.00091   2.07003
   R10        2.09570  -0.00016   0.00039  -0.00054  -0.00015   2.09554
   R11        2.76619   0.00006   0.00002  -0.00022  -0.00020   2.76600
   R12        1.92027  -0.00001   0.00061  -0.00046   0.00015   1.92042
   R13        2.89214   0.00021   0.00121  -0.00031   0.00090   2.89304
   R14        2.07093  -0.00031   0.00029  -0.00120  -0.00091   2.07003
   R15        2.09568  -0.00015   0.00039  -0.00054  -0.00014   2.09554
   R16        2.07293  -0.00019   0.00019  -0.00067  -0.00048   2.07245
   R17        2.07243  -0.00038  -0.00020  -0.00099  -0.00119   2.07125
    A1        1.92756   0.00019  -0.00085   0.00325   0.00238   1.92994
    A2        1.93057  -0.00003   0.00093  -0.00001   0.00091   1.93148
    A3        1.90482  -0.00005  -0.00025  -0.00094  -0.00119   1.90363
    A4        1.93058  -0.00003   0.00093  -0.00002   0.00091   1.93148
    A5        1.90482  -0.00005  -0.00025  -0.00094  -0.00119   1.90363
    A6        1.86411  -0.00004  -0.00051  -0.00153  -0.00205   1.86206
    A7        1.93115  -0.00022  -0.00107  -0.00125  -0.00233   1.92881
    A8        1.93341  -0.00003  -0.00058   0.00031  -0.00025   1.93316
    A9        1.91107   0.00016  -0.00068   0.00155   0.00086   1.91194
   A10        1.91508   0.00019   0.00136   0.00097   0.00233   1.91741
   A11        1.89535  -0.00007  -0.00024  -0.00140  -0.00164   1.89371
   A12        1.87658  -0.00003   0.00128  -0.00018   0.00110   1.87768
   A13        1.91375   0.00018  -0.00083  -0.00037  -0.00121   1.91254
   A14        1.92360   0.00007   0.00238   0.00090   0.00327   1.92687
   A15        1.89567   0.00003  -0.00050   0.00031  -0.00021   1.89547
   A16        1.89446  -0.00009   0.00126  -0.00096   0.00030   1.89476
   A17        1.96439  -0.00018  -0.00201   0.00030  -0.00172   1.96267
   A18        1.87161  -0.00001  -0.00014  -0.00015  -0.00028   1.87133
   A19        1.95445  -0.00009  -0.00052  -0.00110  -0.00163   1.95282
   A20        1.91105   0.00005   0.00028   0.00227   0.00255   1.91360
   A21        1.91102   0.00005   0.00029   0.00228   0.00258   1.91360
   A22        1.91374   0.00018  -0.00082  -0.00037  -0.00121   1.91253
   A23        1.89444  -0.00009   0.00126  -0.00095   0.00031   1.89476
   A24        1.96437  -0.00018  -0.00200   0.00031  -0.00170   1.96267
   A25        1.92361   0.00007   0.00237   0.00089   0.00326   1.92688
   A26        1.89568   0.00003  -0.00050   0.00030  -0.00022   1.89547
   A27        1.87164  -0.00002  -0.00015  -0.00015  -0.00030   1.87134
   A28        1.93115  -0.00022  -0.00107  -0.00126  -0.00234   1.92881
   A29        1.91107   0.00016  -0.00068   0.00156   0.00087   1.91194
   A30        1.93341  -0.00003  -0.00058   0.00031  -0.00026   1.93316
   A31        1.89535  -0.00007  -0.00023  -0.00139  -0.00163   1.89371
   A32        1.91508   0.00019   0.00136   0.00097   0.00233   1.91741
   A33        1.87658  -0.00003   0.00129  -0.00018   0.00110   1.87768
    D1       -0.92815   0.00007  -0.00319   0.00413   0.00095  -0.92721
    D2       -3.05605  -0.00001  -0.00379   0.00354  -0.00025  -3.05629
    D3        1.16037  -0.00006  -0.00459   0.00261  -0.00198   1.15839
    D4       -3.07132  -0.00000  -0.00441   0.00193  -0.00248  -3.07380
    D5        1.08397  -0.00008  -0.00502   0.00135  -0.00367   1.08030
    D6       -0.98279  -0.00013  -0.00582   0.00041  -0.00541  -0.98820
    D7        1.16588   0.00009  -0.00418   0.00438   0.00020   1.16608
    D8       -0.96201   0.00002  -0.00479   0.00379  -0.00100  -0.96301
    D9       -3.02878  -0.00003  -0.00559   0.00286  -0.00273  -3.03151
   D10        0.92815  -0.00007   0.00318  -0.00412  -0.00094   0.92722
   D11       -1.16037   0.00006   0.00459  -0.00260   0.00199  -1.15838
   D12        3.05605   0.00001   0.00379  -0.00354   0.00025   3.05630
   D13        3.07132   0.00001   0.00441  -0.00192   0.00249   3.07381
   D14        0.98280   0.00013   0.00582  -0.00040   0.00541   0.98821
   D15       -1.08397   0.00008   0.00501  -0.00134   0.00368  -1.08029
   D16       -1.16588  -0.00009   0.00418  -0.00436  -0.00019  -1.16607
   D17        3.02878   0.00003   0.00558  -0.00285   0.00274   3.03152
   D18        0.96202  -0.00002   0.00478  -0.00378   0.00100   0.96301
   D19        0.99046  -0.00003   0.00226  -0.00070   0.00156   0.99202
   D20        3.07490   0.00002   0.00475  -0.00156   0.00319   3.07808
   D21       -1.16266   0.00006   0.00563  -0.00104   0.00459  -1.15807
   D22        3.12909  -0.00008   0.00175  -0.00048   0.00126   3.13034
   D23       -1.06967  -0.00004   0.00424  -0.00134   0.00289  -1.06678
   D24        0.97596   0.00000   0.00512  -0.00083   0.00429   0.98026
   D25       -1.10749  -0.00005   0.00391  -0.00097   0.00294  -1.10454
   D26        0.97695  -0.00000   0.00640  -0.00183   0.00457   0.98152
   D27        3.02258   0.00004   0.00729  -0.00131   0.00598   3.02856
   D28       -1.07961  -0.00006  -0.00163  -0.00521  -0.00685  -1.08646
   D29        3.08047  -0.00010  -0.00185  -0.00894  -0.01080   3.06967
   D30        3.10134  -0.00021  -0.00479  -0.00550  -0.01029   3.09105
   D31        0.97824  -0.00025  -0.00501  -0.00923  -0.01424   0.96400
   D32        1.03250  -0.00002  -0.00423  -0.00487  -0.00909   1.02340
   D33       -1.09061  -0.00006  -0.00445  -0.00860  -0.01304  -1.10365
   D34        1.07961   0.00006   0.00163   0.00523   0.00686   1.08647
   D35       -3.10135   0.00021   0.00479   0.00552   0.01031  -3.09104
   D36       -1.03250   0.00002   0.00422   0.00489   0.00911  -1.02339
   D37       -3.08046   0.00010   0.00185   0.00895   0.01080  -3.06966
   D38       -0.97823   0.00025   0.00501   0.00924   0.01425  -0.96398
   D39        1.09062   0.00006   0.00444   0.00861   0.01304   1.10367
   D40       -0.99045   0.00003  -0.00226   0.00067  -0.00159  -0.99204
   D41        1.10749   0.00005  -0.00391   0.00094  -0.00297   1.10453
[...]

 **** Warning!!: The largest alpha MO coefficient is  0.24070041D+02

          Differentiating once with respect to magnetic field using GIAOs.
          Electric field/nuclear overlap derivatives assumed to be zero.
 FoFCou: FMM=F IPFlag=           0 FMFlag=      100000 FMFlg1=           0
         NFxFlg=           0 DoJE=F BraDBF=F KetDBF=T FulRan=T
         wScrn=  0.000000 ICntrl=      6100 IOpCl=  0 I1Cent=           7 NGrid=          17
         NMat0=    1 NMatS0=      1 NMatT0=    0 NMatD0=    1 NMtDS0=    0 NMtDT0=    0
 Symmetry not used in FoFCou.
   1 Symmetry operations used in ECPInt.
 ECPInt:  NShTT=    6105 NPrTT=   17556 LenC2=    6106 LenP2D=   17556.
 LDataN:  DoStor=T MaxTD1= 7 Len=  274
 FoFJK:  IHMeth= 1 ICntrl=    6127 DoSepK=F KAlg= 0 I1Cent=           0 FoldK=F
 IRaf=         1 NMat=       1 IRICut=       1 DoRegI=T DoRafI=F ISym2E= 0 IDoP0=0 IntGTp=1.
          There are     3 degrees of freedom in the 1st order CPHF.  IDoFFX=0 NUNeed=     3.
      3 vectors produced by pass  0 Test12= 1.82D-13 3.33D-08 XBig12= 4.17D+00 5.95D-01.
 AX will form     3 AO Fock derivatives at one time.
      3 vectors produced by pass  1 Test12= 1.82D-13 3.33D-08 XBig12= 1.11D-02 1.84D-02.
      3 vectors produced by pass  2 Test12= 1.82D-13 3.33D-08 XBig12= 7.56D-05 2.69D-03.
      3 vectors produced by pass  3 Test12= 1.82D-13 3.33D-08 XBig12= 1.25D-06 4.43D-04.
      3 vectors produced by pass  4 Test12= 1.82D-13 3.33D-08 XBig12= 1.34D-08 3.68D-05.
      3 vectors produced by pass  5 Test12= 1.82D-13 3.33D-08 XBig12= 8.73D-11 2.90D-06.
      3 vectors produced by pass  6 Test12= 1.82D-13 3.33D-08 XBig12= 6.96D-13 1.75D-07.
 InvSVY:  IOpt=1 It=  1 EMax= 8.88D-16
 Solved reduced A of dimension    21 with     3 vectors.
 Calculating GIAO nuclear magnetic shielding tensors.
 SCF GIAO Magnetic shielding tensor (ppm):
      1  C    Isotropic =   158.1492   Anisotropy =     8.1329
   XX=   153.6456   YX=     0.0017   ZX=     2.0681
   XY=     0.0015   YY=   158.4041   ZY=    -0.0010
   XZ=    -8.8933   YZ=     0.0035   ZZ=   162.3978
   Eigenvalues:   152.4723   158.4041   163.5711
      2  C    Isotropic =   156.8533   Anisotropy =     9.8840
   XX=   158.2096   YX=    -3.1222   ZX=    -5.2196
   XY=     1.9593   YY=   151.7458   ZY=     0.2155
   XZ=     2.8692   YZ=   -11.4208   ZZ=   160.6045
   Eigenvalues:   148.9172   158.2002   163.4426
      3  C    Isotropic =   134.6370   Anisotropy =    29.9045
   XX=   124.2156   YX=   -16.1350   ZX=     1.1705
   XY=   -14.6640   YY=   142.7831   ZY=   -12.2328
   XZ=     5.7270   YZ=    -0.8463   ZZ=   136.9122
   Eigenvalues:   115.5156   133.8220   154.5733
      4  N    Isotropic =   205.8491   Anisotropy =    41.8964
   XX=   233.7778   YX=    -0.0189   ZX=     4.9265
   XY=    -0.0192   YY=   182.9354   ZY=    -0.0017
   XZ=    -4.3854   YZ=     0.0010   ZZ=   200.8342
   Eigenvalues:   182.9354   200.8320   233.7800
      5  C    Isotropic =   134.6366   Anisotropy =    29.9041
   XX=   124.2385   YX=    16.1484   ZX=     1.1788
   XY=    14.6782   YY=   142.7597   ZY=    12.2325
   XZ=     5.7270   YZ=     0.8414   ZZ=   136.9116
   Eigenvalues:   115.5155   133.8217   154.5727
      6  C    Isotropic =   156.8531   Anisotropy =     9.8835
   XX=   158.2107   YX=     3.1176   ZX=    -5.2198
   XY=    -1.9641   YY=   151.7451   ZY=    -0.2113
   XZ=     2.8776   YZ=    11.4191   ZZ=   160.6034
   Eigenvalues:   148.9168   158.2004   163.4421
      7  H    Isotropic =    30.2369   Anisotropy =     9.7203
   XX=    36.4882   YX=    -0.0031   ZX=    -1.4009
   XY=    -0.0032   YY=    28.1254   ZY=     0.0005
   XZ=    -1.7174   YZ=     0.0007   ZZ=    26.0971
   Eigenvalues:    25.8682    28.1254    36.7171
      8  H    Isotropic =    30.7526   Anisotropy =     8.1989
   XX=    29.3925   YX=    -0.0002   ZX=     4.4907
   XY=    -0.0002   YY=    28.7619   ZY=    -0.0017
   XZ=     3.1087   YZ=    -0.0012   ZZ=    34.1035
   Eigenvalues:    27.2774    28.7619    36.2186
      9  H    Isotropic =    30.5048   Anisotropy =     9.7014
   XX=    29.8994   YX=    -3.3079   ZX=     0.9009
   XY=    -3.4680   YY=    34.9748   ZY=    -1.1468
   XZ=     1.1960   YZ=    -1.7548   ZZ=    26.6403
   Eigenvalues:    26.2959    28.2462    36.9724
     10  H    Isotropic =    30.4596   Anisotropy =     8.3697
   XX=    28.2826   YX=     0.0472   ZX=    -2.0154
   XY=    -0.1577   YY=    29.2985   ZY=     4.1479
   XZ=    -1.0527   YZ=     3.0592   ZZ=    33.7979
   Eigenvalues:    26.8905    28.4489    36.0394
     11  H    Isotropic =    28.9658   Anisotropy =     8.4328
   XX=    28.7729   YX=     2.3877   ZX=     0.5441
   XY=     3.1671   YY=    33.1393   ZY=     0.7007
   XZ=     1.2744   YZ=     0.5768   ZZ=    24.9852
   Eigenvalues:    24.7782    27.5315    34.5876
     12  H    Isotropic =    29.4146   Anisotropy =     8.1593
   XX=    28.1687   YX=    -0.0257   ZX=    -1.7995
   XY=    -0.6617   YY=    28.2042   ZY=    -5.2977
   XZ=    -2.0494   YZ=    -2.9281   ZZ=    31.8709
   Eigenvalues:    24.9424    28.4473    34.8541
     13  H    Isotropic =    31.3113   Anisotropy =    14.6661
   XX=    41.0619   YX=    -0.0041   ZX=    -0.9168
   XY=    -0.0041   YY=    30.1602   ZY=     0.0003
   XZ=    -0.4864   YZ=     0.0002   ZZ=    22.7117
   Eigenvalues:    22.6849    30.1602    41.0887
     14  H    Isotropic =    28.9658   Anisotropy =     8.4328
   XX=    28.7687   YX=    -2.3844   ZX=     0.5436
   XY=    -3.1638   YY=    33.1435   ZY=    -0.7011
   XZ=     1.2739   YZ=    -0.5777   ZZ=    24.9851
   Eigenvalues:    24.7781    27.5315    34.5876
     15  H    Isotropic =    29.4146   Anisotropy =     8.1593
   XX=    28.1692   YX=     0.0258   ZX=    -1.7955
   XY=     0.6617   YY=    28.2037   ZY=     5.2990
   XZ=    -2.0472   YZ=     2.9296   ZZ=    31.8709
   Eigenvalues:    24.9423    28.4473    34.8541
     16  H    Isotropic =    30.4597   Anisotropy =     8.3698
   XX=    28.2826   YX=    -0.0464   ZX=    -2.0185
   XY=     0.1585   YY=    29.2984   ZY=    -4.1464
   XZ=    -1.0550   YZ=    -3.0585   ZZ=    33.7979
   Eigenvalues:    26.8905    28.4489    36.0395
     17  H    Isotropic =    30.5048   Anisotropy =     9.7014
   XX=    29.9044   YX=     3.3118   ZX=     0.9017
   XY=     3.4718   YY=    34.9697   ZY=     1.1461
   XZ=     1.1973   YZ=     1.7539   ZZ=    26.6403
   Eigenvalues:    26.2959    28.2461    36.9724
 End of Minotr F.D. properties file   721 does not exist.
 End of Minotr F.D. properties file   722 does not exist.
 End of Minotr F.D. properties file   788 does not exist.

 **********************************************************************

            Population analysis using the SCF Density.

 **********************************************************************

 Orbital symmetries:
       Occupied  (A) (A) (A) (A) (A) (A) (A) (A) (A) (A) (A) (A)
                 (A) (A) (A) (A) (A) (A) (A) (A) (A) (A) (A) (A)
       Virtual   (A) (A) (A) (A) (A) (A) (A) (A) (A) (A) (A) (A)
                 (A) (A) (A) (A) (A) (A) (A) (A) (A) (A) (A) (A)
                 (A) (A) (A) (A) (A) (A) (A) (A) (A) (A) (A) (A)
                 (A) (A) (A) (A) (A) (A) (A) (A) (A) (A) (A) (A)
                 (A) (A) (A) (A) (A) (A) (A) (A) (A) (A) (A) (A)
                 (A) (A) (A) (A) (A) (A) (A) (A) (A) (A) (A) (A)
                 (A) (A) (A) (A) (A) (A) (A) (A) (A) (A) (A) (A)
                 (A) (A) (A) (A) (A) (A) (A) (A) (A) (A) (A) (A)
                 (A) (A) (A) (A) (A) (A) (A) (A) (A) (A) (A) (A)
                 (A) (A) (A) (A) (A) (A) (A) (A) (A) (A) (A) (A)
                 (A) (A) (A) (A) (A) (A) (A) (A) (A) (A) (A) (A)
                 (A) (A) (A) (A) (A) (A) (A) (A) (A) (A) (A) (A)
                 (A) (A) (A) (A) (A) (A) (A) (A) (A) (A) (A) (A)
                 (A) (A) (A) (A) (A) (A) (A) (A) (A) (A) (A) (A)
                 (A) (A) (A) (A) (A) (A) (A) (A) (A) (A) (A) (A)
                 (A) (A) (A) (A) (A) (A) (A) (A) (A) (A) (A) (A)
                 (A) (A) (A) (A) (A) (A) (A) (A) (A) (A) (A) (A)
                 (A) (A) (A) (A) (A) (A) (A) (A) (A) (A) (A) (A)
                 (A) (A) (A) (A) (A) (A) (A) (A) (A) (A) (A) (A)
 The electronic state is 1-A.
 Alpha  occ. eigenvalues --  -14.72545 -10.55210 -10.55209 -10.52624 -10.52420
 Alpha  occ. eigenvalues --  -10.52416  -1.01153  -0.87763  -0.84126  -0.71683
 Alpha  occ. eigenvalues --   -0.69876  -0.62745  -0.57997  -0.51880  -0.51511
 Alpha  occ. eigenvalues --   -0.48842  -0.46830  -0.45747  -0.44138  -0.40239
 Alpha  occ. eigenvalues --   -0.38361  -0.36537  -0.36368  -0.28732
 Alpha virt. eigenvalues --    0.06475   0.09025   0.09995   0.10129   0.12374
 Alpha virt. eigenvalues --    0.13524   0.14054   0.15003   0.15549   0.16453
 Alpha virt. eigenvalues --    0.17093   0.18842   0.20152   0.23028   0.23284
 Alpha virt. eigenvalues --    0.25367   0.25822   0.27755   0.28092   0.28235
 Alpha virt. eigenvalues --    0.28340   0.33966   0.35139   0.36174   0.40243
 Alpha virt. eigenvalues --    0.40855   0.42275   0.43132   0.43996   0.44829
 Alpha virt. eigenvalues --    0.44870   0.45126   0.45628   0.47219   0.48486
 Alpha virt. eigenvalues --    0.48500   0.48637   0.49719   0.51598   0.53138
 Alpha virt. eigenvalues --    0.53664   0.54082   0.55778   0.58222   0.59225
 Alpha virt. eigenvalues --    0.63953   0.65897   0.70909   0.73559   0.74173
 Alpha virt. eigenvalues --    0.79207   0.79444   0.79928   0.81867   0.84889
 Alpha virt. eigenvalues --    0.89803   0.90496   0.90991   0.94431   0.97189
 Alpha virt. eigenvalues --    0.98970   0.99960   1.03265   1.06313   1.11262
 Alpha virt. eigenvalues --    1.12206   1.15340   1.17131   1.17191   1.19108
 Alpha virt. eigenvalues --    1.19186   1.22877   1.26850   1.29038   1.30308
 Alpha virt. eigenvalues --    1.33120   1.36154   1.42984   1.47868   1.50560
 Alpha virt. eigenvalues --    1.53193   1.53404   1.53781   1.59991   1.60916
 Alpha virt. eigenvalues --    1.61470   1.64073   1.64868   1.66382   1.67960
 Alpha virt. eigenvalues --    1.70760   1.70914   1.72057   1.76074   1.76548
 Alpha virt. eigenvalues --    1.81128   1.84183   1.84351   1.85973   1.87794
 Alpha virt. eigenvalues --    1.91811   1.92817   1.98358   2.00021   2.01854
 Alpha virt. eigenvalues --    2.03300   2.05230   2.07718   2.10093   2.10456
 Alpha virt. eigenvalues --    2.14963   2.20137   2.22010   2.24438   2.27773
 Alpha virt. eigenvalues --    2.33710   2.33845   2.37137   2.40199   2.43517
 Alpha virt. eigenvalues --    2.44031   2.44216   2.50854   2.53519   2.54790
 Alpha virt. eigenvalues --    2.54977   2.55983   2.57518   2.59370   2.59468
 Alpha virt. eigenvalues --    2.59784   2.63249   2.64458   2.64555   2.68206
 Alpha virt. eigenvalues --    2.68786   2.70549   2.72994   2.74928   2.76944
 Alpha virt. eigenvalues --    2.78509   2.78624   2.81817   2.83100   2.89920
 Alpha virt. eigenvalues --    2.93590   2.94895   2.95729   2.99971   3.03965
 Alpha virt. eigenvalues --    3.05832   3.07878   3.09271   3.12562   3.13136
 Alpha virt. eigenvalues --    3.17660   3.18506   3.18836   3.21456   3.24379
 Alpha virt. eigenvalues --    3.26667   3.30151   3.30891   3.33711   3.35920
 Alpha virt. eigenvalues --    3.37108   3.40148   3.41857   3.41968   3.43790
 Alpha virt. eigenvalues --    3.45230   3.45323   3.49079   3.51419   3.51756
 Alpha virt. eigenvalues --    3.52390   3.58828   3.62057   3.62594   3.64475
 Alpha virt. eigenvalues --    3.71355   3.72960   3.74518   3.81160   3.85974
 Alpha virt. eigenvalues --    3.90264   3.91194   3.98656   3.99765   4.01633
 Alpha virt. eigenvalues --    4.02335   4.08505   4.15242   4.15554   4.20649
 Alpha virt. eigenvalues --    4.24327   4.24729   4.31079   4.32939   4.36585
 Alpha virt. eigenvalues --    4.39176   4.46589   4.48763   4.55822   4.58012
 Alpha virt. eigenvalues --    4.62504   4.65026   4.74219   4.74976   4.81007
 Alpha virt. eigenvalues --    4.84820   4.85655   4.98579   5.02406   5.08088
 Alpha virt. eigenvalues --    5.08783   5.26060   5.28804   5.31999   5.51518
 Alpha virt. eigenvalues --    5.52879   5.80200  22.51843  22.56105  22.56572
 Alpha virt. eigenvalues --   22.59509  22.67523  32.44386
          Condensed to atoms (all electrons):
               1          2          3          4          5          6
     1  C    5.225940   0.261616  -0.052644  -0.003136  -0.052644   0.261617
     2  C    0.261616   5.162806   0.251760  -0.035538  -0.005623  -0.035546
     3  C   -0.052644   0.251760   5.062790   0.249505  -0.053411  -0.005623
     4  N   -0.003136  -0.035538   0.249505   6.755805   0.249505  -0.035538
     5  C   -0.052644  -0.005623  -0.053411   0.249505   5.062790   0.251760
     6  C    0.261617  -0.035546  -0.005623  -0.035538   0.251760   5.162807
     7  H    0.428678  -0.041855   0.008134  -0.001096   0.008134  -0.041855
     8  H    0.430444  -0.055264   0.001419  -0.001549   0.001419  -0.055264
     9  H   -0.053630   0.426292  -0.043986   0.005502  -0.000099   0.009718
    10  H   -0.051331   0.416497  -0.038611   0.003362   0.001789  -0.002418
    11  H    0.010229  -0.030394   0.411899  -0.029574   0.008701  -0.001902
    12  H   -0.023531  -0.076660   0.460379  -0.068354  -0.004355   0.001999
    13  H    0.000533   0.010746  -0.047381   0.362423  -0.047381   0.010746
    14  H    0.010229  -0.001902   0.008701  -0.029574   0.411899  -0.030394
    15  H   -0.023531   0.001999  -0.004356  -0.068354   0.460380  -0.076661
    16  H   -0.051331  -0.002418   0.001789   0.003362  -0.038611   0.416497
    17  H   -0.053630   0.009718  -0.000099   0.005502  -0.043986   0.426292
               7          8          9         10         11         12
     1  C    0.428678   0.430444  -0.053630  -0.051331   0.010229  -0.023531
     2  C   -0.041855  -0.055264   0.426292   0.416497  -0.030394  -0.076660
     3  C    0.008134   0.001419  -0.043986  -0.038611   0.411899   0.460379
     4  N   -0.001096  -0.001549   0.005502   0.003362  -0.029574  -0.068354
     5  C    0.008134   0.001419  -0.000099   0.001789   0.008701  -0.004355
     6  C   -0.041855  -0.055264   0.009718  -0.002418  -0.001902   0.001999
     7  H    0.543767  -0.020916  -0.005557  -0.003979  -0.000333  -0.000208
     8  H   -0.020916   0.545984  -0.003037   0.007104  -0.000233   0.004423
     9  H   -0.005557  -0.003037   0.551155  -0.018129  -0.005006   0.003842
    10  H   -0.003979   0.007104  -0.018129   0.541651  -0.006211   0.009100
    11  H   -0.000333  -0.000233  -0.005006  -0.006211   0.547899  -0.029955
    12  H   -0.000208   0.004423   0.003842   0.009100  -0.029955   0.582996
    13  H    0.000182  -0.000207  -0.000737  -0.000590  -0.008038  -0.007483
    14  H   -0.000333  -0.000233   0.000121  -0.000124  -0.000395  -0.000096
    15  H   -0.000208   0.004423   0.000405   0.000642  -0.000096   0.012716
    16  H   -0.003979   0.007104   0.000228   0.002630  -0.000124   0.000642
    17  H   -0.005557  -0.003037  -0.000203   0.000228   0.000121   0.000405
              13         14         15         16         17
     1  C    0.000533   0.010229  -0.023531  -0.051331  -0.053630
     2  C    0.010746  -0.001902   0.001999  -0.002418   0.009718
     3  C   -0.047381   0.008701  -0.004356   0.001789  -0.000099
     4  N    0.362423  -0.029574  -0.068354   0.003362   0.005502
     5  C   -0.047381   0.411899   0.460380  -0.038611  -0.043986
     6  C    0.010746  -0.030394  -0.076661   0.416497   0.426292
     7  H    0.000182  -0.000333  -0.000208  -0.003979  -0.005557
     8  H   -0.000207  -0.000233   0.004423   0.007104  -0.003037
     9  H   -0.000737   0.000121   0.000405   0.000228  -0.000203
    10  H   -0.000590  -0.000124   0.000642   0.002630   0.000228
    11  H   -0.008038  -0.000395  -0.000096  -0.000124   0.000121
    12  H   -0.007483  -0.000096   0.012716   0.000642   0.000405
    13  H    0.537429  -0.008038  -0.007483  -0.000590  -0.000737
    14  H   -0.008038   0.547898  -0.029955  -0.006211  -0.005006
    15  H   -0.007483  -0.029955   0.582996   0.009101   0.003842
    16  H   -0.000590  -0.006211   0.009101   0.541651  -0.018129
    17  H   -0.000737  -0.005006   0.003842  -0.018129   0.551155
 Mulliken charges:
               1
     1  C   -0.263877
     2  C   -0.256234
     3  C   -0.210266
     4  N   -0.362251
     5  C   -0.210266
     6  C   -0.256235
     7  H    0.136982
     8  H    0.137420
     9  H    0.133122
    10  H    0.138388
    11  H    0.133412
    12  H    0.134138
    13  H    0.206605
    14  H    0.133412
    15  H    0.134138
    16  H    0.138388
    17  H    0.133122
 Sum of Mulliken charges =  -0.00000
 Mulliken charges with hydrogens summed into heavy atoms:
               1
     1  C    0.010525
     2  C    0.015277
     3  C    0.057285
     4  N   -0.155646
     5  C    0.057284
     6  C    0.015276
 Electronic spatial extent (au):  <R**2>=            566.0457
 Charge=              0.0000 electrons
 Dipole moment (field-independent basis, Debye):
    X=             -0.1933    Y=              0.0001    Z=              0.8863  Tot=              0.9071
 Quadrupole moment (field-independent basis, Debye-Ang):
   XX=            -37.3664   YY=            -38.2333   ZZ=            -41.1989
   XY=             -0.0003   XZ=             -1.5208   YZ=              0.0006
 Traceless Quadrupole moment (field-independent basis, Debye-Ang):
   XX=              1.5665   YY=              0.6996   ZZ=             -2.2660
   XY=             -0.0003   XZ=             -1.5208   YZ=              0.0006
 Octapole moment (field-independent basis, Debye-Ang**2):
  XXX=            -11.5262  YYY=              0.0029  ZZZ=              0.6272  XYY=             -2.5508
  XXY=              0.0024  XXZ=              1.2107  XZZ=              1.8628  YZZ=             -0.0007
  YYZ=             -0.7801  XYZ=             -0.0007
 Hexadecapole moment (field-independent basis, Debye-Ang**3):
 XXXX=           -310.6867 YYYY=           -342.2967 ZZZZ=            -98.1441 XXXY=             -0.0093
 XXXZ=             -3.1471 YYYX=             -0.0028 YYYZ=             -0.0042 ZZZX=             -2.9252
 ZZZY=              0.0011 XXYY=           -111.6751 XXZZ=            -77.5965 YYZZ=            -75.3137
 XXYZ=              0.0040 YYXZ=              3.7145 ZZXY=              0.0008
 N-N= 2.588003907490D+02 E-N=-1.101743434548D+03  KE= 2.504341620283D+02
 Unable to Open any file for archive entry.
 1\1\GINC-NOTCH162\SP\RM062X\def2TZVP\C5H11N1\U6032257\23-Sep-2022\0\\#
  M062X/def2tzvp int=(grid=ultrafine) nmr=giao guess=read geom=check\\S
 ecN2.xyz\\0,1\C,0,1.3756376559,0.1846454104,-0.0000438983\C,0,0.738468
 4542,-1.0375361117,-0.6750729069\C,0,-0.6328395969,-1.3341867985,-0.06
 24722095\N,0,-1.4871784498,-0.1516175712,-0.1793757522\C,0,-0.94472232
 29,0.9894428157,0.5593760937\C,0,0.4139332692,1.3803544145,-0.02799717
 22\H,0,2.325504564,0.4412464943,-0.4824776847\H,0,1.6092471764,-0.0636
 618736,1.044960095\H,0,1.3873831117,-1.9154729965,-0.5788050136\H,0,0.
 6061437402,-0.8390249015,-1.7454086063\H,0,-1.1141946615,-2.1659466399
 ,-0.5880556753\H,0,-0.4893349232,-1.6503388804,0.9905696636\H,0,-2.419
 866675,-0.3678027451,0.1606493479\H,0,-1.6497308222,1.8239387229,0.479
 7209589\H,0,-0.814419243,0.7716679581,1.6387454018\H,0,0.2643214993,1.
 7076640573,-1.0638636994\H,0,0.8314472239,2.2264286453,0.5296510575\\V
 ersion=ES64L-G16RevC.01\State=1-A\HF=-251.8736064\RMSD=8.950e-10\Dipol
 e=-0.018292,-0.0944317,0.3436857\Quadrupole=0.7239311,0.5032687,-1.227
 1998,0.4171354,-1.4564596,0.2721244\PG=C01 [X(C5H11N1)]\\@
 The archive entry for this job was punched.


 Just remember, when you're over the hill, you begin to pick up speed.
 -- Charles Schulz
 Job cpu time:       0 days  0 hours  7 minutes 55.8 seconds.
 Elapsed time:       0 days  0 hours  0 minutes 15.1 seconds.
 File lengths (MBytes):  RWF=     41 Int=      0 D2E=      0 Chk=      8 Scr=      1
 Normal termination of Gaussian 16 at Fri Sep 23 15:04:17 2022.
